 Q-Chem 5.0, Q-Chem, Inc., Pleasanton, CA (2017)
 Q-Chem 5.0.1 for Intel X86 EM64T Linux

User input:
--------------------------------------------------------------
$molecule
0  1
O -2.0925787202 -2.0402177785 0.5296891505
C -2.9400509555 -1.236718149 0.0800783776
C -2.8610676957 -0.4398455906 -1.2754172412
C -2.3086557272 1.0409373755 -1.1137093722
C -2.1108551653 1.4550050916 0.3864236934
O -1.2576153501 2.6030880005 0.4784495621
C -1.1579851758 3.0232357962 1.9014864124
C -0.0400113872 2.2008083444 2.6561148705
O 0.0416309964 0.8754809641 2.0041920623
C 1.4069319469 0.5401180002 1.7210602097
C 1.4020904972 -0.8249469517 0.9714553117
C 1.9466485561 -0.6646554483 -0.5181999987
C 2.4709494133 0.7871424896 -0.7937608566
O 1.7891902285 1.7681310003 -1.1847446853
O -4.272640237 -1.0990882584 0.5950942185
O 3.8721094116 0.8655069521 -0.545131224
O 2.3789593682 1.2747333772 2.0065662809
C 4.3400747577 2.2611918702 -0.7083078383
C 2.4089785329 -1.9087964835 1.5467254144
C 1.9522996125 -3.3104202333 0.9794296711
C 2.4049094767 -3.1859411888 -0.5227210483
C 3.0869842224 -1.7588598351 -0.5264171385
O 3.6763990798 -1.6459594357 0.8306743477
H 0.360810156 -1.1999512057 0.9589360578
H 1.1063315037 -0.8494753925 -1.2232504982
H 2.5655779944 -1.8659170309 2.6420255877
H 2.4847753681 -4.1255013896 1.4954257098
H 0.8669939307 -3.4690309089 1.0851420964
H 3.1338865765 -3.9661584779 -0.7933656402
H 1.5558829101 -3.2332605619 -1.2229855549
H 3.8661701111 -1.6097462739 -1.2978789124
O -2.6259646697 0.8917975935 1.3789621651
C -4.3853082229 -1.8165100252 1.8835049542
C -1.8060005761 -1.0649460154 -2.2641774572
C -1.9849590912 -0.4095540667 -3.6913327313
C -1.312645243 0.9996158231 -3.472742928
C -0.9433869191 0.9324819916 -1.9395631957
O -0.5443974841 -0.4832873871 -1.7744637238
H -3.8772867214 -0.4248761578 -1.7085814381
H -2.9880407524 1.7746701171 -1.5847822123
H -3.74028982 -1.3508413169 2.6564933095
H -1.7590183723 -2.1710048524 -2.2456408835
H -1.4548757015 -0.9980582672 -4.4569236706
H -3.0461081924 -0.3326141661 -3.9773206821
H -0.3993300637 1.1065665361 -4.0795562821
H -1.9916878236 1.8354452053 -3.7047159235
H -0.0873540953 1.5658691969 -1.5993697612
H -4.1045873269 -2.8851086444 1.7833709173
H -5.4447221229 -1.7370188325 2.1892133747
H 5.4324794865 2.2363838828 -0.5419486433
H 3.8653890313 2.930178238 0.0380593871
H 4.1233714739 2.6502214644 -1.7241291457
H 0.9575904102 2.686073063 2.5850513681
H -0.312498894 2.0746448054 3.7253290591
H -2.1355341441 2.8786607803 2.4066746529
H -0.8990531532 4.1007555971 1.8845027989
$end

$rem
JOBTYPE                   OPT
METHOD                    B3LYP
DFT_D                     d3_op
BASIS                     STO-3G
GEOM_OPT_MAX_CYCLES       100
GEOM_OPT_TOL_GRADIENT     300
GEOM_OPT_TOL_DISPLACEMENT 1200
GEOM_OPT_TOL_ENERGY       100
SYMMETRY                  False
THRESH                    12
SCF_CONVERGENCE           8
MAX_SUB_FILE_NUM          128
MEM_STATIC                400
MEM_TOTAL                 4000
$end
--------------------------------------------------------------

   16   -1510.2953257744      7.16E-09 Convergence criterion met
 Total energy in the final basis set = -1510.29532577
   14   -1510.2925255308      4.64E-09 Convergence criterion met
 Total energy in the final basis set = -1510.29252553
   15   -1510.2874484652      2.97E-09 Convergence criterion met
 Total energy in the final basis set = -1510.28744847
   14   -1510.2793709257      8.97E-09 Convergence criterion met
 Total energy in the final basis set = -1510.27937093
   15   -1510.2836061463      4.59E-09 Convergence criterion met
 Total energy in the final basis set = -1510.28360615
   15   -1510.2910467853      7.46E-09 Convergence criterion met
 Total energy in the final basis set = -1510.29104679
   14   -1510.2948068508      4.44E-09 Convergence criterion met
 Total energy in the final basis set = -1510.29480685
   14   -1510.2962269109      1.77E-09 Convergence criterion met
   12   -1510.3057052506      3.81E-09 Convergence criterion met
 Total energy in the final basis set = -1510.30570525
   11   -1510.3057178516      5.69E-09 Convergence criterion met
 Total energy in the final basis set = -1510.30571785
   11   -1510.3057203689      4.15E-09 Convergence criterion met
 Total energy in the final basis set = -1510.30572037
   11   -1510.3057211739      2.64E-09 Convergence criterion met
 Total energy in the final basis set = -1510.30572117
    9   -1510.3057199075      8.13E-09 Convergence criterion met
 Total energy in the final basis set = -1510.30571991
    9   -1510.3057209255      4.30E-09 Convergence criterion met
 Total energy in the final basis set = -1510.30572093

             Standard Nuclear Orientation (Angstroms)
    I     Atom           X                Y                Z
 ----------------------------------------------------------------
    1      O      -1.6048959745    -1.4363512629     1.1837631133
    2      C      -2.6675408064    -1.0556592571     0.6349057984
    3      C      -2.8712303837    -0.6327071444    -0.8685043415
    4      C      -2.1120639089     0.7113918102    -1.2251736744
    5      C      -1.8240233851     1.5453179327     0.0692912037
    6      O      -1.0719459642     2.7234581287    -0.2296121632
    7      C      -0.9794876730     3.5817580992     0.9828591936
    8      C       0.2884031422     3.2188090084     1.8475727896
    9      O       0.3624700583     1.7474252785     1.9925814792
   10      C       1.2952648387     1.2251930307     1.0355391389
   11      C       1.1322277555    -0.3155949860     0.9280872196
   12      C       1.8284111065    -0.8985730349    -0.3696134660
   13      C       2.4691710621     0.2072437528    -1.2819916840
   14      O       1.8664008658     0.8973667501    -2.1461714827
   15      O      -3.9474064750    -1.0961720871     1.2701098838
   16      O       3.8816559166     0.2576235990    -1.0944228003
   17      O       2.1012710498     1.9432252106     0.3968423755
   18      C       4.4585640696     1.3455010568    -1.9157061197
   19      C       1.9206837517    -1.0974123765     2.0665005399
   20      C       1.3720613161    -2.5784597387     2.0738264014
   21      C       2.0743889971    -3.1645392267     0.7934626477
   22      C       2.8701179572    -1.9019101539     0.2727244274
   23      O       3.2907976112    -1.2233223633     1.5223161564
   24      H       0.0515137725    -0.5910521133     0.9537719969
   25      H       1.0469658289    -1.4070361228    -0.9718965209
   26      H       1.9345216321    -0.5913902437     3.0514575502
   27      H       1.6851579249    -3.1070012974     2.9881130706
   28      H       0.2722430805    -2.5967344431     1.9993972570
   29      H       2.7713944578    -3.9781978619     1.0510114032
   30      H       1.3542569926    -3.5377022417     0.0477429301
   31      H       3.7504699182    -2.1243713654    -0.3599086483
   32      O      -2.2916314132     1.2820140158     1.2034055708
   33      C      -3.7884151711    -1.4698841081     2.6941795624
   34      C      -2.1102581843    -1.6535362454    -1.8091025091
   35      C      -2.4197100147    -1.3103288247    -3.3203177414
   36      C      -1.4747567455    -0.0718022908    -3.5553585679
   37      C      -0.8968366888     0.1598375405    -2.1049858111
   38      O      -0.7058938966    -1.2308796843    -1.6306605773
   39      H      -3.9535482986    -0.5693782618    -1.0750022734
   40      H      -2.7522753355     1.3521225698    -1.8604749483
   41      H      -3.1659742237    -0.7279710940     3.2345973118
   42      H      -2.2362252310    -2.7172253057    -1.5281892691
   43      H      -2.1538298715    -2.1573224333    -3.9722785508
   44      H      -3.4835864208    -1.0682804542    -3.4743645394
   45      H      -0.6563061846    -0.3213010280    -4.2494683602
   46      H      -2.0111989314     0.8075925977    -3.9453493693
   47      H       0.0961232707     0.6873688396    -2.0636479271
   48      H      -3.3231255778    -2.4708011267     2.8046557050
   49      H      -4.8074654638    -1.4846887751     3.1223803792
   50      H       5.5505860050     1.3074754608    -1.7482328646
   51      H       4.0655990925     2.3329877479    -1.5987036977
   52      H       4.2396264157     1.2055025787    -2.9940567107
   53      H       1.2139309000     3.5748409029     1.3466076637
   54      H       0.1956771092     3.6629937497     2.8590905726
   55      H      -1.8964083961     3.4546382895     1.5953784290
   56      H      -0.9040091717     4.6259909493     0.6177104136
 ----------------------------------------------------------------

    8   -1510.3057209327      6.55E-09 Convergence criterion met
 Total energy in the final basis set = -1510.30572093
 Final energy is   -1510.30572093272
 **  OPTIMIZATION CONVERGED  **

                    Orbital Energies (a.u.)
 --------------------------------------------------------------

 Alpha MOs
 -- Occupied --
-18.945 -18.932 -18.931 -18.924 -18.887 -18.885 -18.876 -18.869
-18.867 -18.856 -10.107 -10.100 -10.094 -10.089 -10.076 -10.069
-10.061 -10.060 -10.052 -10.042 -10.041 -10.038 -10.037 -10.035
-10.018 -10.012 -10.009 -10.007 -10.002  -9.999  -1.025  -1.009
 -1.005  -0.997  -0.970  -0.952  -0.945  -0.934  -0.930  -0.921
 -0.762  -0.745  -0.722  -0.715  -0.702  -0.697  -0.686  -0.660
 -0.647  -0.615  -0.591  -0.569  -0.543  -0.535  -0.530  -0.520
 -0.508  -0.500  -0.486  -0.474  -0.458  -0.453  -0.448  -0.433
 -0.430  -0.423  -0.414  -0.413  -0.409  -0.405  -0.399  -0.398
 -0.392  -0.379  -0.367  -0.365  -0.360  -0.355  -0.351  -0.347
 -0.343  -0.340  -0.327  -0.322  -0.317  -0.315  -0.312  -0.308
 -0.300  -0.297  -0.294  -0.288  -0.285  -0.278  -0.273  -0.265
 -0.264  -0.255  -0.249  -0.245  -0.236  -0.228  -0.212  -0.195
 -0.174  -0.168  -0.163  -0.160  -0.154  -0.148  -0.142  -0.137
 -0.126

          Ground-State Mulliken Net Atomic Charges

     Atom                 Charge (a.u.)
  ----------------------------------------
      1 O                    -0.226529
      2 C                     0.222772
      3 C                    -0.079920
      4 C                    -0.081737
      5 C                     0.212104
      6 O                    -0.165555
      7 C                    -0.051890
      8 C                    -0.055819
      9 O                    -0.170915
     10 C                     0.209614
     11 C                    -0.094144
     12 C                    -0.095499
     13 C                     0.221170
     14 O                    -0.230379
     15 O                    -0.167593
     16 O                    -0.163708
     17 O                    -0.212717
     18 C                    -0.126265
     19 C                     0.025309
     20 C                    -0.146635
     21 C                    -0.143488
     22 C                     0.024184
     23 O                    -0.193022
     24 H                     0.113758
     25 H                     0.109958
     26 H                     0.078863
     27 H                     0.070993
     28 H                     0.086996
     29 H                     0.072189
     30 H                     0.073726
     31 H                     0.083471
     32 O                    -0.207469
     33 C                    -0.127730
     34 C                     0.026745
     35 C                    -0.145568
     36 C                    -0.142918
     37 C                     0.005840
     38 O                    -0.196868
     39 H                     0.085837
     40 H                     0.085825
     41 H                     0.094459
     42 H                     0.081364
     43 H                     0.076678
     44 H                     0.072327
     45 H                     0.078216
     46 H                     0.071613
     47 H                     0.120237
     48 H                     0.087248
     49 H                     0.088865
     50 H                     0.088253
     51 H                     0.093440
     52 H                     0.086464
     53 H                     0.102178
     54 H                     0.088737
     55 H                     0.095832
     56 H                     0.091106
  ----------------------------------------
  Sum of atomic charges =    -0.000000

                    Cartesian Multipole Moments
 -----------------------------------------------------------------
    Charge (ESU x 10^10)
                -0.0000
    Dipole Moment (Debye)
         X      -2.7759      Y       0.7436      Z      -0.5122
       Tot       2.9190
    Quadrupole Moments (Debye-Ang)
        XX    -158.4991     XY       1.7000     YY    -148.1509
        XZ      -2.5944     YZ       3.9482     ZZ    -154.2540

 Total job time:  121.87s(wall), 5816.62s(cpu)
        *  Thank you very much for using Q-Chem.  Have a nice day.  *
