 Q-Chem 5.0, Q-Chem, Inc., Pleasanton, CA (2017)
 Q-Chem 5.0.1 for Intel X86 EM64T Linux

User input:
--------------------------------------------------------------
$molecule
0  1
O -2.7237746869 -1.1268864303 1.7967854379
C -3.3641931176 -0.8282016924 0.7658510301
C -2.9630627107 -1.1314467101 -0.7261180466
C -2.3017567955 0.0962405207 -1.491385319
C -2.1457419215 1.3585213422 -0.5708051789
O -1.2103305279 2.2828444296 -1.1402103481
C -1.1043834395 3.478757048 -0.2628870523
C 0.0512668819 3.3134047683 0.7969082771
O 0.1722870415 1.8755823488 1.1291347189
C 1.5512498995 1.4757099554 1.0471825411
C 1.6114097554 -0.0624612071 1.2805099635
C 2.0479278501 -0.8373136123 -0.0425932834
C 2.4925169709 0.1479389096 -1.1767634211
O 1.778076735 0.5834268366 -2.1159858255
O -4.7131687391 -0.3344785998 0.7613892898
O 3.8678586894 0.4855980549 -1.031314731
O 2.4874984711 2.2621685546 0.7799427933
C 4.2586226308 1.4814614542 -2.0559948999
C 2.7238415519 -0.5549177967 2.3023314894
C 2.3167441708 -2.0109063221 2.7584411462
C 2.6470157855 -2.8332545528 1.4571096164
C 3.2419120638 -1.7077703451 0.5190250901
O 3.9194714553 -0.7852240606 1.4624178534
H 0.6025432484 -0.3888316379 1.5913916179
H 1.172309503 -1.4152098962 -0.4126839551
H 2.9550589871 0.1551461379 3.1197708268
H 2.9389921103 -2.3340959029 3.6083193611
H 1.255971867 -2.0773094615 3.0483051627
H 3.4002271527 -3.6130810464 1.6512141453
H 1.7529969483 -3.3045416778 1.0181029848
H 3.9552953732 -2.064557944 -0.2485201061
O -2.7369848753 1.5522063005 0.5165353983
C -5.1211371314 0.0099640408 2.1404164771
C -1.8258125208 -2.2219120889 -0.8275313167
C -1.7913917573 -2.782545627 -2.3016615809
C -1.1425658513 -1.5708276076 -3.0702335794
C -0.9010062891 -0.5381192031 -1.899449205
O -0.5944243211 -1.4124182902 -0.7422179035
H -3.8800342925 -1.4526531034 -1.2516804707
H -2.8898117909 0.3832009759 -2.3824262575
H -4.5105625306 0.845550747 2.5397094972
H -1.847872022 -2.9815615068 -0.022041557
H -1.1577633504 -3.6821789392 -2.3560402668
H -2.7970190017 -3.0358257067 -2.673309517
H -0.1825416073 -1.8535861139 -3.5305634589
H -1.8013353228 -1.1651502012 -3.8543901099
H -0.0366155951 0.1563369552 -2.0532534127
H -5.0253189305 -0.85729925 2.8254498256
H -6.1803583774 0.3211235502 2.0806177936
H 5.3351966727 1.6735198387 -1.8955200799
H 3.6900236186 2.4255576299 -1.9328910488
H 4.0946543674 1.0978532002 -3.0838310318
H 1.0328596054 3.6567478545 0.4040865211
H -0.194471804 3.8871228626 1.7157437562
H -2.0705821858 3.6352809034 0.2601081974
H -0.8905276105 4.3379133227 -0.9301474266
$end

$rem
JOBTYPE                   OPT
METHOD                    B3LYP
DFT_D                     d3_op
BASIS                     STO-3G
GEOM_OPT_MAX_CYCLES       100
GEOM_OPT_TOL_GRADIENT     300
GEOM_OPT_TOL_DISPLACEMENT 1200
GEOM_OPT_TOL_ENERGY       100
SYMMETRY                  False
THRESH                    12
SCF_CONVERGENCE           8
MAX_SUB_FILE_NUM          128
MEM_STATIC                400
MEM_TOTAL                 4000
$end
--------------------------------------------------------------

   16   -1510.2956922850      6.02E-09 Convergence criterion met
 Total energy in the final basis set = -1510.29569228
   15   -1510.2907016687      2.40E-09 Convergence criterion met
 Total energy in the final basis set = -1510.29070167
   15   -1510.2838617508      3.57E-09 Convergence criterion met
 Total energy in the final basis set = -1510.28386175
   14   -1510.2904581176      6.51E-09 Convergence criterion met
 Total energy in the final basis set = -1510.29045812
   15   -1510.2905701585      8.03E-09 Convergence criterion met
 Total energy in the final basis set = -1510.29057016
   15   -1510.2872933943      7.99E-09 Convergence criterion met
 Total energy in the final basis set = -1510.28729339
   15   -1510.2939666339      5.05E-09 Convergence criterion met
 Total energy in the final basis set = -1510.29396663
   13   -1510.2958473263      8.25E-09 Convergence criterion met
   12   -1510.3055083522      6.79E-09 Convergence criterion met
 Total energy in the final basis set = -1510.30550835
   12   -1510.3055898937      3.95E-09 Convergence criterion met
 Total energy in the final basis set = -1510.30558989
   10   -1510.3055993512      4.30E-09 Convergence criterion met
 Total energy in the final basis set = -1510.30559935
   10   -1510.3055970538      8.66E-09 Convergence criterion met
 Total energy in the final basis set = -1510.30559705
   10   -1510.3055993359      4.44E-09 Convergence criterion met
 Total energy in the final basis set = -1510.30559934
    9   -1510.3056007429      7.19E-09 Convergence criterion met
 Total energy in the final basis set = -1510.30560074

             Standard Nuclear Orientation (Angstroms)
    I     Atom           X                Y                Z
 ----------------------------------------------------------------
    1      O      -1.5890010512    -1.1176126439     1.4853994471
    2      C      -2.6431421975    -0.9363665109     0.8284814132
    3      C      -2.8062915328    -0.9337681137    -0.7374652586
    4      C      -2.0732024796     0.2934302360    -1.4212536563
    5      C      -1.8462972467     1.4496897608    -0.3889014649
    6      O      -1.1047715217     2.5243531607    -0.9702091551
    7      C      -1.0725783727     3.6781041730    -0.0312529409
    8      C       0.1534400033     3.5852982650     0.9582347088
    9      O       0.2510906383     2.2008327169     1.4727103675
   10      C       1.2593202441     1.4928911365     0.7364545782
   11      C       1.1289295323    -0.0319111647     1.0032830846
   12      C       1.8769448212    -0.8944893947    -0.0954052061
   13      C       2.5150074264    -0.0262700866    -1.2354699635
   14      O       1.9124986362     0.4274279630    -2.2448150004
   15      O      -3.9411780665    -0.8534072213     1.4208682930
   16      O       3.9217212581     0.1054184975    -1.0479356333
   17      O       2.0909199223     2.0594752594    -0.0120446224
   18      C       4.4866529111     0.9807862085    -2.0998209303
   19      C       1.8920374744    -0.4997428915     2.3179118543
   20      C       1.3692442113    -1.9496657337     2.6643108939
   21      C       2.1195835659    -2.8062247578     1.5778572492
   22      C       2.9165515599    -1.6854095373     0.7978866889
   23      O       3.2815102809    -0.7176558003     1.8601302838
   24      H       0.0524997928    -0.3165019369     1.0658188658
   25      H       1.1226657606    -1.5558137182    -0.5700880581
   26      H       1.8634087874     0.2263150235     3.1536075473
   27      H       1.6641875916    -2.2386887098     3.6857108806
   28      H       0.2723622957    -2.0107758749     2.5692197787
   29      H       2.8147273778    -3.5262427561     2.0384610923
   30      H       1.4273531661    -3.3512521718     0.9168110705
   31      H       3.8215148458    -2.0289924209     0.2616292025
   32      O      -2.3503263909     1.4866027401     0.7594774406
   33      C      -3.8171127579    -0.8301626419     2.8966096463
   34      C      -1.9853744366    -2.1401532071    -1.3516047461
   35      C      -2.2564367211    -2.2262121587    -2.9058233934
   36      C      -1.3455529749    -1.0587902709    -3.4436821203
   37      C      -0.8171370985    -0.4281939514    -2.0959089147
   38      O      -0.6015586229    -1.6335133987    -1.2620002555
   39      H      -3.8820218377    -0.9670747693    -0.9829105357
   40      H      -2.7115608792     0.7196855188    -2.2178123175
   41      H      -3.2490507162     0.0601222844     3.2352760669
   42      H      -2.0887700850    -3.0938709680    -0.7982757543
   43      H      -1.9415504310    -3.2052709480    -3.3004069282
   44      H      -3.3221422878    -2.0778478573    -3.1438379660
   45      H      -0.4996008216    -1.4518183847    -4.0301166242
   46      H      -1.8977254402    -0.3354754992    -4.0640846257
   47      H       0.1574022101     0.1308012087    -2.1723071541
   48      H      -3.3106547991    -1.7400808888     3.2785390723
   49      H      -4.8492753382    -0.7860269890     3.2899067432
   50      H       5.5679526554     1.0579218706    -1.8835164434
   51      H       4.0250736756     1.9886329272    -2.0687027479
   52      H       4.3379777919     0.5527631462    -3.1124779748
   53      H       1.0983356877     3.8356651079     0.4299323493
   54      H      -0.0038544316     4.2657126354     1.8193996493
   55      H      -2.0180841349     3.7103509621     0.5492802234
   56      H      -0.9810590694     4.5854634503    -0.6617873987
 ----------------------------------------------------------------

    9   -1510.3055997000      3.97E-09 Convergence criterion met
 Total energy in the final basis set = -1510.30559970
 Final energy is   -1510.30559969995
 **  OPTIMIZATION CONVERGED  **

                    Orbital Energies (a.u.)
 --------------------------------------------------------------

 Alpha MOs
 -- Occupied --
-18.945 -18.932 -18.930 -18.925 -18.888 -18.885 -18.875 -18.869
-18.867 -18.857 -10.107 -10.100 -10.093 -10.089 -10.076 -10.069
-10.062 -10.060 -10.052 -10.042 -10.041 -10.038 -10.037 -10.036
-10.018 -10.012 -10.009 -10.006 -10.002  -9.999  -1.024  -1.009
 -1.005  -0.997  -0.971  -0.952  -0.945  -0.933  -0.930  -0.921
 -0.762  -0.745  -0.722  -0.715  -0.702  -0.697  -0.685  -0.660
 -0.648  -0.615  -0.591  -0.569  -0.544  -0.535  -0.530  -0.520
 -0.508  -0.499  -0.486  -0.474  -0.459  -0.453  -0.448  -0.433
 -0.430  -0.422  -0.414  -0.413  -0.409  -0.405  -0.400  -0.399
 -0.392  -0.379  -0.368  -0.365  -0.359  -0.355  -0.351  -0.347
 -0.343  -0.340  -0.327  -0.322  -0.318  -0.315  -0.312  -0.308
 -0.300  -0.297  -0.294  -0.288  -0.285  -0.278  -0.273  -0.265
 -0.264  -0.255  -0.249  -0.244  -0.236  -0.228  -0.212  -0.195
 -0.174  -0.168  -0.163  -0.159  -0.154  -0.148  -0.143  -0.138
 -0.126

          Ground-State Mulliken Net Atomic Charges

     Atom                 Charge (a.u.)
  ----------------------------------------
      1 O                    -0.226207
      2 C                     0.222656
      3 C                    -0.079862
      4 C                    -0.081678
      5 C                     0.212310
      6 O                    -0.165502
      7 C                    -0.051594
      8 C                    -0.056024
      9 O                    -0.170935
     10 C                     0.209457
     11 C                    -0.094171
     12 C                    -0.096388
     13 C                     0.220753
     14 O                    -0.230187
     15 O                    -0.167377
     16 O                    -0.163053
     17 O                    -0.213153
     18 C                    -0.126058
     19 C                     0.025649
     20 C                    -0.146727
     21 C                    -0.143531
     22 C                     0.023991
     23 O                    -0.193053
     24 H                     0.113555
     25 H                     0.110826
     26 H                     0.078686
     27 H                     0.070893
     28 H                     0.087206
     29 H                     0.072047
     30 H                     0.073800
     31 H                     0.083428
     32 O                    -0.207451
     33 C                    -0.127729
     34 C                     0.027161
     35 C                    -0.145545
     36 C                    -0.143060
     37 C                     0.005625
     38 O                    -0.197208
     39 H                     0.085847
     40 H                     0.085769
     41 H                     0.094465
     42 H                     0.081493
     43 H                     0.076712
     44 H                     0.072448
     45 H                     0.077937
     46 H                     0.071789
     47 H                     0.120359
     48 H                     0.087571
     49 H                     0.088888
     50 H                     0.088579
     51 H                     0.094267
     52 H                     0.085688
     53 H                     0.101977
     54 H                     0.088443
     55 H                     0.095143
     56 H                     0.091075
  ----------------------------------------
  Sum of atomic charges =    -0.000000

                    Cartesian Multipole Moments
 -----------------------------------------------------------------
    Charge (ESU x 10^10)
                -0.0000
    Dipole Moment (Debye)
         X      -2.7956      Y       0.4402      Z      -0.8356
       Tot       2.9509
    Quadrupole Moments (Debye-Ang)
        XX    -158.6971     XY       0.6885     YY    -146.6340
        XZ      -3.2507     YZ       1.8206     ZZ    -155.7714

 Total job time:  125.90s(wall), 6010.14s(cpu)
        *  Thank you very much for using Q-Chem.  Have a nice day.  *
