 Q-Chem 5.0, Q-Chem, Inc., Pleasanton, CA (2017)
 Q-Chem 5.0.1 for Intel X86 EM64T Linux

User input:
--------------------------------------------------------------
$molecule
0  1
O -3.94934 -3.66094 2.70899
C -3.26408 -4.56952 2.26188
C -3.36658 -6.02376 2.66595
C -2.3403 -6.54361 3.68593
C -1.43805 -5.50936 4.32183
O -0.86508 -6.02407 5.44974
C 0.02691 -5.10962 6.0958
C -0.72442 -4.2933 7.14234
O -2.08773 -4.10624 6.73093
C -3.02419 -4.38683 7.67085
C -4.43577 -4.28441 7.14396
C -5.19138 -5.61827 7.05367
C -4.5811 -6.77642 7.81717
O -3.83696 -7.62341 7.34449
O -2.26464 -4.2682 1.39072
O -4.85615 -6.87086 9.14982
O -2.77938 -4.73002 8.82203
C -4.36124 -7.84979 9.98609
C -5.32984 -3.4088 8.02576
C -6.52343 -2.90498 7.21536
C -7.33193 -4.17646 7.10204
C -6.43515 -5.14617 7.88639
O -5.90272 -4.33331 8.90447
H -4.36133 -3.84479 6.12234
H -5.75705 -5.92644 6.16299
H -4.7822 -2.55848 8.48831
H -7.09065 -2.17397 7.83445
H -6.241 -2.43494 6.24854
H -8.28189 -4.03417 7.66497
H -7.56115 -4.50877 6.06675
H -7.05633 -6.00172 8.23758
O -1.35672 -4.33121 3.99583
C -1.99435 -2.99744 0.92776
C -4.65119 -6.39937 3.39613
C -4.98919 -7.86913 3.15955
C -3.86502 -8.54022 3.92144
C -3.22231 -7.31944 4.60075
O -4.25948 -6.41195 4.73345
H -3.36797 -6.59492 1.70931
H -1.62554 -7.24668 3.20252
H -1.73777 -2.32705 1.77575
H -5.521 -5.75488 3.14233
H -5.94651 -8.05939 3.69671
H -5.09846 -8.18576 2.10013
H -4.3109 -9.23643 4.66568
H -3.1252 -9.07906 3.2904
H -2.63605 -7.63355 5.47677
H -2.87435 -2.59391 0.38269
H -1.13137 -3.03971 0.23213
H -4.74812 -7.68106 11.01185
H -3.25135 -7.80608 10.01045
H -4.69124 -8.85219 9.639
H -0.64163 -4.87961 8.08383
H -0.20916 -3.32446 7.31511
H 0.49807 -4.41104 5.3658
H 0.89203 -5.64116 6.54663
$end

$opt
CONSTRAINT
tors           1           2           3           4     -99.387
tors           3           4           5           6    +162.713
tors           4           5           6           7    +178.830
tors           5           6           7           8     +91.509
tors           6           7           8           9     -31.192
tors           7           8           9          10    +131.146
tors           8           9          10          11    -175.113
tors           9          10          11          12    +112.122
tors          11          12          13          14     -95.651
ENDCONSTRAINT
$end

$rem
JOBTYPE                   OPT
METHOD                    B3LYP
DFT_D                     d3_op
BASIS                     STO-3G
GEOM_OPT_MAX_CYCLES       100
GEOM_OPT_TOL_GRADIENT     300
GEOM_OPT_TOL_DISPLACEMENT 1200
GEOM_OPT_TOL_ENERGY       100
SYMMETRY                  False
THRESH                    12
SCF_CONVERGENCE           8
MAX_SUB_FILE_NUM          128
MEM_STATIC                400
MEM_TOTAL                 4000
$end
--------------------------------------------------------------

   15   -1510.1191595642      8.74E-09 Convergence criterion met
 Total energy in the final basis set = -1510.11915956
   14   -1510.1879692781      4.15E-09 Convergence criterion met
 Total energy in the final basis set = -1510.18796928
   14   -1510.2383198584      4.13E-09 Convergence criterion met
 Total energy in the final basis set = -1510.23831986
   14   -1510.2635240752      6.44E-09 Convergence criterion met
 Total energy in the final basis set = -1510.26352408
   13   -1510.2780868220      9.59E-09 Convergence criterion met
 Total energy in the final basis set = -1510.27808682
   13   -1510.2866275526      8.44E-09 Convergence criterion met
 Total energy in the final basis set = -1510.28662755
   13   -1510.2912243769      8.72E-09 Convergence criterion met
 Total energy in the final basis set = -1510.29122438
   13   -1510.2933945435      6.81E-09 Convergence criterion met
   11   -1510.2956831571      8.68E-09 Convergence criterion met
 Total energy in the final basis set = -1510.29568316
   11   -1510.2956983229      4.94E-09 Convergence criterion met
 Total energy in the final basis set = -1510.29569832
   10   -1510.2957087215      7.71E-09 Convergence criterion met
 Total energy in the final basis set = -1510.29570872
    9   -1510.2957209931      8.92E-09 Convergence criterion met
 Total energy in the final basis set = -1510.29572099
    9   -1510.2957243648      4.87E-09 Convergence criterion met
 Total energy in the final basis set = -1510.29572436
    9   -1510.2957259223      2.90E-09 Convergence criterion met
 Total energy in the final basis set = -1510.29572592

             Standard Nuclear Orientation (Angstroms)
    I     Atom           X                Y                Z
 ----------------------------------------------------------------
    1      O      -2.7237746869    -1.1268864303     1.7967854379
    2      C      -3.3641931176    -0.8282016924     0.7658510301
    3      C      -2.9630627107    -1.1314467101    -0.7261180466
    4      C      -2.3017567955     0.0962405207    -1.4913853190
    5      C      -2.1457419215     1.3585213422    -0.5708051789
    6      O      -1.2103305279     2.2828444296    -1.1402103481
    7      C      -1.1043834395     3.4787570480    -0.2628870523
    8      C       0.0512668819     3.3134047683     0.7969082771
    9      O       0.1722870415     1.8755823488     1.1291347189
   10      C       1.5512498995     1.4757099554     1.0471825411
   11      C       1.6114097554    -0.0624612071     1.2805099635
   12      C       2.0479278501    -0.8373136123    -0.0425932834
   13      C       2.4925169709     0.1479389096    -1.1767634211
   14      O       1.7780767350     0.5834268366    -2.1159858255
   15      O      -4.7131687391    -0.3344785998     0.7613892898
   16      O       3.8678586894     0.4855980549    -1.0313147310
   17      O       2.4874984711     2.2621685546     0.7799427933
   18      C       4.2586226308     1.4814614542    -2.0559948999
   19      C       2.7238415519    -0.5549177967     2.3023314894
   20      C       2.3167441708    -2.0109063221     2.7584411462
   21      C       2.6470157855    -2.8332545528     1.4571096164
   22      C       3.2419120638    -1.7077703451     0.5190250901
   23      O       3.9194714553    -0.7852240606     1.4624178534
   24      H       0.6025432484    -0.3888316379     1.5913916179
   25      H       1.1723095030    -1.4152098962    -0.4126839551
   26      H       2.9550589871     0.1551461379     3.1197708268
   27      H       2.9389921103    -2.3340959029     3.6083193611
   28      H       1.2559718670    -2.0773094615     3.0483051627
   29      H       3.4002271527    -3.6130810464     1.6512141453
   30      H       1.7529969483    -3.3045416778     1.0181029848
   31      H       3.9552953732    -2.0645579440    -0.2485201061
   32      O      -2.7369848753     1.5522063005     0.5165353983
   33      C      -5.1211371314     0.0099640408     2.1404164771
   34      C      -1.8258125208    -2.2219120889    -0.8275313167
   35      C      -1.7913917573    -2.7825456270    -2.3016615809
   36      C      -1.1425658513    -1.5708276076    -3.0702335794
   37      C      -0.9010062891    -0.5381192031    -1.8994492050
   38      O      -0.5944243211    -1.4124182902    -0.7422179035
   39      H      -3.8800342925    -1.4526531034    -1.2516804707
   40      H      -2.8898117909     0.3832009759    -2.3824262575
   41      H      -4.5105625306     0.8455507470     2.5397094972
   42      H      -1.8478720220    -2.9815615068    -0.0220415570
   43      H      -1.1577633504    -3.6821789392    -2.3560402668
   44      H      -2.7970190017    -3.0358257067    -2.6733095170
   45      H      -0.1825416073    -1.8535861139    -3.5305634589
   46      H      -1.8013353228    -1.1651502012    -3.8543901099
   47      H      -0.0366155951     0.1563369552    -2.0532534127
   48      H      -5.0253189305    -0.8572992500     2.8254498256
   49      H      -6.1803583774     0.3211235502     2.0806177936
   50      H       5.3351966727     1.6735198387    -1.8955200799
   51      H       3.6900236186     2.4255576299    -1.9328910488
   52      H       4.0946543674     1.0978532002    -3.0838310318
   53      H       1.0328596054     3.6567478545     0.4040865211
   54      H      -0.1944718040     3.8871228626     1.7157437562
   55      H      -2.0705821858     3.6352809034     0.2601081974
   56      H      -0.8905276105     4.3379133227    -0.9301474266
 ----------------------------------------------------------------

    8   -1510.2957262590      8.69E-09 Convergence criterion met
 Total energy in the final basis set = -1510.29572626
 Final energy is   -1510.29572625899
 **  OPTIMIZATION CONVERGED  **

                    Orbital Energies (a.u.)
 --------------------------------------------------------------

 Alpha MOs
 -- Occupied --
-18.939 -18.935 -18.931 -18.917 -18.890 -18.882 -18.877 -18.874
-18.871 -18.856 -10.103 -10.095 -10.095 -10.088 -10.072 -10.065
-10.060 -10.059 -10.051 -10.051 -10.049 -10.043 -10.037 -10.031
-10.025 -10.018 -10.014 -10.014 -10.011 -10.010  -1.019  -1.010
 -1.005  -0.994  -0.972  -0.959  -0.941  -0.932  -0.931  -0.921
 -0.760  -0.753  -0.723  -0.715  -0.708  -0.699  -0.691  -0.655
 -0.652  -0.614  -0.592  -0.572  -0.543  -0.538  -0.534  -0.528
 -0.505  -0.504  -0.484  -0.475  -0.459  -0.453  -0.449  -0.433
 -0.429  -0.423  -0.421  -0.410  -0.407  -0.405  -0.401  -0.398
 -0.394  -0.377  -0.373  -0.362  -0.355  -0.354  -0.350  -0.349
 -0.343  -0.334  -0.330  -0.325  -0.324  -0.321  -0.314  -0.310
 -0.302  -0.298  -0.298  -0.295  -0.292  -0.275  -0.273  -0.270
 -0.268  -0.252  -0.247  -0.243  -0.241  -0.234  -0.217  -0.182
 -0.174  -0.171  -0.163  -0.158  -0.154  -0.148  -0.145  -0.139
 -0.133

          Ground-State Mulliken Net Atomic Charges

     Atom                 Charge (a.u.)
  ----------------------------------------
      1 O                    -0.222393
      2 C                     0.215158
      3 C                    -0.080880
      4 C                    -0.077835
      5 C                     0.218059
      6 O                    -0.165028
      7 C                    -0.051940
      8 C                    -0.057795
      9 O                    -0.168779
     10 C                     0.207053
     11 C                    -0.080723
     12 C                    -0.094853
     13 C                     0.209589
     14 O                    -0.223225
     15 O                    -0.173826
     16 O                    -0.156051
     17 O                    -0.214505
     18 C                    -0.125770
     19 C                     0.025628
     20 C                    -0.142710
     21 C                    -0.144112
     22 C                     0.024680
     23 O                    -0.186123
     24 H                     0.096587
     25 H                     0.116420
     26 H                     0.082075
     27 H                     0.075477
     28 H                     0.077217
     29 H                     0.074862
     30 H                     0.075036
     31 H                     0.081928
     32 O                    -0.208404
     33 C                    -0.128012
     34 C                     0.026609
     35 C                    -0.144806
     36 C                    -0.145240
     37 C                     0.009885
     38 O                    -0.198309
     39 H                     0.083585
     40 H                     0.086424
     41 H                     0.091318
     42 H                     0.085938
     43 H                     0.075662
     44 H                     0.073432
     45 H                     0.077101
     46 H                     0.072562
     47 H                     0.116905
     48 H                     0.085734
     49 H                     0.085368
     50 H                     0.092555
     51 H                     0.091804
     52 H                     0.087190
     53 H                     0.099618
     54 H                     0.084471
     55 H                     0.096175
     56 H                     0.089211
  ----------------------------------------
  Sum of atomic charges =    -0.000000

                    Cartesian Multipole Moments
 -----------------------------------------------------------------
    Charge (ESU x 10^10)
                -0.0000
    Dipole Moment (Debye)
         X      -1.6336      Y      -0.0270      Z      -1.5348
       Tot       2.2416
    Quadrupole Moments (Debye-Ang)
        XX    -162.0070     XY      -1.6260     YY    -147.2501
        XZ      -2.4271     YZ       1.9105     ZZ    -155.4448

 Total job time:  64.42s(wall), 3071.98s(cpu)
        *  Thank you very much for using Q-Chem.  Have a nice day.  *
