 Q-Chem 5.0, Q-Chem, Inc., Pleasanton, CA (2017)
 Q-Chem 5.0.1 for Intel X86 EM64T Linux

User input:
--------------------------------------------------------------
$molecule
0  1
O -3.94934 -3.66094 2.70899
C -3.26408 -4.56952 2.26188
C -3.36658 -6.02376 2.66595
C -2.38109 -6.52764 3.73308
C -1.52153 -5.48022 4.40552
O -0.97624 -5.99149 5.54863
C -0.10421 -5.07324 6.21617
C -0.87536 -4.2903 7.27374
O -2.23062 -4.08949 6.84265
C -3.18389 -4.37362 7.76444
C -4.58673 -4.20623 7.2309
C -5.40932 -5.5008 7.15533
C -4.86146 -6.67834 7.93634
O -4.01621 -7.46442 7.53362
O -2.25358 -4.26654 1.40452
O -5.36646 -6.90166 9.18314
O -2.96043 -4.73784 8.91357
C -4.97296 -7.92711 10.01763
C -5.4538 -3.28924 8.10183
C -6.59309 -2.71122 7.26536
C -7.4511 -3.94268 7.0805
C -6.66002 -4.95844 7.91802
O -6.1161 -4.17988 8.9561
H -4.49425 -3.7693 6.20928
H -5.85837 -5.81595 6.20576
H -4.8747 -2.47481 8.58985
H -7.14406 -1.98335 7.90303
H -6.27297 -2.21116 6.32585
H -8.44022 -3.75086 7.55342
H -7.59394 -4.27264 6.02894
H -7.34764 -5.77384 8.23669
O -1.43115 -4.30467 4.07262
C -1.97564 -2.99448 0.94979
C -4.69084 -6.35855 3.35669
C -5.02793 -7.83657 3.17803
C -3.96637 -8.4714 4.04809
C -3.33637 -7.21859 4.67301
O -4.37195 -6.29066 4.7132
H -3.34106 -6.60953 1.71907
H -1.66254 -7.26813 3.31666
H -1.72829 -2.32778 1.80342
H -5.54464 -5.73025 3.0201
H -6.02125 -7.99568 3.65658
H -5.06509 -8.20387 2.13001
H -4.47084 -9.09504 4.81917
H -3.20814 -9.07588 3.50457
H -2.82414 -7.48701 5.60924
H -2.84832 -2.58739 0.39564
H -1.10433 -3.03548 0.26456
H -5.54758 -7.86598 10.96443
H -3.89018 -7.83655 10.24949
H -5.17478 -8.90909 9.53891
H -0.81273 -4.90944 8.1957
H -0.36381 -3.32769 7.48777
H 0.35702 -4.34701 5.50758
H 0.76932 -5.59759 6.65903
$end

$opt
CONSTRAINT
tors           1           2           3           4     -96.690
tors           3           4           5           6    +163.698
tors           4           5           6           7    +177.675
tors           5           6           7           8     +93.371
tors           6           7           8           9     -32.719
tors           7           8           9          10    +132.429
tors           8           9          10          11    -177.246
tors           9          10          11          12    +115.190
tors          11          12          13          14     -84.924
ENDCONSTRAINT
$end

$rem
JOBTYPE                   OPT
METHOD                    B3LYP
DFT_D                     d3_op
BASIS                     STO-3G
GEOM_OPT_MAX_CYCLES       100
GEOM_OPT_TOL_GRADIENT     300
GEOM_OPT_TOL_DISPLACEMENT 1200
GEOM_OPT_TOL_ENERGY       100
SYMMETRY                  False
THRESH                    12
SCF_CONVERGENCE           8
MAX_SUB_FILE_NUM          128
MEM_STATIC                400
MEM_TOTAL                 4000
$end
--------------------------------------------------------------

   16   -1510.1404953348      2.28E-09 Convergence criterion met
 Total energy in the final basis set = -1510.14049533
   14   -1510.2123650036      2.47E-09 Convergence criterion met
 Total energy in the final basis set = -1510.21236500
   14   -1510.2420194878      7.56E-09 Convergence criterion met
 Total energy in the final basis set = -1510.24201949
   14   -1510.2745745406      3.57E-09 Convergence criterion met
 Total energy in the final basis set = -1510.27457454
   14   -1510.2845718216      4.38E-09 Convergence criterion met
 Total energy in the final basis set = -1510.28457182
   13   -1510.2906599903      5.55E-09 Convergence criterion met
 Total energy in the final basis set = -1510.29065999
   13   -1510.2938370780      4.96E-09 Convergence criterion met
 Total energy in the final basis set = -1510.29383708
   13   -1510.2952121658      6.69E-09 Convergence criterion met
   12   -1510.2965613484      4.38E-09 Convergence criterion met
 Total energy in the final basis set = -1510.29656135
   11   -1510.2965910680      4.88E-09 Convergence criterion met
 Total energy in the final basis set = -1510.29659107
   10   -1510.2966101726      9.62E-09 Convergence criterion met
 Total energy in the final basis set = -1510.29661017
   10   -1510.2966238943      8.55E-09 Convergence criterion met
 Total energy in the final basis set = -1510.29662389
    9   -1510.2966319701      4.18E-09 Convergence criterion met
 Total energy in the final basis set = -1510.29663197
    9   -1510.2966404354      4.52E-09 Convergence criterion met
 Total energy in the final basis set = -1510.29664044

             Standard Nuclear Orientation (Angstroms)
    I     Atom           X                Y                Z
 ----------------------------------------------------------------
    1      O      -2.6511861555    -0.9226175673     1.9026486301
    2      C      -3.3292467694    -0.7677682144     0.8640210414
    3      C      -2.9541694772    -1.2282014554    -0.5939784870
    4      C      -2.2977148783    -0.0912844813    -1.4905134289
    5      C      -2.1577605666     1.2709941124    -0.7250589008
    6      O      -1.2420816661     2.1321119335    -1.4118833183
    7      C      -1.1656459440     3.4373203371    -0.7034060844
    8      C       0.0280749132     3.4231036629     0.3255747947
    9      O       0.1513828274     2.0366706980     0.8310013831
   10      C       1.5235009523     1.6184476126     0.7865660871
   11      C       1.5791807060     0.1363787578     1.2611222519
   12      C       2.0588218627    -0.8377351133     0.0952185709
   13      C       2.5133409242    -0.0384554262    -1.1748682348
   14      O       1.7721215657     0.3860869428    -2.0982210774
   15      O      -4.6889581156    -0.3064257593     0.8419783435
   16      O       3.9228412512     0.1588705937    -1.1637209256
   17      O       2.4607650333     2.3422964198     0.3811060174
   18      C       4.3290916024     0.9947268824    -2.3174358697
   19      C       2.6685069536    -0.1661458993     2.3762650794
   20      C       2.2690372499    -1.5342518103     3.0559386174
   21      C       2.6364693826    -2.5527265755     1.9130759666
   22      C       3.2469813204    -1.5869451966     0.8179483152
   23      O       3.8879707810    -0.5102900641     1.6128290788
   24      H       0.5642297014    -0.1450625203     1.5947326243
   25      H       1.1975078803    -1.4797649649    -0.1956865309
   26      H       2.8690758029     0.6712157241     3.0722307320
   27      H       2.8753426239    -1.7059668825     3.9599201251
   28      H       1.2026474329    -1.5683247073     3.3303871915
   29      H       3.3870706172    -3.2863707184     2.2479184309
   30      H       1.7554005998    -3.0942040195     1.5333448247
   31      H       3.9839122128    -2.0519975044     0.1358502703
   32      O      -2.7502205780     1.5859322278     0.3328413533
   33      C      -5.0673610088     0.1880568219     2.1834604916
   34      C      -1.8168492626    -2.3238243147    -0.5846056040
   35      C      -1.7756527489    -3.0253139361    -1.9975593983
   36      C      -1.1094364247    -1.8995775159    -2.8749230172
   37      C      -0.8848441809    -0.7545869149    -1.8105842515
   38      O      -0.5867626638    -1.5077958072    -0.5692803567
   39      H      -3.8771327730    -1.6033773876    -1.0711879543
   40      H      -2.8766964727     0.0844966437    -2.4158630231
   41      H      -4.4545632675     1.0664591059     2.4721042805
   42      H      -1.8451376691    -3.0018474826     0.2901842504
   43      H      -1.1517888610    -3.9325077718    -1.9598015180
   44      H      -2.7815710058    -3.3030540031    -2.3507115777
   45      H      -0.1430585322    -2.2302168196    -3.2879508139
   46      H      -1.7534046152    -1.5732373882    -3.7069457117
   47      H      -0.0239094858    -0.0692760876    -2.0195736871
   48      H      -4.9493004557    -0.5964131385     2.9589871107
   49      H      -6.1301980638     0.4846130383     2.1146135600
   50      H       5.4271882530     1.0973614066    -2.2444874660
   51      H       3.8569824778     1.9970407848    -2.2705522337
   52      H       4.0604520582     0.5186911344    -3.2827140883
   53      H       0.9936526918     3.7070630736    -0.1461492065
   54      H      -0.1840142828     4.1115575255     1.1710708511
   55      H      -2.1211609729     3.6226533809    -0.1702239001
   56      H      -1.0013788565     4.2125157412    -1.4785887483
 ----------------------------------------------------------------

    9   -1510.2966407955      2.48E-09 Convergence criterion met
 Total energy in the final basis set = -1510.29664080
 Final energy is   -1510.29664079550
 **  OPTIMIZATION CONVERGED  **

                    Orbital Energies (a.u.)
 --------------------------------------------------------------

 Alpha MOs
 -- Occupied --
-18.938 -18.936 -18.931 -18.917 -18.889 -18.881 -18.877 -18.872
-18.870 -18.856 -10.102 -10.096 -10.095 -10.087 -10.072 -10.065
-10.059 -10.059 -10.051 -10.051 -10.049 -10.041 -10.036 -10.030
-10.025 -10.018 -10.015 -10.014 -10.010 -10.009  -1.019  -1.010
 -1.005  -0.994  -0.971  -0.959  -0.941  -0.931  -0.931  -0.921
 -0.759  -0.753  -0.723  -0.715  -0.708  -0.699  -0.690  -0.655
 -0.652  -0.614  -0.592  -0.572  -0.542  -0.538  -0.533  -0.527
 -0.505  -0.504  -0.484  -0.474  -0.459  -0.453  -0.449  -0.433
 -0.428  -0.423  -0.420  -0.410  -0.407  -0.404  -0.401  -0.398
 -0.393  -0.376  -0.374  -0.361  -0.354  -0.354  -0.351  -0.349
 -0.343  -0.334  -0.330  -0.324  -0.323  -0.321  -0.313  -0.310
 -0.301  -0.298  -0.297  -0.294  -0.291  -0.275  -0.273  -0.270
 -0.267  -0.251  -0.248  -0.244  -0.241  -0.233  -0.217  -0.181
 -0.174  -0.171  -0.162  -0.157  -0.154  -0.148  -0.145  -0.138
 -0.133

          Ground-State Mulliken Net Atomic Charges

     Atom                 Charge (a.u.)
  ----------------------------------------
      1 O                    -0.222645
      2 C                     0.214972
      3 C                    -0.080818
      4 C                    -0.078181
      5 C                     0.218290
      6 O                    -0.165091
      7 C                    -0.051674
      8 C                    -0.056634
      9 O                    -0.168821
     10 C                     0.208351
     11 C                    -0.081041
     12 C                    -0.093517
     13 C                     0.211784
     14 O                    -0.223515
     15 O                    -0.173451
     16 O                    -0.157643
     17 O                    -0.216236
     18 C                    -0.126026
     19 C                     0.025416
     20 C                    -0.142693
     21 C                    -0.144114
     22 C                     0.024175
     23 O                    -0.187042
     24 H                     0.097429
     25 H                     0.115250
     26 H                     0.081675
     27 H                     0.075421
     28 H                     0.077615
     29 H                     0.074677
     30 H                     0.075024
     31 H                     0.083650
     32 O                    -0.209222
     33 C                    -0.127933
     34 C                     0.026513
     35 C                    -0.145011
     36 C                    -0.145178
     37 C                     0.009083
     38 O                    -0.198429
     39 H                     0.083365
     40 H                     0.086170
     41 H                     0.091647
     42 H                     0.085253
     43 H                     0.075523
     44 H                     0.073251
     45 H                     0.076312
     46 H                     0.072416
     47 H                     0.117244
     48 H                     0.085421
     49 H                     0.085439
     50 H                     0.092175
     51 H                     0.093573
     52 H                     0.087133
     53 H                     0.100059
     54 H                     0.084415
     55 H                     0.096912
     56 H                     0.089283
  ----------------------------------------
  Sum of atomic charges =    -0.000000

                    Cartesian Multipole Moments
 -----------------------------------------------------------------
    Charge (ESU x 10^10)
                -0.0000
    Dipole Moment (Debye)
         X      -1.6075      Y      -0.2432      Z      -1.5176
       Tot       2.2241
    Quadrupole Moments (Debye-Ang)
        XX    -161.7964     XY      -2.2164     YY    -147.1493
        XZ      -2.5100     YZ       1.2187     ZZ    -155.0168

 Total job time:  58.62s(wall), 2793.86s(cpu)
        *  Thank you very much for using Q-Chem.  Have a nice day.  *
