 Q-Chem 5.0, Q-Chem, Inc., Pleasanton, CA (2017)
 Q-Chem 5.0.1 for Intel X86 EM64T Linux

User input:
--------------------------------------------------------------
$molecule
0  1
O -2.6511861555 -0.9226175673 1.9026486301
C -3.3292467694 -0.7677682144 0.8640210414
C -2.9541694772 -1.2282014554 -0.593978487
C -2.2977148783 -0.0912844813 -1.4905134289
C -2.1577605666 1.2709941124 -0.7250589008
O -1.2420816661 2.1321119335 -1.4118833183
C -1.165645944 3.4373203371 -0.7034060844
C 0.0280749132 3.4231036629 0.3255747947
O 0.1513828274 2.036670698 0.8310013831
C 1.5235009523 1.6184476126 0.7865660871
C 1.579180706 0.1363787578 1.2611222519
C 2.0588218627 -0.8377351133 0.0952185709
C 2.5133409242 -0.0384554262 -1.1748682348
O 1.7721215657 0.3860869428 -2.0982210774
O -4.6889581156 -0.3064257593 0.8419783435
O 3.9228412512 0.1588705937 -1.1637209256
O 2.4607650333 2.3422964198 0.3811060174
C 4.3290916024 0.9947268824 -2.3174358697
C 2.6685069536 -0.1661458993 2.3762650794
C 2.2690372499 -1.5342518103 3.0559386174
C 2.6364693826 -2.5527265755 1.9130759666
C 3.2469813204 -1.5869451966 0.8179483152
O 3.887970781 -0.5102900641 1.6128290788
H 0.5642297014 -0.1450625203 1.5947326243
H 1.1975078803 -1.4797649649 -0.1956865309
H 2.8690758029 0.6712157241 3.072230732
H 2.8753426239 -1.7059668825 3.9599201251
H 1.2026474329 -1.5683247073 3.3303871915
H 3.3870706172 -3.2863707184 2.2479184309
H 1.7554005998 -3.0942040195 1.5333448247
H 3.9839122128 -2.0519975044 0.1358502703
O -2.750220578 1.5859322278 0.3328413533
C -5.0673610088 0.1880568219 2.1834604916
C -1.8168492626 -2.3238243147 -0.584605604
C -1.7756527489 -3.0253139361 -1.9975593983
C -1.1094364247 -1.8995775159 -2.8749230172
C -0.8848441809 -0.7545869149 -1.8105842515
O -0.5867626638 -1.5077958072 -0.5692803567
H -3.877132773 -1.6033773876 -1.0711879543
H -2.8766964727 0.0844966437 -2.4158630231
H -4.4545632675 1.0664591059 2.4721042805
H -1.8451376691 -3.0018474826 0.2901842504
H -1.151788861 -3.9325077718 -1.959801518
H -2.7815710058 -3.3030540031 -2.3507115777
H -0.1430585322 -2.2302168196 -3.2879508139
H -1.7534046152 -1.5732373882 -3.7069457117
H -0.0239094858 -0.0692760876 -2.0195736871
H -4.9493004557 -0.5964131385 2.9589871107
H -6.1301980638 0.4846130383 2.11461356
H 5.427188253 1.0973614066 -2.244487466
H 3.8569824778 1.9970407848 -2.2705522337
H 4.0604520582 0.5186911344 -3.2827140883
H 0.9936526918 3.7070630736 -0.1461492065
H -0.1840142828 4.1115575255 1.1710708511
H -2.1211609729 3.6226533809 -0.1702239001
H -1.0013788565 4.2125157412 -1.4785887483
$end

$rem
JOBTYPE                   OPT
METHOD                    B3LYP
DFT_D                     d3_op
BASIS                     STO-3G
GEOM_OPT_MAX_CYCLES       100
GEOM_OPT_TOL_GRADIENT     300
GEOM_OPT_TOL_DISPLACEMENT 1200
GEOM_OPT_TOL_ENERGY       100
SYMMETRY                  False
THRESH                    12
SCF_CONVERGENCE           8
MAX_SUB_FILE_NUM          128
MEM_STATIC                400
MEM_TOTAL                 4000
$end
--------------------------------------------------------------

   16   -1510.2967194416      6.17E-09 Convergence criterion met
 Total energy in the final basis set = -1510.29671944
   15   -1510.2898917920      3.27E-09 Convergence criterion met
 Total energy in the final basis set = -1510.28989179
   14   -1510.2951267202      6.99E-09 Convergence criterion met
 Total energy in the final basis set = -1510.29512672
   16   -1510.0547960443      6.76E-09 Convergence criterion met
 Total energy in the final basis set = -1510.05479604
   16   -1510.2920729374      3.46E-09 Convergence criterion met
 Total energy in the final basis set = -1510.29207294
   14   -1510.2924681083      4.67E-09 Convergence criterion met
 Total energy in the final basis set = -1510.29246811
   14   -1510.2954324203      7.20E-09 Convergence criterion met
 Total energy in the final basis set = -1510.29543242
   13   -1510.2973890985      4.39E-09 Convergence criterion met
   10   -1510.3056216711      8.67E-09 Convergence criterion met
 Total energy in the final basis set = -1510.30562167
   10   -1510.3056236005      4.38E-09 Convergence criterion met
 Total energy in the final basis set = -1510.30562360
    9   -1510.3056245401      4.73E-09 Convergence criterion met
 Total energy in the final basis set = -1510.30562454
   10   -1510.3056236939      4.78E-09 Convergence criterion met
 Total energy in the final basis set = -1510.30562369
   10   -1510.3056258953      9.63E-09 Convergence criterion met
 Total energy in the final basis set = -1510.30562590
    9   -1510.3056277577      7.36E-09 Convergence criterion met
 Total energy in the final basis set = -1510.30562776

             Standard Nuclear Orientation (Angstroms)
    I     Atom           X                Y                Z
 ----------------------------------------------------------------
    1      O      -1.6028703004    -1.1497056419     1.4430568398
    2      C      -2.6499858972    -0.9632786740     0.7764056233
    3      C      -2.7937666377    -0.9328521549    -0.7912015366
    4      C      -2.0571967310     0.3094647103    -1.4426350837
    5      C      -1.8495176890     1.4484885471    -0.3872660030
    6      O      -1.1034902504     2.5353325364    -0.9395873404
    7      C      -1.0892574362     3.6733083958     0.0188943056
    8      C       0.1242742745     3.5688902263     1.0223477945
    9      O       0.2212942530     2.1759962741     1.5139159872
   10      C       1.2418773423     1.4852863640     0.7782455047
   11      C       1.1160432022    -0.0444702865     1.0170787550
   12      C       1.8823569623    -0.8840940076    -0.0869226716
   13      C       2.5296961006     0.0070516882    -1.2037824156
   14      O       1.9376364523     0.4759445896    -2.2123625163
   15      O      -3.9556574957    -0.8992910982     1.3540945188
   16      O       3.9333945307     0.1417786987    -0.9965734076
   17      O       2.0805149416     2.0684877865     0.0505793406
   18      C       4.5069992651     1.0384786924    -2.0255031534
   19      C       1.8660839130    -0.5298299138     2.3327599045
   20      C       1.3487974642    -1.9886931876     2.6490175964
   21      C       2.1164318487    -2.8220617327     1.5565057075
   22      C       2.9160693490    -1.6836576371     0.8056664922
   23      O       3.2623431191    -0.7315172078     1.8880635599
   24      H       0.0404998181    -0.3360411301     1.0615462703
   25      H       1.1380647527    -1.5420446834    -0.5815989720
   26      H       1.8228388223     0.1819208473     3.1799884622
   27      H       1.6347353257    -2.2930110738     3.6685515224
   28      H       0.2534229460    -2.0552614305     2.5411613757
   29      H       2.8097096248    -3.5468175862     2.0124616012
   30      H       1.4346584804    -3.3584138680     0.8776949603
   31      H       3.8294498882    -2.0127149240     0.2746260181
   32      O      -2.3698572080     1.4638985384     0.7542670816
   33      C      -3.8500313241    -0.9050237431     2.8314509229
   34      C      -1.9597727990    -2.1245275951    -1.4165585501
   35      C      -2.2077214725    -2.1834324176    -2.9758287187
   36      C      -1.2954398038    -1.0013419947    -3.4789466366
   37      C      -0.7886170170    -0.3942700536    -2.1124147396
   38      O      -0.5794498170    -1.6141887278    -1.2980273614
   39      H      -3.8661673128    -0.9659447615    -1.0508837844
   40      H      -2.6862656699     0.7475132940    -2.2402069314
   41      H      -3.2902131949    -0.0194056696     3.1950996335
   42      H      -2.0671652411    -3.0887330586    -0.8825229811
   43      H      -1.8811987107    -3.1534344940    -3.3830883894
   44      H      -3.2705995771    -2.0368856142    -3.2273291832
   45      H      -0.4399772631    -1.3789717459    -4.0616737219
   46      H      -1.8430826205    -0.2687404638    -4.0924139763
   47      H       0.1842871558     0.1700971648    -2.1651519530
   48      H      -3.3443389867    -1.8203064982     3.2013514566
   49      H      -4.8872230496    -0.8731535702     3.2125228413
   50      H       5.5855701191     1.1149194650    -1.7957864615
   51      H       4.0417135404     2.0440981263    -1.9804922838
   52      H       4.3708262773     0.6291960805    -3.0476109766
   53      H       1.0748066954     3.8318941078     0.5105729783
   54      H      -0.0468191827     4.2336866962     1.8930220698
   55      H      -2.0423516088     3.6909541369     0.5874837450
   56      H      -0.9940930631     4.5916863590    -0.5949749796
 ----------------------------------------------------------------

    9   -1510.3056275303      3.29E-09 Convergence criterion met
 Total energy in the final basis set = -1510.30562753
 Final energy is   -1510.30562753033
 **  OPTIMIZATION CONVERGED  **

                    Orbital Energies (a.u.)
 --------------------------------------------------------------

 Alpha MOs
 -- Occupied --
-18.945 -18.932 -18.930 -18.925 -18.888 -18.885 -18.875 -18.869
-18.867 -18.857 -10.107 -10.100 -10.093 -10.089 -10.076 -10.069
-10.062 -10.060 -10.052 -10.042 -10.041 -10.038 -10.037 -10.036
-10.018 -10.012 -10.009 -10.006 -10.002  -9.999  -1.024  -1.009
 -1.005  -0.997  -0.971  -0.952  -0.944  -0.933  -0.930  -0.921
 -0.762  -0.745  -0.722  -0.715  -0.702  -0.697  -0.685  -0.660
 -0.648  -0.615  -0.591  -0.569  -0.544  -0.535  -0.530  -0.520
 -0.508  -0.499  -0.486  -0.474  -0.459  -0.453  -0.448  -0.433
 -0.430  -0.422  -0.414  -0.413  -0.409  -0.405  -0.400  -0.399
 -0.392  -0.379  -0.368  -0.365  -0.359  -0.355  -0.351  -0.347
 -0.343  -0.340  -0.327  -0.322  -0.318  -0.315  -0.312  -0.308
 -0.300  -0.297  -0.294  -0.288  -0.285  -0.278  -0.273  -0.265
 -0.264  -0.255  -0.249  -0.244  -0.236  -0.228  -0.212  -0.195
 -0.174  -0.168  -0.163  -0.159  -0.154  -0.148  -0.143  -0.138
 -0.126

          Ground-State Mulliken Net Atomic Charges

     Atom                 Charge (a.u.)
  ----------------------------------------
      1 O                    -0.226130
      2 C                     0.222645
      3 C                    -0.079845
      4 C                    -0.081663
      5 C                     0.212288
      6 O                    -0.165559
      7 C                    -0.051626
      8 C                    -0.056041
      9 O                    -0.170921
     10 C                     0.209463
     11 C                    -0.094224
     12 C                    -0.096237
     13 C                     0.220805
     14 O                    -0.230113
     15 O                    -0.167323
     16 O                    -0.163059
     17 O                    -0.213150
     18 C                    -0.126063
     19 C                     0.025612
     20 C                    -0.146632
     21 C                    -0.143533
     22 C                     0.023983
     23 O                    -0.193020
     24 H                     0.113686
     25 H                     0.110705
     26 H                     0.078704
     27 H                     0.070947
     28 H                     0.087060
     29 H                     0.072066
     30 H                     0.073825
     31 H                     0.083472
     32 O                    -0.207540
     33 C                    -0.127716
     34 C                     0.027139
     35 C                    -0.145552
     36 C                    -0.143044
     37 C                     0.005485
     38 O                    -0.197255
     39 H                     0.085852
     40 H                     0.085738
     41 H                     0.094480
     42 H                     0.081439
     43 H                     0.076710
     44 H                     0.072437
     45 H                     0.077899
     46 H                     0.071749
     47 H                     0.120379
     48 H                     0.087549
     49 H                     0.088913
     50 H                     0.088580
     51 H                     0.094254
     52 H                     0.085730
     53 H                     0.101995
     54 H                     0.088438
     55 H                     0.095171
     56 H                     0.091052
  ----------------------------------------
  Sum of atomic charges =    -0.000000

                    Cartesian Multipole Moments
 -----------------------------------------------------------------
    Charge (ESU x 10^10)
                -0.0000
    Dipole Moment (Debye)
         X      -2.7782      Y       0.4344      Z      -0.8575
       Tot       2.9398
    Quadrupole Moments (Debye-Ang)
        XX    -158.6177     XY       0.6704     YY    -146.6910
        XZ      -3.2787     YZ       1.9398     ZZ    -155.7726

 Total job time:  114.53s(wall), 5464.42s(cpu)
        *  Thank you very much for using Q-Chem.  Have a nice day.  *
