 Q-Chem 5.0, Q-Chem, Inc., Pleasanton, CA (2017)
 Q-Chem 5.0.1 for Intel X86 EM64T Linux

User input:
--------------------------------------------------------------
$molecule
0  1
O -3.94934 -3.66094 2.70899
C -3.26408 -4.56952 2.26188
C -3.36658 -6.02376 2.66595
C -2.1637 -6.92746 2.34928
C -0.92277 -6.23941 1.8251
O -0.57237 -6.77162 0.61705
C -1.31617 -7.94825 0.28302
C -0.36741 -9.11397 0.02404
O -1.04342 -10.13892 -0.7212
C -0.73403 -11.41276 -0.37371
C 0.75327 -11.64477 -0.25222
C 1.35566 -11.2818 1.11293
C 0.36399 -11.08919 2.24262
O -0.65922 -10.42295 2.18169
O -2.4928 -4.26743 1.18268
O 0.57836 -11.78618 3.39297
O -1.5368 -12.31915 -0.5328
C -0.24384 -11.73948 4.50016
C 1.17713 -13.13096 -0.35393
C 2.62217 -13.21702 -0.83944
C 3.35491 -12.68367 0.37214
C 2.18949 -12.56008 1.36406
O 1.29344 -13.57078 0.97597
H 1.23819 -11.11057 -1.102
H 2.02961 -10.39848 1.07019
H 0.52461 -13.74088 -1.01577
H 2.85587 -14.30077 -0.94907
H 2.84949 -12.6994 -1.79611
H 4.09045 -13.45102 0.70093
H 3.86182 -11.70498 0.22787
H 2.58585 -12.62759 2.40029
O -0.29526 -5.34511 2.37405
C -2.34275 -3.00459 0.64708
C -3.37221 -6.13361 4.21267
C -3.96114 -7.47918 4.64895
C -2.80205 -8.40209 4.34412
C -1.7931 -7.39751 3.77881
O -2.01733 -6.25105 4.55863
H -4.37589 -6.34446 2.3005
H -2.86236 -7.68724 1.97239
H -1.91009 -2.31761 1.40547
H -3.92863 -5.3068 4.70635
H -4.11757 -7.46549 5.75106
H -4.9168 -7.72948 4.13999
H -2.40267 -8.79691 5.30549
H -3.02742 -9.25006 3.66193
H -0.7675 -7.82789 3.83649
H -3.32402 -2.61495 0.3016
H -1.65385 -3.05797 -0.22068
H 0.17018 -12.40026 5.28899
H -1.2634 -12.09271 4.23549
H -0.29695 -10.70141 4.89317
H 0.30833 -8.6851 -0.74842
H 0.38589 -9.16419 0.79213
H -1.95023 -7.75681 -0.60999
H -1.73343 -8.6959 0.96031
$end

$opt
CONSTRAINT
tors           1           2           3           4    -161.053
tors           3           4           5           6    -123.158
tors           4           5           6           7      -9.474
tors           5           6           7           8    -123.158
tors           6           7           8           9    -161.053
tors           7           8           9          10    -142.105
tors           8           9          10          11     -47.368
tors           9          10          11          12     +85.263
tors          11          12          13          14     -47.368
ENDCONSTRAINT
$end

$rem
JOBTYPE                   OPT
METHOD                    B3LYP
DFT_D                     d3_op
BASIS                     STO-3G
GEOM_OPT_MAX_CYCLES       100
GEOM_OPT_TOL_GRADIENT     300
GEOM_OPT_TOL_DISPLACEMENT 1200
GEOM_OPT_TOL_ENERGY       100
SYMMETRY                  False
THRESH                    12
SCF_CONVERGENCE           8
MAX_SUB_FILE_NUM          128
MEM_STATIC                400
MEM_TOTAL                 4000
$end
--------------------------------------------------------------

   15   -1510.0041590942      8.45E-09 Convergence criterion met
 Total energy in the final basis set = -1510.00415909
   14   -1510.0951277098      4.13E-09 Convergence criterion met
 Total energy in the final basis set = -1510.09512771
   14   -1510.1524694592      3.82E-09 Convergence criterion met
 Total energy in the final basis set = -1510.15246946
   13   -1510.1904806887      9.40E-09 Convergence criterion met
 Total energy in the final basis set = -1510.19048069
   13   -1510.2138943613      8.41E-09 Convergence criterion met
 Total energy in the final basis set = -1510.21389436
   13   -1510.2283472287      6.82E-09 Convergence criterion met
 Total energy in the final basis set = -1510.22834723
   13   -1510.2375638830      5.49E-09 Convergence criterion met
 Total energy in the final basis set = -1510.23756388
   13   -1510.2430872424      3.11E-09 Convergence criterion met
   11   -1510.2491541138      6.16E-09 Convergence criterion met
 Total energy in the final basis set = -1510.24915411
   11   -1510.2491761317      6.65E-09 Convergence criterion met
 Total energy in the final basis set = -1510.24917613
    9   -1510.2491889516      8.97E-09 Convergence criterion met
 Total energy in the final basis set = -1510.24918895
    9   -1510.2491999591      8.42E-09 Convergence criterion met
 Total energy in the final basis set = -1510.24919996
    9   -1510.2492055305      8.61E-09 Convergence criterion met
 Total energy in the final basis set = -1510.24920553
    9   -1510.2492069952      4.31E-09 Convergence criterion met
 Total energy in the final basis set = -1510.24920700

             Standard Nuclear Orientation (Angstroms)
    I     Atom           X                Y                Z
 ----------------------------------------------------------------
    1      O       6.4255959154     0.7957451171     0.1555400195
    2      C       5.1830361504     0.7367027783     0.2709719952
    3      C       4.3347699047    -0.5134166117     0.6935162212
    4      C       2.7939705898    -0.4771690204     0.3251321877
    5      C       2.4548841771     0.6052467299    -0.7853851952
    6      O       1.4901069951     1.6517895452    -0.5659844000
    7      C       0.6403147638     1.6042535840     0.6416916332
    8      C      -0.8579210596     1.6250519554     0.1653468163
    9      O      -1.6652209296     2.0405323002     1.3357119197
   10      C      -2.9292693401     1.3676009647     1.4576798798
   11      C      -3.8354134912     1.2653565696     0.1536168110
   12      C      -3.6448918173     0.0978529981    -0.9126402845
   13      C      -2.7857825431    -1.1245633465    -0.4161694380
   14      O      -1.6778917471    -1.0762835691     0.1741488086
   15      O       4.3152531301     1.8731385053     0.1962256801
   16      O      -3.4228130383    -2.3507804626    -0.7482312648
   17      O      -3.3517147139     1.1053229883     2.6056097437
   18      C      -2.6040744546    -3.4969252464    -0.2835366203
   19      C      -5.3757844710     1.0926519642     0.5156723074
   20      C      -6.2096302552     1.8065442638    -0.6162764557
   21      C      -5.9630462775     0.8226157119    -1.8200500731
   22      C      -5.1569205260    -0.3400677637    -1.1148488814
   23      O      -5.6574061326    -0.3416378494     0.2793051396
   24      H      -3.6870351585     2.2253953912    -0.3761479520
   25      H      -3.1833557189     0.4852507593    -1.8406072206
   26      H      -5.6245128893     1.3695034784     1.5585724681
   27      H      -7.2758105997     1.8446413151    -0.3407496077
   28      H      -5.8583292807     2.8308460801    -0.8185817723
   29      H      -6.9089741432     0.4391386073    -2.2336737863
   30      H      -5.3857433880     1.2864939895    -2.6361011380
   31      H      -5.2715264498    -1.3415140238    -1.5706605628
   32      O       2.9752156170     0.5779082033    -1.9232213606
   33      C       5.0619942750     3.0739098124    -0.2388858717
   34      C       4.7957207628    -1.8719965537     0.0088868248
   35      C       4.3642885868    -3.0527131146     0.9633605668
   36      C       2.8016478594    -3.0246172966     0.7763999739
   37      C       2.6410281292    -1.9150699362    -0.3395830722
   38      O       3.8796533873    -2.0292233770    -1.1433154520
   39      H       4.4450159761    -0.5989177568     1.7915822137
   40      H       2.1823158096    -0.3821636489     1.2336797482
   41      H       5.4509873417     2.9528972595    -1.2703900962
   42      H       5.8525332305    -1.8792485013    -0.3224017175
   43      H       4.7938924694    -4.0045508281     0.6119888525
   44      H       4.6750074831    -2.8880321579     2.0073860849
   45      H       2.4158089033    -3.9927056401     0.4200195089
   46      H       2.2704056931    -2.7526362636     1.7026502584
   47      H       1.7494968589    -2.0260582580    -0.9868617114
   48      H       5.9120997365     3.2919149142     0.4393726169
   49      H       4.3371923965     3.9081583708    -0.2133552632
   50      H      -3.1717264609    -4.4036925787    -0.5617016825
   51      H      -2.4577179585    -3.4687607139     0.8151341517
   52      H      -1.6103567975    -3.5112744451    -0.7756819879
   53      H      -0.9752537161     2.3424012479    -0.6767109128
   54      H      -1.1361179131     0.5877576492    -0.1320837220
   55      H       0.8531470931     2.5106634035     1.2511140778
   56      H       0.7994023556     0.7162151922     1.2793782210
 ----------------------------------------------------------------

    9   -1510.2492075314      2.89E-09 Convergence criterion met
 Total energy in the final basis set = -1510.24920753
 Final energy is   -1510.24920753142
 **  OPTIMIZATION CONVERGED  **

                    Orbital Energies (a.u.)
 --------------------------------------------------------------

 Alpha MOs
 -- Occupied --
-18.963 -18.938 -18.919 -18.917 -18.901 -18.891 -18.888 -18.880
-18.877 -18.855 -10.124 -10.102 -10.100 -10.092 -10.081 -10.067
-10.065 -10.064 -10.061 -10.060 -10.059 -10.053 -10.052 -10.040
-10.038 -10.035 -10.025 -10.023 -10.021 -10.020  -1.037  -1.013
 -1.002  -0.992  -0.975  -0.969  -0.959  -0.938  -0.935  -0.922
 -0.769  -0.763  -0.729  -0.722  -0.711  -0.704  -0.699  -0.676
 -0.661  -0.608  -0.600  -0.586  -0.551  -0.546  -0.543  -0.539
 -0.520  -0.511  -0.497  -0.482  -0.466  -0.463  -0.457  -0.454
 -0.437  -0.432  -0.429  -0.424  -0.420  -0.413  -0.410  -0.401
 -0.395  -0.391  -0.386  -0.377  -0.372  -0.365  -0.353  -0.350
 -0.348  -0.340  -0.335  -0.331  -0.326  -0.322  -0.315  -0.314
 -0.313  -0.307  -0.305  -0.299  -0.298  -0.292  -0.288  -0.279
 -0.275  -0.272  -0.251  -0.239  -0.235  -0.233  -0.229  -0.201
 -0.181  -0.177  -0.164  -0.156  -0.155  -0.150  -0.148  -0.146
 -0.132

          Ground-State Mulliken Net Atomic Charges

     Atom                 Charge (a.u.)
  ----------------------------------------
      1 O                    -0.211096
      2 C                     0.213814
      3 C                    -0.078629
      4 C                    -0.082089
      5 C                     0.214071
      6 O                    -0.175567
      7 C                    -0.045234
      8 C                    -0.065909
      9 O                    -0.184063
     10 C                     0.210148
     11 C                    -0.087168
     12 C                    -0.078743
     13 C                     0.219065
     14 O                    -0.215797
     15 O                    -0.168114
     16 O                    -0.159268
     17 O                    -0.196674
     18 C                    -0.126312
     19 C                     0.023607
     20 C                    -0.142766
     21 C                    -0.145589
     22 C                     0.023250
     23 O                    -0.189932
     24 H                     0.080261
     25 H                     0.087487
     26 H                     0.092278
     27 H                     0.079301
     28 H                     0.074040
     29 H                     0.079317
     30 H                     0.073115
     31 H                     0.093107
     32 O                    -0.210653
     33 C                    -0.126370
     34 C                     0.025476
     35 C                    -0.142792
     36 C                    -0.145408
     37 C                     0.026338
     38 O                    -0.183836
     39 H                     0.083505
     40 H                     0.077834
     41 H                     0.093768
     42 H                     0.089995
     43 H                     0.078314
     44 H                     0.073246
     45 H                     0.076697
     46 H                     0.072648
     47 H                     0.081409
     48 H                     0.090356
     49 H                     0.093994
     50 H                     0.097015
     51 H                     0.096407
     52 H                     0.091988
     53 H                     0.074446
     54 H                     0.105649
     55 H                     0.086188
     56 H                     0.083874
  ----------------------------------------
  Sum of atomic charges =    -0.000000

                    Cartesian Multipole Moments
 -----------------------------------------------------------------
    Charge (ESU x 10^10)
                -0.0000
    Dipole Moment (Debye)
         X      -2.0744      Y      -1.0007      Z      -0.1716
       Tot       2.3096
    Quadrupole Moments (Debye-Ang)
        XX    -170.0855     XY      -1.0619     YY    -147.2898
        XZ      23.3149     YZ      -3.9087     ZZ    -169.0074

 Total job time:  63.44s(wall), 3018.30s(cpu)
        *  Thank you very much for using Q-Chem.  Have a nice day.  *
