 Q-Chem 5.0, Q-Chem, Inc., Pleasanton, CA (2017)
 Q-Chem 5.0.1 for Intel X86 EM64T Linux

User input:
--------------------------------------------------------------
$molecule
0  1
O 6.4255959154 0.7957451171 0.1555400195
C 5.1830361504 0.7367027783 0.2709719952
C 4.3347699047 -0.5134166117 0.6935162212
C 2.7939705898 -0.4771690204 0.3251321877
C 2.4548841771 0.6052467299 -0.7853851952
O 1.4901069951 1.6517895452 -0.5659844
C 0.6403147638 1.604253584 0.6416916332
C -0.8579210596 1.6250519554 0.1653468163
O -1.6652209296 2.0405323002 1.3357119197
C -2.9292693401 1.3676009647 1.4576798798
C -3.8354134912 1.2653565696 0.153616811
C -3.6448918173 0.0978529981 -0.9126402845
C -2.7857825431 -1.1245633465 -0.416169438
O -1.6778917471 -1.0762835691 0.1741488086
O 4.3152531301 1.8731385053 0.1962256801
O -3.4228130383 -2.3507804626 -0.7482312648
O -3.3517147139 1.1053229883 2.6056097437
C -2.6040744546 -3.4969252464 -0.2835366203
C -5.375784471 1.0926519642 0.5156723074
C -6.2096302552 1.8065442638 -0.6162764557
C -5.9630462775 0.8226157119 -1.8200500731
C -5.156920526 -0.3400677637 -1.1148488814
O -5.6574061326 -0.3416378494 0.2793051396
H -3.6870351585 2.2253953912 -0.376147952
H -3.1833557189 0.4852507593 -1.8406072206
H -5.6245128893 1.3695034784 1.5585724681
H -7.2758105997 1.8446413151 -0.3407496077
H -5.8583292807 2.8308460801 -0.8185817723
H -6.9089741432 0.4391386073 -2.2336737863
H -5.385743388 1.2864939895 -2.636101138
H -5.2715264498 -1.3415140238 -1.5706605628
O 2.975215617 0.5779082033 -1.9232213606
C 5.061994275 3.0739098124 -0.2388858717
C 4.7957207628 -1.8719965537 0.0088868248
C 4.3642885868 -3.0527131146 0.9633605668
C 2.8016478594 -3.0246172966 0.7763999739
C 2.6410281292 -1.9150699362 -0.3395830722
O 3.8796533873 -2.029223377 -1.143315452
H 4.4450159761 -0.5989177568 1.7915822137
H 2.1823158096 -0.3821636489 1.2336797482
H 5.4509873417 2.9528972595 -1.2703900962
H 5.8525332305 -1.8792485013 -0.3224017175
H 4.7938924694 -4.0045508281 0.6119888525
H 4.6750074831 -2.8880321579 2.0073860849
H 2.4158089033 -3.9927056401 0.4200195089
H 2.2704056931 -2.7526362636 1.7026502584
H 1.7494968589 -2.026058258 -0.9868617114
H 5.9120997365 3.2919149142 0.4393726169
H 4.3371923965 3.9081583708 -0.2133552632
H -3.1717264609 -4.4036925787 -0.5617016825
H -2.4577179585 -3.4687607139 0.8151341517
H -1.6103567975 -3.5112744451 -0.7756819879
H -0.9752537161 2.3424012479 -0.6767109128
H -1.1361179131 0.5877576492 -0.132083722
H 0.8531470931 2.5106634035 1.2511140778
H 0.7994023556 0.7162151922 1.279378221
$end

$rem
JOBTYPE                   OPT
METHOD                    B3LYP
DFT_D                     d3_op
BASIS                     STO-3G
GEOM_OPT_MAX_CYCLES       100
GEOM_OPT_TOL_GRADIENT     300
GEOM_OPT_TOL_DISPLACEMENT 1200
GEOM_OPT_TOL_ENERGY       100
SYMMETRY                  False
THRESH                    12
SCF_CONVERGENCE           8
MAX_SUB_FILE_NUM          128
MEM_STATIC                400
MEM_TOTAL                 4000
$end
--------------------------------------------------------------

   16   -1510.2491645098      5.95E-09 Convergence criterion met
 Total energy in the final basis set = -1510.24916451
   14   -1510.2498326040      2.34E-09 Convergence criterion met
 Total energy in the final basis set = -1510.24983260
   14   -1510.2526149055      3.38E-09 Convergence criterion met
 Total energy in the final basis set = -1510.25261491
   13   -1510.2552527052      4.03E-09 Convergence criterion met
 Total energy in the final basis set = -1510.25525271
   14   -1510.2578377109      3.03E-09 Convergence criterion met
 Total energy in the final basis set = -1510.25783771
   15   -1510.2410676173      6.80E-09 Convergence criterion met
 Total energy in the final basis set = -1510.24106762
   15   -1510.2613137228      4.34E-09 Convergence criterion met
 Total energy in the final basis set = -1510.26131372
   14   -1510.2637953081      6.14E-09 Convergence criterion met
   12   -1510.2714327061      4.24E-09 Convergence criterion met
 Total energy in the final basis set = -1510.27143271
   13   -1510.2714070352      2.84E-09 Convergence criterion met
 Total energy in the final basis set = -1510.27140704
   12   -1510.2714428404      6.07E-09 Convergence criterion met
 Total energy in the final basis set = -1510.27144284
   11   -1510.2714460400      4.91E-09 Convergence criterion met
 Total energy in the final basis set = -1510.27144604
   11   -1510.2714429279      7.70E-09 Convergence criterion met
 Total energy in the final basis set = -1510.27144293
    9   -1510.2714447841      7.89E-09 Convergence criterion met
 Total energy in the final basis set = -1510.27144478

             Standard Nuclear Orientation (Angstroms)
    I     Atom           X                Y                Z
 ----------------------------------------------------------------
    1      O      -5.5333366996     0.4904862947    -1.0379864086
    2      C      -4.3254596637     0.7016474936    -0.8018069153
    3      C      -3.1828654151    -0.3676927265    -0.6536888891
    4      C      -2.2445961183    -0.1544853823     0.6091174834
    5      C      -2.4673490737     1.1896523936     1.4128792140
    6      O      -1.6095832122     2.3258051543     1.1619180061
    7      C      -0.8664817994     2.2971380581    -0.1142874038
    8      C       0.6055564714     1.7653272184     0.0674205609
    9      O       1.0937107553     1.5282499834    -1.3139559731
   10      C       2.4328252561     1.0248491429    -1.4396969014
   11      C       3.3507295377     0.9129245866    -0.1562326329
   12      C       3.1082261611    -0.3960856961     0.7182680684
   13      C       1.9356916865    -1.2795932315     0.1741910300
   14      O       0.7316598581    -1.1809431715     0.5232749722
   15      O      -3.7570676108     2.0028144818    -0.6295510289
   16      O       2.4101295710    -2.1900067661    -0.8041063484
   17      O       2.8160246899     0.7280304121    -2.5928637856
   18      C       1.2869885124    -2.9708835758    -1.3788216593
   19      C       4.8594413890     0.6928012802    -0.5973949317
   20      C       5.7846011311     0.9883180286     0.6472031674
   21      C       5.5461675425    -0.3028167437     1.5154006061
   22      C       4.5279258301    -1.0981867683     0.6053086293
   23      O       4.9606645952    -0.7735944068    -0.7712729342
   24      H       3.2448167407     1.8199110634     0.4636891037
   25      H       2.8595163218    -0.1274964913     1.7606667052
   26      H       5.1317993498     1.2102682154    -1.5372866143
   27      H       6.8367570479     1.0756287220     0.3332340357
   28      H       5.4931773891     1.9131857027     1.1698607453
   29      H       6.4748881101    -0.8809811781     1.6447139359
   30      H       5.1292450899    -0.0784305347     2.5103748307
   31      H       4.5088592933    -2.1942154782     0.7593650670
   32      O      -3.2825908879     1.3064161898     2.3531982912
   33      C      -4.8104182672     3.0411452183    -0.6697951026
   34      C      -3.8307508512    -1.7712766217    -0.3144519059
   35      C      -2.7259975741    -2.8942744914    -0.4357326594
   36      C      -1.9095749058    -2.6676056410     0.8911892537
   37      C      -2.6607761879    -1.4162053020     1.4906337249
   38      O      -4.0773356406    -1.6609996243     1.1411159044
   39      H      -2.5938362023    -0.3907203483    -1.5898805525
   40      H      -1.1849567592    -0.2536477735     0.3230662811
   41      H      -5.5434726342     2.9018501057     0.1505565461
   42      H      -4.7786730056    -1.9626092670    -0.8546688236
   43      H      -3.1907862228    -3.8925138695    -0.4642057908
   44      H      -2.1106369718    -2.7664858830    -1.3409557606
   45      H      -1.9950433929    -3.5312645657     1.5691462241
   46      H      -0.8445515802    -2.4393760194     0.7106477178
   47      H      -2.5534541249    -1.2656741897     2.5820928289
   48      H      -5.3523308719     3.0327065337    -1.6374913475
   49      H      -4.2896641610     4.0076524504    -0.5408518104
   50      H       1.7182822311    -3.5410995646    -2.2217031864
   51      H       0.4799783582    -2.3066725229    -1.7483583561
   52      H       0.8600303184    -3.6733264237    -0.6339662210
   53      H       1.2178722968     2.5213119445     0.6024613309
   54      H       0.6017118329     0.8124648975     0.6450850522
   55      H      -0.8300535684     3.3487299454    -0.4671753080
   56      H      -1.3828669574     1.7006271909    -0.8920697382
 ----------------------------------------------------------------

    9   -1510.2714453991      4.33E-09 Convergence criterion met
 Total energy in the final basis set = -1510.27144540
 Final energy is   -1510.27144539913
 **  OPTIMIZATION CONVERGED  **

                    Orbital Energies (a.u.)
 --------------------------------------------------------------

 Alpha MOs
 -- Occupied --
-18.967 -18.939 -18.937 -18.921 -18.901 -18.898 -18.881 -18.880
-18.879 -18.863 -10.127 -10.106 -10.101 -10.093 -10.082 -10.073
-10.072 -10.071 -10.067 -10.065 -10.056 -10.054 -10.050 -10.049
-10.037 -10.029 -10.028 -10.026 -10.015 -10.006  -1.039  -1.015
 -1.012  -0.995  -0.979  -0.964  -0.962  -0.943  -0.939  -0.927
 -0.775  -0.758  -0.734  -0.717  -0.716  -0.709  -0.698  -0.679
 -0.662  -0.612  -0.602  -0.591  -0.561  -0.548  -0.543  -0.534
 -0.526  -0.506  -0.499  -0.484  -0.473  -0.468  -0.455  -0.450
 -0.443  -0.437  -0.434  -0.430  -0.422  -0.414  -0.412  -0.408
 -0.394  -0.392  -0.389  -0.380  -0.370  -0.368  -0.354  -0.350
 -0.348  -0.342  -0.341  -0.332  -0.325  -0.324  -0.322  -0.317
 -0.310  -0.307  -0.302  -0.301  -0.298  -0.292  -0.290  -0.288
 -0.273  -0.270  -0.253  -0.249  -0.243  -0.236  -0.227  -0.202
 -0.186  -0.180  -0.172  -0.166  -0.157  -0.153  -0.152  -0.139
 -0.137

          Ground-State Mulliken Net Atomic Charges

     Atom                 Charge (a.u.)
  ----------------------------------------
      1 O                    -0.206960
      2 C                     0.212480
      3 C                    -0.080539
      4 C                    -0.093098
      5 C                     0.211344
      6 O                    -0.174593
      7 C                    -0.045485
      8 C                    -0.061627
      9 O                    -0.175028
     10 C                     0.201323
     11 C                    -0.084251
     12 C                    -0.080789
     13 C                     0.214709
     14 O                    -0.221988
     15 O                    -0.173801
     16 O                    -0.152126
     17 O                    -0.198118
     18 C                    -0.126905
     19 C                     0.026821
     20 C                    -0.144443
     21 C                    -0.144086
     22 C                     0.027047
     23 O                    -0.182475
     24 H                     0.081149
     25 H                     0.086293
     26 H                     0.092047
     27 H                     0.080471
     28 H                     0.073422
     29 H                     0.080319
     30 H                     0.073837
     31 H                     0.087412
     32 O                    -0.206401
     33 C                    -0.126580
     34 C                     0.024585
     35 C                    -0.145642
     36 C                    -0.154173
     37 C                     0.026664
     38 O                    -0.189272
     39 H                     0.081044
     40 H                     0.091363
     41 H                     0.095461
     42 H                     0.088842
     43 H                     0.075862
     44 H                     0.066962
     45 H                     0.071730
     46 H                     0.086191
     47 H                     0.085310
     48 H                     0.089902
     49 H                     0.093359
     50 H                     0.100929
     51 H                     0.093890
     52 H                     0.092028
     53 H                     0.077642
     54 H                     0.094748
     55 H                     0.088699
     56 H                     0.094495
  ----------------------------------------
  Sum of atomic charges =     0.000000

                    Cartesian Multipole Moments
 -----------------------------------------------------------------
    Charge (ESU x 10^10)
                 0.0000
    Dipole Moment (Debye)
         X       3.9463      Y      -0.2513      Z       0.1488
       Tot       3.9571
    Quadrupole Moments (Debye-Ang)
        XX    -175.3401     XY       0.6624     YY    -149.5935
        XZ      21.9985     YZ      -1.2172     ZZ    -170.3891

 Total job time:  99.42s(wall), 4738.37s(cpu)
        *  Thank you very much for using Q-Chem.  Have a nice day.  *
