 Q-Chem 5.0, Q-Chem, Inc., Pleasanton, CA (2017)
 Q-Chem 5.0.1 for Intel X86 EM64T Linux

User input:
--------------------------------------------------------------
$molecule
0  1
O -4.1363462362 0.2284935019 2.3898939273
C -3.4212491844 -0.1243045348 1.4274947798
C -2.2321013428 0.682914127 0.8000585063
C -2.0088957288 0.6649952059 -0.768909728
C -2.8601047214 -0.2479041752 -1.7208039083
O -2.7225148457 -1.687105033 -1.6281758772
C -1.3325426213 -2.1950433916 -1.595209327
C -0.7442768928 -2.1847256621 -0.1124536315
O 0.232016409 -1.170105987 0.3601187582
C 1.0861919063 -0.620575011 -0.6690080414
C 2.5649882937 -1.1902831058 -0.6412755863
C 3.632304091 -0.0400774048 -0.5008653876
C 2.9343667807 1.1380786984 0.2679143414
O 1.7002867606 1.1838497942 0.5214592534
O -3.4694079322 -1.4408737337 0.8596822009
O 3.8592422846 2.1389997836 0.6435403614
O 0.6383335191 0.0154531039 -1.6609076514
C 3.1627365262 3.2239822827 1.3823514868
C 2.97818738 -2.1453108199 0.5568902816
C 4.1471519756 -3.0594013851 0.023361594
C 5.2997357386 -1.9966794202 -0.1276890938
C 4.6373109534 -0.7180078137 0.5224200372
O 3.6796156717 -1.2612066839 1.5200780161
H 2.6944913464 -1.7130364061 -1.6069126473
H 4.0840491986 0.2973481975 -1.4503743737
H 2.1311988704 -2.6612712539 1.0484343865
H 4.4059314221 -3.8251585535 0.7722237183
H 3.8969419459 -3.5594675893 -0.9258960126
H 6.2029957244 -2.2904558688 0.4295353704
H 5.5761336984 -1.8207604256 -1.1798738858
H 5.3384602372 -0.0078729539 1.0024116811
O -3.751615322 0.180645942 -2.4875336769
C -4.535596019 -2.2442450935 1.4987574821
C -2.4177083603 2.2329193813 1.0578845487
C -1.0246304891 2.9509054743 0.8411336428
C -0.9397854731 2.9846505557 -0.7297415801
C -2.2538375541 2.1990739353 -1.1130559506
O -3.2309833431 2.6625265454 -0.1012691501
H -1.3079704207 0.2977296054 1.2782319745
H -0.9470008981 0.4257331953 -1.0007686476
H -5.533554791 -1.7846949113 1.3505263358
H -2.9380583326 2.4622286474 2.0086086911
H -1.035835351 3.9637155249 1.273980892
H -0.1897339153 2.37751659 1.2775801922
H -0.9743449457 4.015754441 -1.1167058865
H -0.0341149242 2.4850462366 -1.1102992136
H -2.6447831499 2.3747754807 -2.1339145083
H -4.3599737338 -2.3647146695 2.5876290876
H -4.5064930822 -3.2324812026 1.0042367906
H 3.939251705 3.973850483 1.6193524735
H 2.7094508435 2.8430036419 2.3198735343
H 2.3673800129 3.6859015139 0.7628889337
H -1.6336433129 -2.0858516173 0.554863963
H -0.2791018114 -3.1821025669 0.0625487601
H -0.6651089915 -1.6449155342 -2.2945019043
H -1.4067321964 -3.2519539912 -1.9221178606
$end

$rem
JOBTYPE                   OPT
METHOD                    B3LYP
DFT_D                     d3_op
BASIS                     STO-3G
GEOM_OPT_MAX_CYCLES       100
GEOM_OPT_TOL_GRADIENT     300
GEOM_OPT_TOL_DISPLACEMENT 1200
GEOM_OPT_TOL_ENERGY       100
SYMMETRY                  False
THRESH                    12
SCF_CONVERGENCE           8
MAX_SUB_FILE_NUM          128
MEM_STATIC                400
MEM_TOTAL                 4000
$end
--------------------------------------------------------------

   16   -1510.2510590241      6.14E-09 Convergence criterion met
 Total energy in the final basis set = -1510.25105902
   15   -1510.2511331414      6.64E-09 Convergence criterion met
 Total energy in the final basis set = -1510.25113314
   15   -1510.2532170811      2.51E-09 Convergence criterion met
 Total energy in the final basis set = -1510.25321708
   15   -1510.2580867556      4.79E-09 Convergence criterion met
 Total energy in the final basis set = -1510.25808676
   14   -1510.2575999029      7.29E-09 Convergence criterion met
 Total energy in the final basis set = -1510.25759990
   14   -1510.2637478919      2.61E-09 Convergence criterion met
 Total energy in the final basis set = -1510.26374789
   14   -1510.2653050725      7.59E-09 Convergence criterion met
 Total energy in the final basis set = -1510.26530507
   14   -1510.2669723907      8.33E-09 Convergence criterion met
   11   -1510.2885642725      2.53E-09 Convergence criterion met
 Total energy in the final basis set = -1510.28856427
   11   -1510.2885703264      7.70E-09 Convergence criterion met
 Total energy in the final basis set = -1510.28857033
   11   -1510.2885819963      5.13E-09 Convergence criterion met
 Total energy in the final basis set = -1510.28858200
   11   -1510.2885847602      2.81E-09 Convergence criterion met
 Total energy in the final basis set = -1510.28858476
    9   -1510.2885860022      5.43E-09 Convergence criterion met
 Total energy in the final basis set = -1510.28858600
    9   -1510.2885862103      2.57E-09 Convergence criterion met
 Total energy in the final basis set = -1510.28858621

             Standard Nuclear Orientation (Angstroms)
    I     Atom           X                Y                Z
 ----------------------------------------------------------------
    1      O      -3.3523882148     1.2845264551     2.4000317093
    2      C      -2.5711795556     0.6816279990     1.6377725128
    3      C      -1.7973046141     1.2125262913     0.3891525117
    4      C      -2.1157174997     0.4029883370    -0.9393395265
    5      C      -3.1933823800    -0.7278299088    -0.7176965234
    6      O      -2.9166025751    -2.0994320434    -1.0863805272
    7      C      -1.5084182179    -2.4186919567    -1.4022149326
    8      C      -0.6120896425    -2.3737248395    -0.0961998104
    9      O       0.8534190471    -2.2719514580    -0.3209396214
   10      C       1.2617104108    -1.1235742753    -1.0547031476
   11      C       2.8355064707    -1.0035306150    -0.9844038290
   12      C       3.3360407084     0.0486201414     0.0919017007
   13      C       2.1574508575     0.7003818500     0.8803176564
   14      O       0.9706436290     0.2903253905     0.9052541993
   15      O      -2.1878283564    -0.6963285000     1.8059736948
   16      O       2.6279637971     1.8276260482     1.6076361802
   17      O       0.5368170994    -0.3958966556    -1.7811932097
   18      C       1.5167380290     2.4450842350     2.3741994877
   19      C       3.5429230054    -2.3223260812    -0.4603432955
   20      C       5.0846604587    -2.2303221703    -0.7938071223
   21      C       5.5726619915    -1.2009266661     0.2915983976
   22      C       4.2183633552    -0.8841571385     1.0378193563
   23      O       3.4942991459    -2.1726484543     1.0139691756
   24      H       3.1875523227    -0.7176009046    -1.9918262006
   25      H       3.9471033638     0.8507432946    -0.3590957203
   26      H       3.0451819865    -3.2608089946    -0.7693405656
   27      H       5.5656097445    -3.2127027048    -0.6637497753
   28      H       5.2659783291    -1.8817503360    -1.8229551558
   29      H       6.2937342724    -1.6585282725     0.9874581691
   30      H       6.0280285412    -0.2985342980    -0.1466939114
   31      H       4.3237287469    -0.5104947440     2.0750370550
   32      O      -4.3418643305    -0.5071360869    -0.2705423036
   33      C      -2.9738273738    -1.3363933467     2.8809312855
   34      C      -2.2443188207     2.6705403945    -0.0182641693
   35      C      -1.1580996650     3.2566607279    -1.0056710680
   36      C      -1.4851297222     2.4597245207    -2.3233945065
   37      C      -2.7007479849     1.5679306679    -1.8464173288
   38      O      -3.4191135757     2.4417896471    -0.8918489484
   39      H      -0.7127037931     1.1303943085     0.6148038807
   40      H      -1.1638269228     0.0161001653    -1.3554755107
   41      H      -4.0499188324    -1.3798126151     2.6141326345
   42      H      -2.5217409786     3.3181259512     0.8362594965
   43      H      -1.2995131197     4.3407749043    -1.1416553946
   44      H      -0.1319761301     3.0746770111    -0.6480447118
   45      H      -1.7937349147     3.1344573285    -3.1378286050
   46      H      -0.6367593636     1.8465113616    -2.6677782862
   47      H      -3.3831639524     1.2336798149    -2.6518030354
   48      H      -2.8661140570    -0.7955431464     3.8430733153
   49      H      -2.5768217925    -2.3630641016     2.9835556762
   50      H       1.9849930959     3.1881535615     3.0450960095
   51      H       0.9650957564     1.6905317572     2.9700381890
   52      H       0.8011441209     2.9564027808     1.6980947722
   53      H      -0.9726912813    -1.5571124053     0.5778443603
   54      H      -0.7269501972    -3.3283388149     0.4551652456
   55      H      -1.0779803178    -1.7478804300    -2.1724547446
   56      H      -1.5349671506    -3.4495964365    -1.8092507969
 ----------------------------------------------------------------

    8   -1510.2885865853      7.04E-09 Convergence criterion met
 Total energy in the final basis set = -1510.28858659
 Final energy is   -1510.28858658528
 **  OPTIMIZATION CONVERGED  **

                    Orbital Energies (a.u.)
 --------------------------------------------------------------

 Alpha MOs
 -- Occupied --
-18.965 -18.941 -18.929 -18.915 -18.906 -18.899 -18.879 -18.873
-18.873 -18.854 -10.126 -10.114 -10.092 -10.083 -10.082 -10.073
-10.068 -10.062 -10.059 -10.057 -10.054 -10.046 -10.046 -10.045
-10.030 -10.028 -10.015 -10.011 -10.007 -10.006  -1.039  -1.015
 -1.005  -0.988  -0.981  -0.962  -0.956  -0.944  -0.932  -0.920
 -0.775  -0.748  -0.734  -0.722  -0.710  -0.694  -0.690  -0.681
 -0.655  -0.617  -0.595  -0.585  -0.558  -0.547  -0.537  -0.528
 -0.525  -0.499  -0.495  -0.475  -0.470  -0.456  -0.454  -0.449
 -0.444  -0.432  -0.429  -0.420  -0.418  -0.406  -0.405  -0.397
 -0.394  -0.385  -0.382  -0.374  -0.368  -0.358  -0.355  -0.353
 -0.344  -0.340  -0.339  -0.331  -0.324  -0.321  -0.317  -0.315
 -0.313  -0.303  -0.297  -0.297  -0.295  -0.288  -0.283  -0.276
 -0.273  -0.264  -0.256  -0.246  -0.242  -0.224  -0.221  -0.202
 -0.184  -0.178  -0.173  -0.162  -0.154  -0.150  -0.147  -0.132
 -0.128

          Ground-State Mulliken Net Atomic Charges

     Atom                 Charge (a.u.)
  ----------------------------------------
      1 O                    -0.207137
      2 C                     0.215714
      3 C                    -0.093563
      4 C                    -0.104421
      5 C                     0.201551
      6 O                    -0.173741
      7 C                    -0.057608
      8 C                    -0.065677
      9 O                    -0.167239
     10 C                     0.224573
     11 C                    -0.080059
     12 C                    -0.078675
     13 C                     0.219948
     14 O                    -0.207592
     15 O                    -0.178406
     16 O                    -0.162235
     17 O                    -0.229022
     18 C                    -0.129168
     19 C                     0.026395
     20 C                    -0.144478
     21 C                    -0.143271
     22 C                     0.026115
     23 O                    -0.185990
     24 H                     0.085012
     25 H                     0.089814
     26 H                     0.091180
     27 H                     0.079816
     28 H                     0.074549
     29 H                     0.080299
     30 H                     0.075089
     31 H                     0.085490
     32 O                    -0.208302
     33 C                    -0.127619
     34 C                     0.022021
     35 C                    -0.143657
     36 C                    -0.145173
     37 C                     0.024729
     38 O                    -0.187989
     39 H                     0.098359
     40 H                     0.106206
     41 H                     0.096023
     42 H                     0.083838
     43 H                     0.074071
     44 H                     0.065627
     45 H                     0.073728
     46 H                     0.079191
     47 H                     0.079911
     48 H                     0.088549
     49 H                     0.089158
     50 H                     0.097433
     51 H                     0.097106
     52 H                     0.092022
     53 H                     0.113406
     54 H                     0.085453
     55 H                     0.093402
     56 H                     0.085243
  ----------------------------------------
  Sum of atomic charges =    -0.000000

                    Cartesian Multipole Moments
 -----------------------------------------------------------------
    Charge (ESU x 10^10)
                -0.0000
    Dipole Moment (Debye)
         X       6.9863      Y      -0.1384      Z       0.0121
       Tot       6.9876
    Quadrupole Moments (Debye-Ang)
        XX    -174.0341     XY       5.8078     YY    -157.3264
        XZ      -2.0959     YZ       2.7280     ZZ    -153.5703

 Total job time:  155.56s(wall), 7421.82s(cpu)
        *  Thank you very much for using Q-Chem.  Have a nice day.  *
