 Q-Chem 5.0, Q-Chem, Inc., Pleasanton, CA (2017)
 Q-Chem 5.0.1 for Intel X86 EM64T Linux

User input:
--------------------------------------------------------------
$molecule
0  1
O -3.94934 -3.66094 2.70899
C -3.26408 -4.56952 2.26188
C -3.36658 -6.02376 2.66595
C -2.05424 -6.81773 2.77194
C -0.77335 -6.02476 2.63554
O -0.66856 -5.52695 1.36802
C -0.93615 -6.50313 0.35573
C -2.43588 -6.58949 0.09214
O -2.97196 -7.77567 0.69915
C -2.10571 -8.81229 0.8182
C -2.34907 -9.90215 -0.19848
C -2.60479 -11.29536 0.39469
C -2.93194 -11.33386 1.87394
O -2.84637 -10.38792 2.64364
O -2.50026 -4.13615 1.22841
O -3.28668 -12.54665 2.37543
O -1.03149 -8.90063 1.41085
C -3.60131 -12.77773 3.69828
C -3.62278 -9.75298 -1.07458
C -3.45677 -10.54608 -2.37094
C -3.5575 -11.96284 -1.85133
C -3.87603 -11.69061 -0.37841
O -4.60813 -10.49074 -0.39782
H -1.46741 -9.89501 -0.87955
H -1.75906 -11.99888 0.23108
H -3.89138 -8.70808 -1.33265
H -4.35293 -10.33688 -2.99869
H -2.5409 -10.31769 -2.95731
H -4.41649 -12.46101 -2.35359
H -2.63909 -12.57863 -1.96547
H -4.39557 -12.56746 0.06668
O -0.07116 -5.59294 3.54076
C -2.39466 -2.83718 0.76522
C -3.92586 -6.01591 4.1055
C -4.43239 -7.40144 4.52013
C -3.13291 -8.02818 4.91093
C -2.14991 -6.96861 4.37781
O -2.76461 -5.80092 4.8434
H -4.17997 -6.45632 2.05102
H -2.01876 -7.86496 2.8815
H -2.00786 -2.17524 1.56908
H -4.74751 -5.28363 4.26684
H -5.09281 -7.37476 5.41515
H -4.95771 -7.89515 3.67376
H -3.04323 -7.98834 6.02219
H -2.99752 -9.08247 4.61595
H -1.17691 -7.20124 4.87529
H -3.38435 -2.47216 0.41697
H -1.68646 -2.81391 -0.0882
H -3.85399 -13.8497 3.83037
H -4.4783 -12.16358 3.99542
H -2.73364 -12.53149 4.34708
H -3.1673 -5.77983 0.00061
H -2.45319 -6.85758 -0.98964
H -0.16969 -7.29254 0.26639
H -0.59848 -5.94786 -0.54839
$end

$opt
CONSTRAINT
tors           1           2           3           4    -142.105
tors           3           4           5           6     -66.316
tors           4           5           6           7     -47.368
tors           5           6           7           8     +85.263
tors           6           7           8           9    -104.211
tors           7           8           9          10     -28.421
tors           8           9          10          11    -104.211
tors           9          10          11          12    -123.158
tors          11          12          13          14      -9.474
ENDCONSTRAINT
$end

$rem
JOBTYPE                   OPT
METHOD                    B3LYP
DFT_D                     d3_op
BASIS                     STO-3G
GEOM_OPT_MAX_CYCLES       100
GEOM_OPT_TOL_GRADIENT     300
GEOM_OPT_TOL_DISPLACEMENT 1200
GEOM_OPT_TOL_ENERGY       100
SYMMETRY                  False
THRESH                    12
SCF_CONVERGENCE           8
MAX_SUB_FILE_NUM          128
MEM_STATIC                400
MEM_TOTAL                 4000
$end
--------------------------------------------------------------

   16   -1509.9539788961      2.92E-09 Convergence criterion met
 Total energy in the final basis set = -1509.95397890
   14   -1510.0467117529      4.48E-09 Convergence criterion met
 Total energy in the final basis set = -1510.04671175
   14   -1510.1101578665      7.45E-09 Convergence criterion met
 Total energy in the final basis set = -1510.11015787
   13   -1510.1506970990      7.71E-09 Convergence criterion met
 Total energy in the final basis set = -1510.15069710
   14   -1510.1786099775      4.79E-09 Convergence criterion met
 Total energy in the final basis set = -1510.17860998
   14   -1510.1989771296      3.07E-09 Convergence criterion met
 Total energy in the final basis set = -1510.19897713
   13   -1510.2143032435      6.10E-09 Convergence criterion met
 Total energy in the final basis set = -1510.21430324
   13   -1510.2262128035      7.81E-09 Convergence criterion met
   11   -1510.2509811208      9.53E-09 Convergence criterion met
 Total energy in the final basis set = -1510.25098112
   11   -1510.2510233362      4.19E-09 Convergence criterion met
 Total energy in the final basis set = -1510.25102334
   11   -1510.2510416991      4.12E-09 Convergence criterion met
 Total energy in the final basis set = -1510.25104170
   10   -1510.2510570580      9.37E-09 Convergence criterion met
 Total energy in the final basis set = -1510.25105706
   11   -1510.2510686461      2.38E-09 Convergence criterion met
 Total energy in the final basis set = -1510.25106865
   10   -1510.2510735970      9.53E-09 Convergence criterion met
 Total energy in the final basis set = -1510.25107360

             Standard Nuclear Orientation (Angstroms)
    I     Atom           X                Y                Z
 ----------------------------------------------------------------
    1      O      -4.1363462362     0.2284935019     2.3898939273
    2      C      -3.4212491844    -0.1243045348     1.4274947798
    3      C      -2.2321013428     0.6829141270     0.8000585063
    4      C      -2.0088957288     0.6649952059    -0.7689097280
    5      C      -2.8601047214    -0.2479041752    -1.7208039083
    6      O      -2.7225148457    -1.6871050330    -1.6281758772
    7      C      -1.3325426213    -2.1950433916    -1.5952093270
    8      C      -0.7442768928    -2.1847256621    -0.1124536315
    9      O       0.2320164090    -1.1701059870     0.3601187582
   10      C       1.0861919063    -0.6205750110    -0.6690080414
   11      C       2.5649882937    -1.1902831058    -0.6412755863
   12      C       3.6323040910    -0.0400774048    -0.5008653876
   13      C       2.9343667807     1.1380786984     0.2679143414
   14      O       1.7002867606     1.1838497942     0.5214592534
   15      O      -3.4694079322    -1.4408737337     0.8596822009
   16      O       3.8592422846     2.1389997836     0.6435403614
   17      O       0.6383335191     0.0154531039    -1.6609076514
   18      C       3.1627365262     3.2239822827     1.3823514868
   19      C       2.9781873800    -2.1453108199     0.5568902816
   20      C       4.1471519756    -3.0594013851     0.0233615940
   21      C       5.2997357386    -1.9966794202    -0.1276890938
   22      C       4.6373109534    -0.7180078137     0.5224200372
   23      O       3.6796156717    -1.2612066839     1.5200780161
   24      H       2.6944913464    -1.7130364061    -1.6069126473
   25      H       4.0840491986     0.2973481975    -1.4503743737
   26      H       2.1311988704    -2.6612712539     1.0484343865
   27      H       4.4059314221    -3.8251585535     0.7722237183
   28      H       3.8969419459    -3.5594675893    -0.9258960126
   29      H       6.2029957244    -2.2904558688     0.4295353704
   30      H       5.5761336984    -1.8207604256    -1.1798738858
   31      H       5.3384602372    -0.0078729539     1.0024116811
   32      O      -3.7516153220     0.1806459420    -2.4875336769
   33      C      -4.5355960190    -2.2442450935     1.4987574821
   34      C      -2.4177083603     2.2329193813     1.0578845487
   35      C      -1.0246304891     2.9509054743     0.8411336428
   36      C      -0.9397854731     2.9846505557    -0.7297415801
   37      C      -2.2538375541     2.1990739353    -1.1130559506
   38      O      -3.2309833431     2.6625265454    -0.1012691501
   39      H      -1.3079704207     0.2977296054     1.2782319745
   40      H      -0.9470008981     0.4257331953    -1.0007686476
   41      H      -5.5335547910    -1.7846949113     1.3505263358
   42      H      -2.9380583326     2.4622286474     2.0086086911
   43      H      -1.0358353510     3.9637155249     1.2739808920
   44      H      -0.1897339153     2.3775165900     1.2775801922
   45      H      -0.9743449457     4.0157544410    -1.1167058865
   46      H      -0.0341149242     2.4850462366    -1.1102992136
   47      H      -2.6447831499     2.3747754807    -2.1339145083
   48      H      -4.3599737338    -2.3647146695     2.5876290876
   49      H      -4.5064930822    -3.2324812026     1.0042367906
   50      H       3.9392517050     3.9738504830     1.6193524735
   51      H       2.7094508435     2.8430036419     2.3198735343
   52      H       2.3673800129     3.6859015139     0.7628889337
   53      H      -1.6336433129    -2.0858516173     0.5548639630
   54      H      -0.2791018114    -3.1821025669     0.0625487601
   55      H      -0.6651089915    -1.6449155342    -2.2945019043
   56      H      -1.4067321964    -3.2519539912    -1.9221178606
 ----------------------------------------------------------------

   10   -1510.2510744221      5.54E-09 Convergence criterion met
 Total energy in the final basis set = -1510.25107442
 Final energy is   -1510.25107442214
 **  OPTIMIZATION CONVERGED  **

                    Orbital Energies (a.u.)
 --------------------------------------------------------------

 Alpha MOs
 -- Occupied --
-18.974 -18.933 -18.916 -18.906 -18.900 -18.898 -18.885 -18.869
-18.865 -18.864 -10.131 -10.117 -10.092 -10.086 -10.082 -10.074
-10.070 -10.065 -10.060 -10.057 -10.056 -10.045 -10.041 -10.034
-10.033 -10.031 -10.021 -10.001  -9.999  -9.997  -1.045  -1.008
 -1.006  -0.984  -0.983  -0.966  -0.950  -0.935  -0.930  -0.917
 -0.777  -0.742  -0.737  -0.718  -0.704  -0.696  -0.684  -0.682
 -0.656  -0.616  -0.594  -0.582  -0.559  -0.549  -0.529  -0.524
 -0.521  -0.500  -0.495  -0.476  -0.464  -0.460  -0.457  -0.446
 -0.435  -0.433  -0.424  -0.420  -0.413  -0.407  -0.406  -0.398
 -0.395  -0.392  -0.379  -0.375  -0.364  -0.362  -0.350  -0.350
 -0.346  -0.341  -0.338  -0.329  -0.327  -0.320  -0.318  -0.316
 -0.311  -0.304  -0.300  -0.295  -0.290  -0.287  -0.281  -0.275
 -0.272  -0.259  -0.248  -0.246  -0.232  -0.218  -0.214  -0.208
 -0.179  -0.175  -0.169  -0.159  -0.154  -0.147  -0.141  -0.130
 -0.124

          Ground-State Mulliken Net Atomic Charges

     Atom                 Charge (a.u.)
  ----------------------------------------
      1 O                    -0.212790
      2 C                     0.210144
      3 C                    -0.083202
      4 C                    -0.108813
      5 C                     0.210056
      6 O                    -0.181046
      7 C                    -0.053401
      8 C                    -0.067525
      9 O                    -0.198674
     10 C                     0.232191
     11 C                    -0.083683
     12 C                    -0.076012
     13 C                     0.227931
     14 O                    -0.193176
     15 O                    -0.168573
     16 O                    -0.157392
     17 O                    -0.216808
     18 C                    -0.127154
     19 C                     0.022338
     20 C                    -0.141940
     21 C                    -0.144947
     22 C                     0.023563
     23 O                    -0.192022
     24 H                     0.084085
     25 H                     0.092966
     26 H                     0.091721
     27 H                     0.080153
     28 H                     0.074259
     29 H                     0.080818
     30 H                     0.075475
     31 H                     0.088306
     32 O                    -0.197197
     33 C                    -0.126956
     34 C                     0.023321
     35 C                    -0.148709
     36 C                    -0.145192
     37 C                     0.023272
     38 O                    -0.194634
     39 H                     0.094315
     40 H                     0.106833
     41 H                     0.092632
     42 H                     0.085086
     43 H                     0.069467
     44 H                     0.079052
     45 H                     0.069796
     46 H                     0.074676
     47 H                     0.084603
     48 H                     0.087417
     49 H                     0.091565
     50 H                     0.098480
     51 H                     0.097586
     52 H                     0.098439
     53 H                     0.108633
     54 H                     0.066466
     55 H                     0.086783
     56 H                     0.087422
  ----------------------------------------
  Sum of atomic charges =    -0.000000

                    Cartesian Multipole Moments
 -----------------------------------------------------------------
    Charge (ESU x 10^10)
                -0.0000
    Dipole Moment (Debye)
         X       7.0763      Y      -2.0479      Z       0.6805
       Tot       7.3980
    Quadrupole Moments (Debye-Ang)
        XX    -165.3924     XY      10.1412     YY    -147.2003
        XZ      -8.9675     YZ       3.6331     ZZ    -166.9313

 Total job time:  71.95s(wall), 3429.79s(cpu)
        *  Thank you very much for using Q-Chem.  Have a nice day.  *
