 Q-Chem 5.0, Q-Chem, Inc., Pleasanton, CA (2017)
 Q-Chem 5.0.1 for Intel X86 EM64T Linux

User input:
--------------------------------------------------------------
$molecule
0  1
O -3.94934 -3.66094 2.70899
C -3.26408 -4.56952 2.26188
C -3.36658 -6.02376 2.66595
C -2.27333 -6.57303 3.59705
C -1.29943 -5.56331 4.16282
O -1.31408 -5.61869 5.52743
C -1.62362 -4.36181 6.13873
C -1.62152 -4.5013 7.6575
O -2.67381 -3.70439 8.22362
C -2.27772 -2.54877 8.81251
C -3.23907 -1.40834 8.57611
C -2.77449 -0.37425 7.5402
C -1.62381 -0.80073 6.65096
O -1.54057 -1.8695 6.06327
O -2.27744 -4.26934 1.37729
O -0.58482 0.07055 6.5655
O -1.16788 -2.37625 9.29972
C 0.55929 -0.15732 5.8297
C -4.606 -1.80538 7.96292
C -5.64925 -0.73339 8.27927
C -5.18206 0.38997 7.37892
C -4.0285 -0.30598 6.65031
O -4.43134 -1.65178 6.57749
H -3.43782 -0.96107 9.57573
H -2.52512 0.61306 7.98931
H -4.97898 -2.79487 8.30604
H -6.62781 -1.10641 7.89993
H -5.751 -0.47024 9.35407
H -6.00202 0.63407 6.66737
H -4.84422 1.31072 7.90204
H -3.82641 0.19447 5.67698
O -0.56588 -4.83113 3.51463
C -2.00322 -2.99661 0.92227
C -4.6209 -6.3216 3.52506
C -5.02862 -7.78166 3.34988
C -3.90046 -8.47442 4.08041
C -3.16263 -7.26117 4.66319
O -4.17009 -6.30222 4.85749
H -3.46779 -6.59848 1.71747
H -1.63941 -7.31043 3.05747
H -1.72616 -2.33783 1.77314
H -5.48727 -5.66389 3.29387
H -5.96802 -7.92129 3.93224
H -5.1963 -8.12042 2.30494
H -4.34038 -9.10646 4.8836
H -3.22532 -9.08429 3.44177
H -2.60408 -7.58422 5.56808
H -2.88819 -2.57925 0.39599
H -1.15211 -3.03975 0.21224
H 1.2393 0.71267 5.93521
H 0.30436 -0.2848 4.75578
H 1.07919 -1.06586 6.20242
H -1.90997 -5.54587 7.9033
H -0.60466 -4.36947 8.09141
H -2.62375 -4.03523 5.767
H -0.7265 -3.77605 5.86863
$end

$opt
CONSTRAINT
tors           1           2           3           4    -104.211
tors           3           4           5           6    +123.158
tors           4           5           6           7    -123.158
tors           5           6           7           8    -180.000
tors           6           7           8           9    -142.105
tors           7           8           9          10    -104.211
tors           8           9          10          11    +142.105
tors           9          10          11          12    -104.211
tors          11          12          13          14     +47.368
ENDCONSTRAINT
$end

$rem
JOBTYPE                   OPT
METHOD                    B3LYP
DFT_D                     d3_op
BASIS                     STO-3G
GEOM_OPT_MAX_CYCLES       100
GEOM_OPT_TOL_GRADIENT     300
GEOM_OPT_TOL_DISPLACEMENT 1200
GEOM_OPT_TOL_ENERGY       100
SYMMETRY                  False
THRESH                    12
SCF_CONVERGENCE           8
MAX_SUB_FILE_NUM          128
MEM_STATIC                400
MEM_TOTAL                 4000
$end
--------------------------------------------------------------

   15   -1510.1151681564      8.40E-09 Convergence criterion met
 Total energy in the final basis set = -1510.11516816
   14   -1510.1867821004      5.14E-09 Convergence criterion met
 Total energy in the final basis set = -1510.18678210
   14   -1510.2240665916      8.16E-09 Convergence criterion met
 Total energy in the final basis set = -1510.22406659
   14   -1510.2446311740      8.02E-09 Convergence criterion met
 Total energy in the final basis set = -1510.24463117
   14   -1510.2527771221      6.42E-09 Convergence criterion met
 Total energy in the final basis set = -1510.25277712
   13   -1510.2562144910      5.74E-09 Convergence criterion met
 Total energy in the final basis set = -1510.25621449
   13   -1510.2581538810      5.33E-09 Convergence criterion met
 Total energy in the final basis set = -1510.25815388
   13   -1510.2593386523      6.71E-09 Convergence criterion met
   12   -1510.2618143559      2.19E-09 Convergence criterion met
 Total energy in the final basis set = -1510.26181436
   11   -1510.2618786759      5.98E-09 Convergence criterion met
 Total energy in the final basis set = -1510.26187868
   11   -1510.2619247512      3.54E-09 Convergence criterion met
 Total energy in the final basis set = -1510.26192475
   10   -1510.2619333108      7.53E-09 Convergence criterion met
 Total energy in the final basis set = -1510.26193331
    9   -1510.2619383101      5.60E-09 Convergence criterion met
 Total energy in the final basis set = -1510.26193831
    9   -1510.2619409990      5.29E-09 Convergence criterion met
 Total energy in the final basis set = -1510.26194100

             Standard Nuclear Orientation (Angstroms)
    I     Atom           X                Y                Z
 ----------------------------------------------------------------
    1      O      -1.5180658977     0.9496318039     1.9773166013
    2      C      -2.6314590267     1.1381082542     1.4411838183
    3      C      -3.6139294935     0.0595824372     0.8620726406
    4      C      -3.6344662929    -0.0315555956    -0.7282455078
    5      C      -2.3859157419     0.7238643206    -1.3449869637
    6      O      -1.5893041859    -0.1428903692    -2.1834275279
    7      C      -0.2043191868    -0.1404890131    -1.6528235435
    8      C       0.6949747432    -1.0749749614    -2.5413871543
    9      O       1.6150641146    -1.7562572736    -1.6031768468
   10      C       2.9368638914    -1.2069670640    -1.6552923748
   11      C       3.5247848148    -1.1825259393    -0.1902610278
   12      C       3.5153497965     0.2849486701     0.4281618803
   13      C       3.1683599368     1.4383991327    -0.5692515164
   14      O       2.2323184842     1.5030890819    -1.3966651185
   15      O      -3.2820018288     2.4116452611     1.3584106118
   16      O       4.1153961034     2.4927696543    -0.3685065485
   17      O       3.4891351000    -0.7758296817    -2.6904512729
   18      C       3.8115785811     3.6242167448    -1.2764221383
   19      C       2.5645629239    -1.9287099939     0.8257941975
   20      C       3.2812673516    -2.0522425626     2.2294783641
   21      C       3.1120971077    -0.5943229405     2.7965864699
   22      C       2.4129686542     0.1174834738     1.5754245781
   23      O       1.4995979942    -0.9213147266     1.0552546648
   24      H       4.5506349885    -1.5936064969    -0.1956834915
   25      H       4.4983002704     0.5252955182     0.8695419969
   26      H       2.1288334327    -2.8673448175     0.4354392187
   27      H       2.7682850819    -2.7952905083     2.8601459532
   28      H       4.3377646394    -2.3472253691     2.1260226995
   29      H       2.4492416292    -0.5785164553     3.6765286704
   30      H       4.0708083855    -0.1227680470     3.0642977200
   31      H       1.8503510126     1.0397763308     1.8188565774
   32      O      -2.0685828143     1.9059808744    -1.0877599069
   33      C      -2.3583669209     3.4780597308     1.8060861336
   34      C      -3.2177096958    -1.4299428370     1.2434271443
   35      C      -4.5294927237    -2.3024555014     1.1632586584
   36      C      -4.7601677470    -2.3403056986    -0.3937734387
   37      C      -3.4714613098    -1.5923366871    -0.9216281112
   38      O      -2.4287402996    -1.9103903605     0.0854425560
   39      H      -4.6256038251     0.3059901993     1.2318660286
   40      H      -4.5746718544     0.3738797623    -1.1447584402
   41      H      -1.5018344594     3.5797052721     1.1086605374
   42      H      -2.6277289648    -1.5206515979     2.1760880015
   43      H      -4.3442164439    -3.3110174322     1.5663634852
   44      H      -5.3713226459    -1.8504118715     1.7116673456
   45      H      -4.7916013123    -3.3732133627    -0.7748096843
   46      H      -5.6859742955    -1.8251545522    -0.6965049716
   47      H      -3.1280563056    -1.8815387731    -1.9326856699
   48      H      -1.9672516801     3.2806484866     2.8251479512
   49      H      -2.9464778492     4.4139985081     1.8063464049
   50      H       4.5739523499     4.3966399807    -1.0667957007
   51      H       2.7998781532     4.0375511018    -1.0875869298
   52      H       3.8733328406     3.3180874951    -2.3406023718
   53      H       0.0669416719    -1.8492720770    -3.0312914710
   54      H       1.2606147225    -0.5119895954    -3.3125968150
   55      H      -0.1855449832    -0.5600447500    -0.6187188696
   56      H       0.2433953133     0.8768319636    -1.6186978189
 ----------------------------------------------------------------

    9   -1510.2619414047      2.08E-09 Convergence criterion met
 Total energy in the final basis set = -1510.26194140
 Final energy is   -1510.26194140474
 **  OPTIMIZATION CONVERGED  **

                    Orbital Energies (a.u.)
 --------------------------------------------------------------

 Alpha MOs
 -- Occupied --
-18.938 -18.925 -18.915 -18.901 -18.887 -18.883 -18.880 -18.878
-18.873 -18.867 -10.102 -10.096 -10.095 -10.092 -10.065 -10.059
-10.058 -10.056 -10.055 -10.053 -10.052 -10.043 -10.037 -10.035
-10.033 -10.031 -10.018 -10.017 -10.016 -10.015  -1.014  -1.005
 -1.002  -0.996  -0.967  -0.964  -0.938  -0.932  -0.928  -0.924
 -0.761  -0.757  -0.721  -0.718  -0.708  -0.700  -0.682  -0.663
 -0.655  -0.604  -0.592  -0.567  -0.543  -0.541  -0.534  -0.532
 -0.509  -0.503  -0.480  -0.472  -0.458  -0.454  -0.446  -0.442
 -0.431  -0.427  -0.418  -0.413  -0.407  -0.404  -0.401  -0.391
 -0.383  -0.376  -0.369  -0.363  -0.359  -0.355  -0.349  -0.343
 -0.339  -0.334  -0.331  -0.329  -0.326  -0.323  -0.317  -0.306
 -0.306  -0.302  -0.301  -0.295  -0.289  -0.283  -0.276  -0.271
 -0.268  -0.258  -0.247  -0.237  -0.235  -0.230  -0.228  -0.180
 -0.170  -0.163  -0.160  -0.151  -0.148  -0.147  -0.143  -0.140
 -0.138

          Ground-State Mulliken Net Atomic Charges

     Atom                 Charge (a.u.)
  ----------------------------------------
      1 O                    -0.215538
      2 C                     0.208787
      3 C                    -0.081228
      4 C                    -0.077798
      5 C                     0.216789
      6 O                    -0.191603
      7 C                    -0.059784
      8 C                    -0.045135
      9 O                    -0.178402
     10 C                     0.214135
     11 C                    -0.078708
     12 C                    -0.081704
     13 C                     0.210613
     14 O                    -0.216487
     15 O                    -0.167614
     16 O                    -0.167539
     17 O                    -0.209221
     18 C                    -0.128925
     19 C                     0.026909
     20 C                    -0.145373
     21 C                    -0.142491
     22 C                     0.026219
     23 O                    -0.183319
     24 H                     0.082806
     25 H                     0.087121
     26 H                     0.092324
     27 H                     0.078179
     28 H                     0.072597
     29 H                     0.079485
     30 H                     0.073330
     31 H                     0.086876
     32 O                    -0.197641
     33 C                    -0.127532
     34 C                     0.023192
     35 C                    -0.142795
     36 C                    -0.145779
     37 C                     0.023462
     38 O                    -0.190481
     39 H                     0.083874
     40 H                     0.084268
     41 H                     0.091830
     42 H                     0.087928
     43 H                     0.077022
     44 H                     0.072228
     45 H                     0.077071
     46 H                     0.072352
     47 H                     0.091704
     48 H                     0.086587
     49 H                     0.088437
     50 H                     0.090981
     51 H                     0.089743
     52 H                     0.092456
     53 H                     0.087831
     54 H                     0.095685
     55 H                     0.102552
     56 H                     0.099728
  ----------------------------------------
  Sum of atomic charges =     0.000000

                    Cartesian Multipole Moments
 -----------------------------------------------------------------
    Charge (ESU x 10^10)
                 0.0000
    Dipole Moment (Debye)
         X      -0.2384      Y       0.3530      Z       2.0055
       Tot       2.0503
    Quadrupole Moments (Debye-Ang)
        XX    -144.5154     XY       5.0549     YY    -151.8040
        XZ       4.8708     YZ       0.0424     ZZ    -160.7296

 Total job time:  57.52s(wall), 2735.91s(cpu)
        *  Thank you very much for using Q-Chem.  Have a nice day.  *
