 Q-Chem 5.0, Q-Chem, Inc., Pleasanton, CA (2017)
 Q-Chem 5.0.1 for Intel X86 EM64T Linux

User input:
--------------------------------------------------------------
$molecule
0  1
O -1.5180658977 0.9496318039 1.9773166013
C -2.6314590267 1.1381082542 1.4411838183
C -3.6139294935 0.0595824372 0.8620726406
C -3.6344662929 -0.0315555956 -0.7282455078
C -2.3859157419 0.7238643206 -1.3449869637
O -1.5893041859 -0.1428903692 -2.1834275279
C -0.2043191868 -0.1404890131 -1.6528235435
C 0.6949747432 -1.0749749614 -2.5413871543
O 1.6150641146 -1.7562572736 -1.6031768468
C 2.9368638914 -1.206967064 -1.6552923748
C 3.5247848148 -1.1825259393 -0.1902610278
C 3.5153497965 0.2849486701 0.4281618803
C 3.1683599368 1.4383991327 -0.5692515164
O 2.2323184842 1.5030890819 -1.3966651185
O -3.2820018288 2.4116452611 1.3584106118
O 4.1153961034 2.4927696543 -0.3685065485
O 3.4891351 -0.7758296817 -2.6904512729
C 3.8115785811 3.6242167448 -1.2764221383
C 2.5645629239 -1.9287099939 0.8257941975
C 3.2812673516 -2.0522425626 2.2294783641
C 3.1120971077 -0.5943229405 2.7965864699
C 2.4129686542 0.1174834738 1.5754245781
O 1.4995979942 -0.9213147266 1.0552546648
H 4.5506349885 -1.5936064969 -0.1956834915
H 4.4983002704 0.5252955182 0.8695419969
H 2.1288334327 -2.8673448175 0.4354392187
H 2.7682850819 -2.7952905083 2.8601459532
H 4.3377646394 -2.3472253691 2.1260226995
H 2.4492416292 -0.5785164553 3.6765286704
H 4.0708083855 -0.122768047 3.06429772
H 1.8503510126 1.0397763308 1.8188565774
O -2.0685828143 1.9059808744 -1.0877599069
C -2.3583669209 3.4780597308 1.8060861336
C -3.2177096958 -1.429942837 1.2434271443
C -4.5294927237 -2.3024555014 1.1632586584
C -4.760167747 -2.3403056986 -0.3937734387
C -3.4714613098 -1.5923366871 -0.9216281112
O -2.4287402996 -1.9103903605 0.085442556
H -4.6256038251 0.3059901993 1.2318660286
H -4.5746718544 0.3738797623 -1.1447584402
H -1.5018344594 3.5797052721 1.1086605374
H -2.6277289648 -1.5206515979 2.1760880015
H -4.3442164439 -3.3110174322 1.5663634852
H -5.3713226459 -1.8504118715 1.7116673456
H -4.7916013123 -3.3732133627 -0.7748096843
H -5.6859742955 -1.8251545522 -0.6965049716
H -3.1280563056 -1.8815387731 -1.9326856699
H -1.9672516801 3.2806484866 2.8251479512
H -2.9464778492 4.4139985081 1.8063464049
H 4.5739523499 4.3966399807 -1.0667957007
H 2.7998781532 4.0375511018 -1.0875869298
H 3.8733328406 3.3180874951 -2.3406023718
H 0.0669416719 -1.849272077 -3.031291471
H 1.2606147225 -0.5119895954 -3.312596815
H -0.1855449832 -0.56004475 -0.6187188696
H 0.2433953133 0.8768319636 -1.6186978189
$end

$rem
JOBTYPE                   OPT
METHOD                    B3LYP
DFT_D                     d3_op
BASIS                     STO-3G
GEOM_OPT_MAX_CYCLES       100
GEOM_OPT_TOL_GRADIENT     300
GEOM_OPT_TOL_DISPLACEMENT 1200
GEOM_OPT_TOL_ENERGY       100
SYMMETRY                  False
THRESH                    12
SCF_CONVERGENCE           8
MAX_SUB_FILE_NUM          128
MEM_STATIC                400
MEM_TOTAL                 4000
$end
--------------------------------------------------------------

   16   -1510.2617967933      7.40E-09 Convergence criterion met
 Total energy in the final basis set = -1510.26179679
   14   -1510.2646166219      2.16E-09 Convergence criterion met
 Total energy in the final basis set = -1510.26461662
   14   -1510.2678867445      1.82E-09 Convergence criterion met
 Total energy in the final basis set = -1510.26788674
   14   -1510.2397551403      8.26E-09 Convergence criterion met
 Total energy in the final basis set = -1510.23975514
   14   -1510.2712337808      4.01E-09 Convergence criterion met
 Total energy in the final basis set = -1510.27123378
   14   -1510.2747929450      1.51E-09 Convergence criterion met
 Total energy in the final basis set = -1510.27479295
   14   -1510.2777782774      1.84E-09 Convergence criterion met
 Total energy in the final basis set = -1510.27777828
   14   -1510.2796364646      2.04E-09 Convergence criterion met
   11   -1510.3022186005      4.35E-09 Convergence criterion met
 Total energy in the final basis set = -1510.30221860
   10   -1510.3022283670      8.68E-09 Convergence criterion met
 Total energy in the final basis set = -1510.30222837
   11   -1510.3022332254      2.61E-09 Convergence criterion met
 Total energy in the final basis set = -1510.30223323
    9   -1510.3022358804      4.77E-09 Convergence criterion met
 Total energy in the final basis set = -1510.30223588
   10   -1510.3022388682      8.82E-09 Convergence criterion met
 Total energy in the final basis set = -1510.30223887
   11   -1510.3022406494      2.03E-09 Convergence criterion met
 Total energy in the final basis set = -1510.30224065

             Standard Nuclear Orientation (Angstroms)
    I     Atom           X                Y                Z
 ----------------------------------------------------------------
    1      O      -1.4239734913     2.4833680313    -0.3707952696
    2      C      -1.9277560841     1.5481652525    -1.0385173440
    3      C      -3.3036198237     0.8436849918    -0.7581076519
    4      C      -3.2696555425    -0.6807402924    -0.3024184975
    5      C      -1.8561065541    -1.3188308958    -0.0899727709
    6      O      -1.4862696161    -2.0166894351    -1.2799187598
    7      C      -0.2114479487    -2.7518819145    -1.0839153497
    8      C       0.9698439472    -2.0818936118    -1.8786551453
    9      O       2.0003445021    -1.6634036966    -0.8996377009
   10      C       2.5244802151    -0.3707558595    -1.2231280812
   11      C       3.5729998003     0.0473547231    -0.1252835316
   12      C       2.9286458365     0.7225974957     1.1537440981
   13      C       1.3675774372     0.8127662217     1.0558475104
   14      O       0.6827428709     0.5182289054     0.0457257080
   15      O      -1.3885596268     1.0315143663    -2.2471013349
   16      O       0.8447630855     1.2726529079     2.2867811687
   17      O       2.2968061964     0.2378170772    -2.2968580729
   18      C      -0.6437259427     1.2994377729     2.2294959188
   19      C       4.2916686673    -1.2048998666     0.5369197718
   20      C       5.5741591966    -0.6976729382     1.3085253585
   21      C       4.9249953675    -0.0362104588     2.5803338158
   22      C       3.3907418662    -0.2778802597     2.2971998291
   23      O       3.3656869269    -1.5969022944     1.6247463243
   24      H       4.2933851710     0.7301958659    -0.6091775116
   25      H       3.3312058004     1.7374839055     1.3256118037
   26      H       4.4598218085    -2.0545032261    -0.1521246461
   27      H       6.2185870055    -1.5487559081     1.5804383502
   28      H       6.1659067006     0.0146179038     0.7114022990
   29      H       5.2309092311    -0.5518736694     3.5043917668
   30      H       5.1669579366     1.0343468187     2.6757830018
   31      H       2.7321322942    -0.2760753564     3.1872546163
   32      O      -1.1782981495    -1.3230592713     0.9648102461
   33      C      -0.1699721051     1.7831454970    -2.6472353341
   34      C      -4.0460640147     1.5092917498     0.4756038850
   35      C      -5.5823452519     1.1638279226     0.3759333970
   36      C      -5.5774279047    -0.3536191772     0.7937715441
   37      C      -4.0421308145    -0.5864786111     1.0833489548
   38      O      -3.5867855117     0.7091819930     1.6342835782
   39      H      -3.9048056185     0.9316815708    -1.6816755634
   40      H      -3.8074764482    -1.3063531128    -1.0366869255
   41      H       0.7322515667     1.1324162507    -2.5540943784
   42      H      -3.7970456984     2.5779745187     0.6231911249
   43      H      -6.1620589514     1.7753572136     1.0855205444
   44      H      -5.9805194857     1.3262749576    -0.6382822659
   45      H      -6.1699939245    -0.5242766195     1.7066667033
   46      H      -5.9545003187    -1.0164374688    -0.0014621259
   47      H      -3.8098467506    -1.4080848853     1.7882108488
   48      H      -0.0559290315     2.6707442568    -1.9951524125
   49      H      -0.3045963284     2.0938221080    -3.7010659472
   50      H      -0.9789359703     1.6266279243     3.2291863653
   51      H      -1.0385963118     0.2858018823     1.9877179172
   52      H      -0.9974828725     2.0028380574     1.4420433374
   53      H       1.4186637141    -2.8085396487    -2.5898233501
   54      H       0.6066110829    -1.2046611924    -2.4553911976
   55      H      -0.3847957278    -3.7884134351    -1.4378405715
   56      H       0.0394604087    -2.7515105656    -0.0001676887
 ----------------------------------------------------------------

    9   -1510.3022413246      6.11E-09 Convergence criterion met
 Total energy in the final basis set = -1510.30224132
 Final energy is   -1510.30224132463
 **  OPTIMIZATION CONVERGED  **

                    Orbital Energies (a.u.)
 --------------------------------------------------------------

 Alpha MOs
 -- Occupied --
-18.937 -18.928 -18.925 -18.923 -18.888 -18.883 -18.883 -18.871
-18.868 -18.861 -10.104 -10.098 -10.096 -10.093 -10.065 -10.063
-10.061 -10.058 -10.055 -10.054 -10.041 -10.038 -10.032 -10.031
-10.031 -10.021 -10.021 -10.020 -10.017 -10.016  -1.015  -1.006
 -1.004  -0.997  -0.971  -0.965  -0.940  -0.930  -0.927  -0.926
 -0.764  -0.758  -0.726  -0.719  -0.710  -0.704  -0.692  -0.648
 -0.640  -0.611  -0.592  -0.575  -0.543  -0.540  -0.537  -0.532
 -0.512  -0.506  -0.481  -0.466  -0.460  -0.452  -0.450  -0.440
 -0.431  -0.429  -0.428  -0.410  -0.408  -0.403  -0.398  -0.394
 -0.391  -0.366  -0.365  -0.363  -0.362  -0.352  -0.349  -0.344
 -0.339  -0.333  -0.329  -0.328  -0.324  -0.322  -0.319  -0.311
 -0.306  -0.305  -0.299  -0.297  -0.290  -0.282  -0.273  -0.271
 -0.266  -0.251  -0.242  -0.240  -0.239  -0.233  -0.229  -0.187
 -0.173  -0.164  -0.160  -0.155  -0.148  -0.147  -0.145  -0.143
 -0.138

          Ground-State Mulliken Net Atomic Charges

     Atom                 Charge (a.u.)
  ----------------------------------------
      1 O                    -0.218479
      2 C                     0.218260
      3 C                    -0.078066
      4 C                    -0.077820
      5 C                     0.218499
      6 O                    -0.166838
      7 C                    -0.054731
      8 C                    -0.051455
      9 O                    -0.170763
     10 C                     0.224001
     11 C                    -0.081268
     12 C                    -0.078572
     13 C                     0.218017
     14 O                    -0.217746
     15 O                    -0.168744
     16 O                    -0.170607
     17 O                    -0.231209
     18 C                    -0.151681
     19 C                     0.026467
     20 C                    -0.144490
     21 C                    -0.143821
     22 C                     0.024845
     23 O                    -0.187835
     24 H                     0.082972
     25 H                     0.085503
     26 H                     0.084361
     27 H                     0.076879
     28 H                     0.072759
     29 H                     0.077464
     30 H                     0.073448
     31 H                     0.089626
     32 O                    -0.208852
     33 C                    -0.149247
     34 C                     0.023620
     35 C                    -0.143846
     36 C                    -0.144239
     37 C                     0.025132
     38 O                    -0.188546
     39 H                     0.085907
     40 H                     0.087610
     41 H                     0.112832
     42 H                     0.089178
     43 H                     0.078309
     44 H                     0.073546
     45 H                     0.078400
     46 H                     0.073635
     47 H                     0.085247
     48 H                     0.093088
     49 H                     0.077581
     50 H                     0.080302
     51 H                     0.107707
     52 H                     0.100708
     53 H                     0.081230
     54 H                     0.105931
     55 H                     0.085129
     56 H                     0.110658
  ----------------------------------------
  Sum of atomic charges =    -0.000000

                    Cartesian Multipole Moments
 -----------------------------------------------------------------
    Charge (ESU x 10^10)
                -0.0000
    Dipole Moment (Debye)
         X      -0.7594      Y      -0.7361      Z      -0.8069
       Tot       1.3303
    Quadrupole Moments (Debye-Ang)
        XX    -136.2936     XY       2.4645     YY    -157.4682
        XZ       4.0656     YZ       2.3758     ZZ    -163.4107

 Total job time:  265.80s(wall), 12692.52s(cpu)
        *  Thank you very much for using Q-Chem.  Have a nice day.  *
