 Q-Chem 5.0, Q-Chem, Inc., Pleasanton, CA (2017)
 Q-Chem 5.0.1 for Intel X86 EM64T Linux

User input:
--------------------------------------------------------------
$molecule
0  1
O -3.94934 -3.66094 2.70899
C -3.26408 -4.56952 2.26188
C -3.36658 -6.02376 2.66595
C -2.57813 -6.46456 3.91009
C -1.91791 -5.36653 4.71416
O -0.7029 -5.79197 5.1704
C 0.37884 -4.94763 4.76272
C -0.10607 -3.93239 3.73302
O -1.03645 -3.02355 4.34235
C -0.94645 -1.73433 3.93129
C -1.94928 -0.82988 4.60728
C -1.8876 0.64241 4.17504
C -1.10702 0.92682 2.90756
O 0.10112 1.10256 2.84354
O -2.49068 -4.31466 1.17324
O -1.81897 1.05151 1.75239
O -0.1224 -1.39152 3.09678
C -1.26556 1.29507 0.51282
C -3.43491 -1.14067 4.43419
C -4.24006 -0.53513 5.58656
C -4.17729 0.93251 5.23629
C -3.40149 0.86491 3.91949
O -3.81976 -0.35101 3.34072
H -1.70671 -0.91894 5.69061
H -1.52396 1.34785 4.95443
H -3.64182 -2.21677 4.41111
H -5.29393 -0.87992 5.4816
H -3.86942 -0.7959 6.6014
H -5.21306 1.29294 5.04614
H -3.6812 1.58272 5.98887
H -3.60428 1.78441 3.32692
O -2.5973 -4.56614 5.34672
C -2.36832 -3.07585 0.57799
C -4.79784 -6.40941 3.0857
C -4.99648 -7.91958 2.95421
C -4.17841 -8.4146 4.12828
C -3.7264 -7.08263 4.73452
O -4.80679 -6.21748 4.47852
H -3.07253 -6.62464 1.77511
H -1.81181 -7.23374 3.65807
H -1.96538 -2.3384 1.30225
H -5.58048 -5.8685 2.50946
H -6.06982 -8.13801 3.15466
H -4.71315 -8.34006 1.96534
H -4.8604 -8.93705 4.83579
H -3.32406 -9.0765 3.86898
H -3.45148 -7.21981 5.80387
H -3.35669 -2.73021 0.20693
H -1.67029 -3.15162 -0.28058
H -2.07569 1.34506 -0.24322
H -0.57046 0.473 0.23775
H -0.72086 2.26321 0.51937
H 0.82837 -3.43005 3.39638
H -0.53705 -4.42063 2.83465
H 1.15112 -5.58699 4.28381
H 0.82794 -4.4463 5.64658
$end

$opt
CONSTRAINT
tors           1           2           3           4     -85.263
tors           3           4           5           6    -142.105
tors           4           5           6           7    +123.158
tors           5           6           7           8      -9.474
tors           6           7           8           9     +66.316
tors           7           8           9          10    +142.105
tors           8           9          10          11    -180.000
tors           9          10          11          12    -180.000
tors          11          12          13          14     -85.263
ENDCONSTRAINT
$end

$rem
JOBTYPE                   OPT
METHOD                    B3LYP
DFT_D                     d3_op
BASIS                     STO-3G
GEOM_OPT_MAX_CYCLES       100
GEOM_OPT_TOL_GRADIENT     300
GEOM_OPT_TOL_DISPLACEMENT 1200
GEOM_OPT_TOL_ENERGY       100
SYMMETRY                  False
THRESH                    12
SCF_CONVERGENCE           8
MAX_SUB_FILE_NUM          128
MEM_STATIC                400
MEM_TOTAL                 4000
$end
--------------------------------------------------------------

   15   -1510.1118767220      7.17E-09 Convergence criterion met
 Total energy in the final basis set = -1510.11187672
   14   -1510.1866150839      7.55E-09 Convergence criterion met
 Total energy in the final basis set = -1510.18661508
   15   -1510.2258963699      3.08E-09 Convergence criterion met
 Total energy in the final basis set = -1510.22589637
   15   -1510.2481714613      2.46E-09 Convergence criterion met
 Total energy in the final basis set = -1510.24817146
   14   -1510.2587069261      5.13E-09 Convergence criterion met
 Total energy in the final basis set = -1510.25870693
   14   -1510.2644938105      3.91E-09 Convergence criterion met
 Total energy in the final basis set = -1510.26449381
   13   -1510.2674915960      6.04E-09 Convergence criterion met
 Total energy in the final basis set = -1510.26749160
   13   -1510.2687388206      4.71E-09 Convergence criterion met
   11   -1510.2702720984      5.95E-09 Convergence criterion met
 Total energy in the final basis set = -1510.27027210
   11   -1510.2703017587      3.62E-09 Convergence criterion met
 Total energy in the final basis set = -1510.27030176
   11   -1510.2703255082      2.91E-09 Convergence criterion met
 Total energy in the final basis set = -1510.27032551
   11   -1510.2703351114      3.07E-09 Convergence criterion met
 Total energy in the final basis set = -1510.27033511
   10   -1510.2703414255      9.54E-09 Convergence criterion met
 Total energy in the final basis set = -1510.27034143
   10   -1510.2703440943      3.47E-09 Convergence criterion met
 Total energy in the final basis set = -1510.27034409

             Standard Nuclear Orientation (Angstroms)
    I     Atom           X                Y                Z
 ----------------------------------------------------------------
    1      O       1.1899006288    -1.5306560117    -0.7226756643
    2      C       1.8158882753    -0.5894832271    -1.2584751234
    3      C       3.3374760788    -0.2294345705    -1.1086434819
    4      C       3.7082048968     0.6771885309     0.1470128764
    5      C       2.4877195383     0.9213058571     1.1026773766
    6      O       2.4953706383     2.2724907397     1.6307470795
    7      C       1.2476912836     3.0266907578     1.3381694132
    8      C       0.2172221978     2.3886032316     0.3399050567
    9      O      -0.3728513698     1.1546137342     0.9064485463
   10      C      -1.7557528872     1.0442437643     0.5722520765
   11      C      -2.2893067976    -0.2810052282     1.2096759806
   12      C      -3.8258954158    -0.5315192535     0.9147435995
   13      C      -4.5659227994     0.6977278984     0.2665973464
   14      O      -5.0748137523     1.6627253156     0.8777922089
   15      O       1.2247389745     0.3681217131    -2.1472970820
   16      O      -4.6459595319     0.5114974220    -1.1530842803
   17      O      -2.3819441976     1.8778644958    -0.1220853236
   18      C      -5.2756336987     1.6963277067    -1.7749282742
   19      C      -1.6334094722    -1.5384973554     0.4812978826
   20      C      -1.9823467719    -2.8373812785     1.3072089860
   21      C      -3.4862964633    -3.0697484808     0.9067915841
   22      C      -3.7467146512    -1.8165031046    -0.0174114075
   23      O      -2.4636819054    -1.6568153071    -0.7400382358
   24      H      -2.0627755475    -0.2695063469     2.2907148876
   25      H      -4.3518012874    -0.7593119263     1.8592464818
   26      H      -0.5594416263    -1.4277227913     0.2065811175
   27      H      -1.3421051802    -3.6751261604     0.9889489341
   28      H      -1.8492170808    -2.6845845276     2.3901239925
   29      H      -3.6121393512    -4.0018340410     0.3328632219
   30      H      -4.1627823247    -3.0948498273     1.7758496185
   31      H      -4.5854346474    -1.9158887039    -0.7324281035
   32      O       1.6910012904     0.0374768056     1.4809834751
   33      C      -0.1720261315    -0.0100062799    -2.4794027171
   34      C       4.2179999413    -1.5213974085    -0.8188962789
   35      C       5.7124991729    -1.1862380868    -1.2004030184
   36      C       6.1156831076    -0.2301731044    -0.0172075253
   37      C       4.7970329434    -0.2452901299     0.8536723161
   38      O       4.2525686390    -1.6061378270     0.6581483967
   39      H       3.6532910524     0.2707814096    -2.0411471641
   40      H       4.1250597597     1.6511046094    -0.1624600788
   41      H      -0.8574580759     0.0945376518    -1.6160661317
   42      H       3.8114774620    -2.4572707659    -1.2485745366
   43      H       6.3213330065    -2.1043046970    -1.2007690980
   44      H       5.7952229114    -0.7047535999    -2.1877938066
   45      H       6.9634092222    -0.6332710227     0.5590239965
   46      H       6.3715981611     0.7853522072    -0.3592829901
   47      H       4.9415088415    -0.0362498581     1.9315067265
   48      H      -0.2327512640    -1.0551890600    -2.8425394810
   49      H      -0.4891480460     0.6822052561    -3.2807468719
   50      H      -5.3165102971     1.4876680936    -2.8599101724
   51      H      -4.6743907765     2.6108233476    -1.5940760135
   52      H      -6.3022749973     1.8666629866    -1.3904151667
   53      H      -0.5930577366     3.1180650084     0.1206513175
   54      H       0.7214273193     2.1292992618    -0.6204020188
   55      H       1.5666867759     4.0046245341     0.9128727819
   56      H       0.7228603608     3.2323997675     2.2993463992
 ----------------------------------------------------------------

    9   -1510.2703449943      6.98E-09 Convergence criterion met
 Total energy in the final basis set = -1510.27034499
 Final energy is   -1510.27034499431
 **  OPTIMIZATION CONVERGED  **

                    Orbital Energies (a.u.)
 --------------------------------------------------------------

 Alpha MOs
 -- Occupied --
-18.940 -18.938 -18.918 -18.906 -18.897 -18.892 -18.886 -18.884
-18.875 -18.853 -10.105 -10.104 -10.102 -10.086 -10.078 -10.075
-10.064 -10.063 -10.060 -10.051 -10.049 -10.042 -10.041 -10.040
-10.032 -10.026 -10.024 -10.023 -10.010 -10.007  -1.021  -1.015
 -1.002  -0.994  -0.974  -0.959  -0.943  -0.941  -0.934  -0.919
 -0.765  -0.754  -0.727  -0.722  -0.710  -0.705  -0.692  -0.663
 -0.648  -0.619  -0.597  -0.578  -0.549  -0.540  -0.534  -0.527
 -0.513  -0.507  -0.481  -0.471  -0.460  -0.457  -0.454  -0.445
 -0.436  -0.430  -0.424  -0.413  -0.410  -0.408  -0.399  -0.397
 -0.389  -0.377  -0.376  -0.373  -0.358  -0.357  -0.354  -0.349
 -0.347  -0.336  -0.333  -0.331  -0.328  -0.320  -0.315  -0.313
 -0.310  -0.307  -0.301  -0.295  -0.292  -0.286  -0.277  -0.271
 -0.270  -0.257  -0.257  -0.239  -0.238  -0.233  -0.223  -0.186
 -0.178  -0.166  -0.161  -0.159  -0.158  -0.148  -0.144  -0.138
 -0.132

          Ground-State Mulliken Net Atomic Charges

     Atom                 Charge (a.u.)
  ----------------------------------------
      1 O                    -0.200544
      2 C                     0.212620
      3 C                    -0.080427
      4 C                    -0.080558
      5 C                     0.210256
      6 O                    -0.193747
      7 C                    -0.046661
      8 C                    -0.060490
      9 O                    -0.165683
     10 C                     0.211615
     11 C                    -0.077921
     12 C                    -0.082919
     13 C                     0.212672
     14 O                    -0.223122
     15 O                    -0.175094
     16 O                    -0.171100
     17 O                    -0.211794
     18 C                    -0.127261
     19 C                     0.014337
     20 C                    -0.143906
     21 C                    -0.144191
     22 C                     0.024850
     23 O                    -0.196700
     24 H                     0.089883
     25 H                     0.081874
     26 H                     0.108013
     27 H                     0.079510
     28 H                     0.073361
     29 H                     0.075489
     30 H                     0.071239
     31 H                     0.086247
     32 O                    -0.171667
     33 C                    -0.132931
     34 C                     0.026723
     35 C                    -0.143585
     36 C                    -0.144122
     37 C                     0.026646
     38 O                    -0.183382
     39 H                     0.085283
     40 H                     0.084698
     41 H                     0.096099
     42 H                     0.087157
     43 H                     0.079028
     44 H                     0.073705
     45 H                     0.079173
     46 H                     0.074249
     47 H                     0.085469
     48 H                     0.093844
     49 H                     0.090737
     50 H                     0.085873
     51 H                     0.091453
     52 H                     0.085335
     53 H                     0.100656
     54 H                     0.088123
     55 H                     0.085903
     56 H                     0.085685
  ----------------------------------------
  Sum of atomic charges =    -0.000000

                    Cartesian Multipole Moments
 -----------------------------------------------------------------
    Charge (ESU x 10^10)
                -0.0000
    Dipole Moment (Debye)
         X       2.2052      Y       1.1133      Z      -1.8669
       Tot       3.0964
    Quadrupole Moments (Debye-Ang)
        XX    -151.3212     XY       8.7824     YY    -158.6511
        XZ      -4.0310     YZ      -2.1377     ZZ    -157.1898

 Total job time:  59.37s(wall), 2830.59s(cpu)
        *  Thank you very much for using Q-Chem.  Have a nice day.  *
