 Q-Chem 5.0, Q-Chem, Inc., Pleasanton, CA (2017)
 Q-Chem 5.0.1 for Intel X86 EM64T Linux

User input:
--------------------------------------------------------------
$molecule
0  1
O 1.1899006288 -1.5306560117 -0.7226756643
C 1.8158882753 -0.5894832271 -1.2584751234
C 3.3374760788 -0.2294345705 -1.1086434819
C 3.7082048968 0.6771885309 0.1470128764
C 2.4877195383 0.9213058571 1.1026773766
O 2.4953706383 2.2724907397 1.6307470795
C 1.2476912836 3.0266907578 1.3381694132
C 0.2172221978 2.3886032316 0.3399050567
O -0.3728513698 1.1546137342 0.9064485463
C -1.7557528872 1.0442437643 0.5722520765
C -2.2893067976 -0.2810052282 1.2096759806
C -3.8258954158 -0.5315192535 0.9147435995
C -4.5659227994 0.6977278984 0.2665973464
O -5.0748137523 1.6627253156 0.8777922089
O 1.2247389745 0.3681217131 -2.147297082
O -4.6459595319 0.511497422 -1.1530842803
O -2.3819441976 1.8778644958 -0.1220853236
C -5.2756336987 1.6963277067 -1.7749282742
C -1.6334094722 -1.5384973554 0.4812978826
C -1.9823467719 -2.8373812785 1.307208986
C -3.4862964633 -3.0697484808 0.9067915841
C -3.7467146512 -1.8165031046 -0.0174114075
O -2.4636819054 -1.6568153071 -0.7400382358
H -2.0627755475 -0.2695063469 2.2907148876
H -4.3518012874 -0.7593119263 1.8592464818
H -0.5594416263 -1.4277227913 0.2065811175
H -1.3421051802 -3.6751261604 0.9889489341
H -1.8492170808 -2.6845845276 2.3901239925
H -3.6121393512 -4.001834041 0.3328632219
H -4.1627823247 -3.0948498273 1.7758496185
H -4.5854346474 -1.9158887039 -0.7324281035
O 1.6910012904 0.0374768056 1.4809834751
C -0.1720261315 -0.0100062799 -2.4794027171
C 4.2179999413 -1.5213974085 -0.8188962789
C 5.7124991729 -1.1862380868 -1.2004030184
C 6.1156831076 -0.2301731044 -0.0172075253
C 4.7970329434 -0.2452901299 0.8536723161
O 4.252568639 -1.606137827 0.6581483967
H 3.6532910524 0.2707814096 -2.0411471641
H 4.1250597597 1.6511046094 -0.1624600788
H -0.8574580759 0.0945376518 -1.6160661317
H 3.811477462 -2.4572707659 -1.2485745366
H 6.3213330065 -2.104304697 -1.200769098
H 5.7952229114 -0.7047535999 -2.1877938066
H 6.9634092222 -0.6332710227 0.5590239965
H 6.3715981611 0.7853522072 -0.3592829901
H 4.9415088415 -0.0362498581 1.9315067265
H -0.232751264 -1.05518906 -2.842539481
H -0.489148046 0.6822052561 -3.2807468719
H -5.3165102971 1.4876680936 -2.8599101724
H -4.6743907765 2.6108233476 -1.5940760135
H -6.3022749973 1.8666629866 -1.3904151667
H -0.5930577366 3.1180650084 0.1206513175
H 0.7214273193 2.1292992618 -0.6204020188
H 1.5666867759 4.0046245341 0.9128727819
H 0.7228603608 3.2323997675 2.2993463992
$end

$rem
JOBTYPE                   OPT
METHOD                    B3LYP
DFT_D                     d3_op
BASIS                     STO-3G
GEOM_OPT_MAX_CYCLES       100
GEOM_OPT_TOL_GRADIENT     300
GEOM_OPT_TOL_DISPLACEMENT 1200
GEOM_OPT_TOL_ENERGY       100
SYMMETRY                  False
THRESH                    12
SCF_CONVERGENCE           8
MAX_SUB_FILE_NUM          128
MEM_STATIC                400
MEM_TOTAL                 4000
$end
--------------------------------------------------------------

   16   -1510.2702428051      3.40E-09 Convergence criterion met
 Total energy in the final basis set = -1510.27024281
   15   -1510.2548544108      2.10E-09 Convergence criterion met
 Total energy in the final basis set = -1510.25485441
   14   -1510.2726881215      4.42E-09 Convergence criterion met
 Total energy in the final basis set = -1510.27268812
   15   -1510.2709571953      2.32E-09 Convergence criterion met
 Total energy in the final basis set = -1510.27095720
   13   -1510.2756719246      4.50E-09 Convergence criterion met
 Total energy in the final basis set = -1510.27567192
   14   -1510.2748238291      6.25E-09 Convergence criterion met
 Total energy in the final basis set = -1510.27482383
   14   -1510.2792816853      5.20E-09 Convergence criterion met
 Total energy in the final basis set = -1510.27928169
   14   -1510.2807754291      5.14E-09 Convergence criterion met
   11   -1510.3009059647      7.60E-09 Convergence criterion met
 Total energy in the final basis set = -1510.30090596
   11   -1510.3009003031      3.29E-09 Convergence criterion met
 Total energy in the final basis set = -1510.30090030
   11   -1510.3009028663      5.47E-09 Convergence criterion met
 Total energy in the final basis set = -1510.30090287
   11   -1510.3009039743      2.86E-09 Convergence criterion met
 Total energy in the final basis set = -1510.30090397
   11   -1510.3008953995      4.66E-09 Convergence criterion met
 Total energy in the final basis set = -1510.30089540
   11   -1510.3009027120      7.33E-09 Convergence criterion met
 Total energy in the final basis set = -1510.30090271

             Standard Nuclear Orientation (Angstroms)
    I     Atom           X                Y                Z
 ----------------------------------------------------------------
    1      O      -0.9929191791    -1.7245589295     1.9947360835
    2      C      -1.5104503863    -0.6155550216     1.7395413187
    3      C      -3.0365430691    -0.3496029949     1.4734877895
    4      C      -3.3730355365     0.6072180547     0.2558421589
    5      C      -2.1378517371     1.1393152932    -0.5503046574
    6      O      -2.1094669744     2.5666533591    -0.4086601977
    7      C      -1.1298496044     3.1980197860    -1.3233861390
    8      C       0.3657205372     3.0875135529    -0.8531688741
    9      O       0.9369231774     1.8906877755    -1.5122299860
   10      C       2.0712356617     1.3940641198    -0.8085806896
   11      C       2.4409134796     0.0111922483    -1.4412440155
   12      C       3.6234640801    -0.7337023346    -0.6965410459
   13      C       4.2760682939     0.0939757564     0.4737703585
   14      O       5.3001125203     0.8065408638     0.3940361047
   15      O      -0.8057109631     0.6226183912     1.7076875138
   16      O       3.5773015115    -0.1855228694     1.6930703335
   17      O       2.6073524277     1.9665776219     0.1675014024
   18      C       4.1259602149     0.6451998763     2.7859261235
   19      C       1.2435362289    -1.0219639539    -1.2519065741
   20      C       1.4935638167    -2.2524090729    -2.2030316930
   21      C       2.6620311470    -2.9946272139    -1.4503808276
   22      C       2.8790974776    -2.0478365328    -0.2061741283
   23      O       1.5040548303    -1.5824321566     0.0956537354
   24      H       2.6637990136     0.1646196993    -2.5126445429
   25      H       4.4308732545    -0.9737623583    -1.4105318330
   26      H       0.2313754696    -0.5564438056    -1.2990739643
   27      H       0.5895941202    -2.8788660523    -2.2642800870
   28      H       1.7758689172    -1.9370642432    -3.2201179280
   29      H       2.3533947824    -3.9986007971    -1.1178761607
   30      H       3.5731207156    -3.0881690141    -2.0626907379
   31      H       3.3267587130    -2.5271620811     0.6854403455
   32      O      -1.3716736584     0.4872159804    -1.2927040765
   33      C       0.6269699401     0.3836916590     2.0300467580
   34      C      -3.7607347910    -1.6858159372     1.0286513316
   35      C      -5.3163651883    -1.5086110469     1.2204324552
   36      C      -5.6609869574    -0.5509170560     0.0196413441
   37      C      -4.2398391822    -0.3758866852    -0.6498006296
   38      O      -3.5910267103    -1.6888240421    -0.4440862472
   39      H      -3.4734949855     0.0567896064     2.4049826299
   40      H      -3.9573343345     1.4822210002     0.5891475128
   41      H       1.0704101316    -0.3941742191     1.3536187976
   42      H      -3.3129009856    -2.5964274659     1.4726228139
   43      H      -5.8314115421    -2.4776599111     1.1241384243
   44      H      -5.5673355185    -1.0709105858     2.1997407214
   45      H      -6.3619053995    -1.0233422963    -0.6868232161
   46      H      -6.0858905788     0.4107400290     0.3488161836
   47      H      -4.2542566358    -0.1153234453    -1.7259118537
   48      H       0.7394589724     0.0642441689     3.0851247151
   49      H       1.1393697869     1.3511338090     1.8835800564
   50      H       3.5752066004     0.3529424221     3.6987765387
   51      H       3.9664543132     1.7244161401     2.5847904490
   52      H       5.2113927075     0.4688422632     2.9315719580
   53      H       0.9238175768     3.9980767183    -1.1655957976
   54      H       0.4267801300     3.0047351995     0.2532817510
   55      H      -1.4250047250     4.2663565519    -1.3542953275
   56      H      -1.2069504859     2.7660918348    -2.3453724084
 ----------------------------------------------------------------

    9   -1510.3009019971      8.96E-09 Convergence criterion met
 Total energy in the final basis set = -1510.30090200
 Final energy is   -1510.30090199713
 **  OPTIMIZATION CONVERGED  **

                    Orbital Energies (a.u.)
 --------------------------------------------------------------

 Alpha MOs
 -- Occupied --
-18.940 -18.937 -18.920 -18.918 -18.896 -18.885 -18.883 -18.880
-18.862 -18.857 -10.105 -10.105 -10.088 -10.086 -10.081 -10.079
-10.059 -10.058 -10.053 -10.053 -10.047 -10.036 -10.036 -10.032
-10.031 -10.022 -10.019 -10.017 -10.016 -10.013  -1.021  -1.012
 -0.997  -0.996  -0.970  -0.967  -0.944  -0.940  -0.922  -0.922
 -0.761  -0.759  -0.729  -0.719  -0.712  -0.702  -0.695  -0.651
 -0.640  -0.619  -0.594  -0.579  -0.543  -0.539  -0.535  -0.533
 -0.515  -0.506  -0.487  -0.466  -0.464  -0.453  -0.444  -0.444
 -0.433  -0.429  -0.427  -0.409  -0.405  -0.404  -0.399  -0.397
 -0.387  -0.378  -0.371  -0.363  -0.362  -0.356  -0.349  -0.343
 -0.340  -0.335  -0.330  -0.328  -0.327  -0.324  -0.318  -0.309
 -0.307  -0.302  -0.300  -0.295  -0.287  -0.282  -0.276  -0.274
 -0.267  -0.257  -0.252  -0.245  -0.242  -0.232  -0.224  -0.190
 -0.175  -0.166  -0.163  -0.160  -0.153  -0.144  -0.143  -0.138
 -0.137

          Ground-State Mulliken Net Atomic Charges

     Atom                 Charge (a.u.)
  ----------------------------------------
      1 O                    -0.209376
      2 C                     0.208565
      3 C                    -0.079244
      4 C                    -0.079355
      5 C                     0.220336
      6 O                    -0.169433
      7 C                    -0.047678
      8 C                    -0.048594
      9 O                    -0.167342
     10 C                     0.216305
     11 C                    -0.079397
     12 C                    -0.083162
     13 C                     0.213380
     14 O                    -0.220248
     15 O                    -0.180762
     16 O                    -0.171777
     17 O                    -0.212536
     18 C                    -0.127373
     19 C                     0.014730
     20 C                    -0.143213
     21 C                    -0.143494
     22 C                     0.028391
     23 O                    -0.183614
     24 H                     0.087042
     25 H                     0.083455
     26 H                     0.115209
     27 H                     0.082326
     28 H                     0.072907
     29 H                     0.079275
     30 H                     0.072788
     31 H                     0.089159
     32 O                    -0.214170
     33 C                    -0.153455
     34 C                     0.023673
     35 C                    -0.144125
     36 C                    -0.144079
     37 C                     0.025682
     38 O                    -0.187962
     39 H                     0.082956
     40 H                     0.085713
     41 H                     0.122232
     42 H                     0.092245
     43 H                     0.077826
     44 H                     0.073028
     45 H                     0.077506
     46 H                     0.072926
     47 H                     0.081428
     48 H                     0.073598
     49 H                     0.078978
     50 H                     0.087032
     51 H                     0.091517
     52 H                     0.086745
     53 H                     0.086696
     54 H                     0.099747
     55 H                     0.090999
     56 H                     0.095996
  ----------------------------------------
  Sum of atomic charges =    -0.000000

                    Cartesian Multipole Moments
 -----------------------------------------------------------------
    Charge (ESU x 10^10)
                 0.0000
    Dipole Moment (Debye)
         X      -2.0672      Y       1.6148      Z      -0.7943
       Tot       2.7408
    Quadrupole Moments (Debye-Ang)
        XX    -156.1008     XY      -9.5978     YY    -156.3013
        XZ      -3.1642     YZ      -0.6287     ZZ    -152.8013

 Total job time:  145.87s(wall), 6965.47s(cpu)
        *  Thank you very much for using Q-Chem.  Have a nice day.  *
