 Q-Chem 5.0, Q-Chem, Inc., Pleasanton, CA (2017)
 Q-Chem 5.0.1 for Intel X86 EM64T Linux

User input:
--------------------------------------------------------------
$molecule
0  1
O 2.0698160031 -2.0776662518 0.4462864718
C 3.2239474523 -1.7599413003 0.0833296192
C 3.7636848217 -0.3276866305 -0.2386384798
C 2.8047209358 0.5107850048 -1.1898837649
C 1.5326176207 -0.313997165 -1.6140012317
O 0.398795567 0.1393336758 -0.8812299317
C -0.6967700413 -0.8723296913 -0.8984302498
C -1.5618283824 -0.6983378877 -2.1888121701
O -2.3855027296 0.5144862533 -2.4082197514
C -2.669656457 1.5560082483 -1.4783824595
C -2.7652980053 1.5486693544 0.1200781501
C -3.5968712609 0.4293342009 0.909742872
C -4.0205710177 -0.9040128741 0.1988304903
O -5.1755412564 -1.1685966495 -0.2072594764
O 4.299178559 -2.6941673034 -0.0680782612
O -2.9809891485 -1.8821223535 0.3005770515
O -3.0045523167 2.6330617505 -2.0382514216
C -3.4364914102 -3.1914514818 -0.2202233336
C -1.410707679 1.5586438885 0.971553625
C -1.6730349373 2.4265664168 2.258227839
C -2.6384578689 1.4779668598 3.0668952481
C -2.6508393018 0.1865399638 2.1553019638
O -1.3053832519 0.1910854177 1.5431312447
H -3.2775854841 2.5118209595 0.2898381817
H -4.5533032729 0.8810906535 1.231082214
H -0.492083213 1.779795426 0.3949988458
H -0.7284702006 2.5932850697 2.8009017106
H -2.1271972404 3.402525423 2.0239569734
H -2.2336664089 1.2412032003 4.0634163336
H -3.6475679707 1.9038827492 3.18755269
H -2.8279329797 -0.7682790694 2.6866175278
O 1.5156855967 -1.2617671932 -2.432301867
C 3.8248056044 -4.0631615727 0.2428928169
C 3.7707805886 0.6006228925 1.0567949152
C 4.6927160711 1.8473942972 0.7549217331
C 3.7692108745 2.6774896391 -0.2115449778
C 2.4841651375 1.75995531 -0.2716789972
O 2.4073802045 1.1738999525 1.0877208856
H 4.7756991532 -0.4276285551 -0.6681201285
H 3.3458858175 0.8074553231 -2.1065707681
H 3.0006710188 -4.3705630262 -0.4326854561
H 3.9894678201 0.0688335997 2.003227361
H 4.9079522446 2.4002039052 1.6834288628
H 5.6463534316 1.554466767 0.2878532492
H 3.5210039146 3.6634554779 0.2121837386
H 4.2179785282 2.8234946413 -1.2070387075
H 1.5432390018 2.2835978516 -0.5248126524
H 3.4693340533 -4.1444314674 1.2905556877
H 4.6945072978 -4.7291675141 0.0940617215
H -2.7671934909 -3.5034779189 -1.0454555742
H -4.4804062852 -3.0992218506 -0.5826146423
H -3.3804327443 -3.9376388442 0.5963465063
H -0.8834945936 -0.7410672418 -3.06914976
H -2.2526784746 -1.5679812817 -2.2598746966
H -0.2644287894 -1.8937413484 -0.9305324154
H -1.2241380809 -0.70411194 0.0693765051
$end

$rem
JOBTYPE                   OPT
METHOD                    B3LYP
DFT_D                     d3_op
BASIS                     STO-3G
GEOM_OPT_MAX_CYCLES       100
GEOM_OPT_TOL_GRADIENT     300
GEOM_OPT_TOL_DISPLACEMENT 1200
GEOM_OPT_TOL_ENERGY       100
SYMMETRY                  False
THRESH                    12
SCF_CONVERGENCE           8
MAX_SUB_FILE_NUM          128
MEM_STATIC                400
MEM_TOTAL                 4000
$end
--------------------------------------------------------------

   16   -1510.2482296709      7.64E-09 Convergence criterion met
 Total energy in the final basis set = -1510.24822967
   14   -1510.2466456637      8.11E-09 Convergence criterion met
 Total energy in the final basis set = -1510.24664566
   14   -1510.2509981940      3.33E-09 Convergence criterion met
 Total energy in the final basis set = -1510.25099819
   13   -1510.2554388198      7.05E-09 Convergence criterion met
 Total energy in the final basis set = -1510.25543882
   14   -1510.2556659361      6.05E-09 Convergence criterion met
 Total energy in the final basis set = -1510.25566594
   14   -1510.2602534824      4.72E-09 Convergence criterion met
 Total energy in the final basis set = -1510.26025348
   14   -1510.2630430316      5.77E-09 Convergence criterion met
 Total energy in the final basis set = -1510.26304303
   14   -1510.2650481037      6.06E-09 Convergence criterion met
   12   -1510.2991684041      1.93E-09 Convergence criterion met
 Total energy in the final basis set = -1510.29916840
   12   -1510.2992107992      1.81E-09 Convergence criterion met
 Total energy in the final basis set = -1510.29921080
   11   -1510.2992359590      9.03E-09 Convergence criterion met
 Total energy in the final basis set = -1510.29923596
   11   -1510.2992509711      5.38E-09 Convergence criterion met
 Total energy in the final basis set = -1510.29925097
   10   -1510.2992549492      8.19E-09 Convergence criterion met
 Total energy in the final basis set = -1510.29925495
    9   -1510.2992559972      7.17E-09 Convergence criterion met
 Total energy in the final basis set = -1510.29925600

             Standard Nuclear Orientation (Angstroms)
    I     Atom           X                Y                Z
 ----------------------------------------------------------------
    1      O       3.3506699926    -2.3034483247    -0.1497514048
    2      C       3.7604403650    -1.2369314111     0.3608247423
    3      C       3.8097125437     0.1734609680    -0.3208056117
    4      C       2.8936521257     0.2683149890    -1.6113555974
    5      C       2.0765706926    -1.0337737218    -1.9340182247
    6      O       1.0111924079    -1.1532848715    -0.9771909262
    7      C       0.1464083550    -2.3053307377    -1.3133521510
    8      C      -1.2341359767    -1.7676549519    -1.8328596532
    9      O      -1.8243442218    -0.8658873394    -0.8158423210
   10      C      -1.4754143969     0.4951745005    -1.0711481194
   11      C      -1.9615009005     1.3718855781     0.1262180874
   12      C      -3.3123612897     0.8949398161     0.8107571958
   13      C      -4.0632775014    -0.2329964961     0.0146055171
   14      O      -4.5842031160    -0.1107442302    -1.1173417869
   15      O       4.2871056780    -1.1347885347     1.6844441765
   16      O      -4.1460620201    -1.4239896911     0.8096163925
   17      O      -0.8370724860     0.8820883882    -2.0789734511
   18      C      -4.8406263899    -2.4917135800     0.0560048557
   19      C      -0.9378207134     1.2044801817     1.3370368650
   20      C      -1.2407633346     2.3333835348     2.3997219610
   21      C      -2.5444992416     1.7791047016     3.0848248101
   22      C      -2.7851914693     0.4627813997     2.2460868566
   23      O      -1.4139383758    -0.0342925476     1.9901474522
   24      H      -2.0197332179     2.4182213869    -0.2210376093
   25      H      -4.0091792534     1.7499846540     0.8884743485
   26      H       0.1308371512     1.1254995858     1.0166896595
   27      H      -0.4097593494     2.4172420405     3.1180774390
   28      H      -1.3952507988     3.3162333151     1.9263106013
   29      H      -2.3715564155     1.5335528741     4.1448539634
   30      H      -3.3934641453     2.4778841694     3.0179729150
   31      H      -3.3974828382    -0.3164659300     2.7377738286
   32      O       2.2336144776    -1.7958314386    -2.9130797638
   33      C       4.2421020956    -2.4578942686     2.3500721929
   34      C       3.1861559993     1.3170904811     0.5852442017
   35      C       3.6387558914     2.7132014173     0.0020971274
   36      C       2.7354245533     2.8159844534    -1.2836851034
   37      C       1.9274008024     1.4632622271    -1.2083753327
   38      O       1.7487602272     1.2599171945     0.2480643939
   39      H       4.8649923132     0.3973565411    -0.5643287417
   40      H       3.4954445150     0.5072521781    -2.5055462659
   41      H       4.8591809176    -3.2061097174     1.8118601310
   42      H       3.3449542263     1.1717211742     1.6714023139
   43      H       3.4154643067     3.5197888389     0.7185644081
   44      H       4.7154112628     2.7346422462    -0.2299413447
   45      H       2.0501323576     3.6765919945    -1.2274550849
   46      H       3.3242601465     2.8951769021    -2.2113828232
   47      H       0.9331096394     1.4460072427    -1.7126336690
   48      H       3.2037554472    -2.8414159346     2.4204130891
   49      H       4.6499109565    -2.3017829560     3.3656051105
   50      H      -4.1547891786    -3.3537360486    -0.0607268246
   51      H      -5.1393658615    -2.1000238989    -0.9380765419
   52      H      -5.7362159349    -2.8117426279     0.6240210461
   53      H      -1.0924601112    -1.2156484015    -2.7864193985
   54      H      -1.9474505478    -2.6047868948    -1.9751066201
   55      H       0.6400560409    -2.9181233347    -2.0995067460
   56      H       0.0019421818    -2.8998318947    -0.3880180536
 ----------------------------------------------------------------

    9   -1510.2992567521      5.18E-09 Convergence criterion met
 Total energy in the final basis set = -1510.29925675
 Final energy is   -1510.29925675214
 **  OPTIMIZATION CONVERGED  **

                    Orbital Energies (a.u.)
 --------------------------------------------------------------

 Alpha MOs
 -- Occupied --
-18.942 -18.937 -18.923 -18.920 -18.897 -18.884 -18.873 -18.873
-18.864 -18.859 -10.105 -10.100 -10.092 -10.092 -10.069 -10.068
-10.065 -10.061 -10.051 -10.050 -10.046 -10.041 -10.034 -10.033
-10.029 -10.028 -10.022 -10.019 -10.009 -10.007  -1.019  -1.014
 -1.000  -0.997  -0.975  -0.955  -0.942  -0.937  -0.925  -0.924
 -0.764  -0.753  -0.725  -0.717  -0.709  -0.698  -0.689  -0.665
 -0.650  -0.611  -0.593  -0.577  -0.547  -0.538  -0.533  -0.524
 -0.513  -0.502  -0.482  -0.480  -0.467  -0.456  -0.442  -0.434
 -0.434  -0.424  -0.418  -0.415  -0.415  -0.407  -0.402  -0.399
 -0.391  -0.379  -0.371  -0.367  -0.359  -0.355  -0.353  -0.347
 -0.342  -0.336  -0.335  -0.328  -0.324  -0.320  -0.312  -0.311
 -0.304  -0.301  -0.299  -0.294  -0.290  -0.286  -0.284  -0.275
 -0.263  -0.259  -0.244  -0.239  -0.236  -0.228  -0.216  -0.185
 -0.180  -0.164  -0.161  -0.158  -0.153  -0.150  -0.146  -0.144
 -0.130

          Ground-State Mulliken Net Atomic Charges

     Atom                 Charge (a.u.)
  ----------------------------------------
      1 O                    -0.207344
      2 C                     0.214989
      3 C                    -0.077862
      4 C                    -0.080558
      5 C                     0.217548
      6 O                    -0.174663
      7 C                    -0.053148
      8 C                    -0.050172
      9 O                    -0.164526
     10 C                     0.223492
     11 C                    -0.079700
     12 C                    -0.078741
     13 C                     0.216791
     14 O                    -0.227213
     15 O                    -0.169408
     16 O                    -0.169136
     17 O                    -0.223053
     18 C                    -0.135950
     19 C                     0.006651
     20 C                    -0.145288
     21 C                    -0.144605
     22 C                     0.024336
     23 O                    -0.191082
     24 H                     0.082784
     25 H                     0.081734
     26 H                     0.114919
     27 H                     0.074008
     28 H                     0.069477
     29 H                     0.074481
     30 H                     0.069821
     31 H                     0.088997
     32 O                    -0.218307
     33 C                    -0.127765
     34 C                     0.027710
     35 C                    -0.143807
     36 C                    -0.144820
     37 C                     0.016972
     38 O                    -0.192681
     39 H                     0.086439
     40 H                     0.084757
     41 H                     0.090259
     42 H                     0.090976
     43 H                     0.077573
     44 H                     0.073984
     45 H                     0.078032
     46 H                     0.074769
     47 H                     0.107538
     48 H                     0.093266
     49 H                     0.091973
     50 H                     0.082443
     51 H                     0.100897
     52 H                     0.082311
     53 H                     0.098493
     54 H                     0.088902
     55 H                     0.102489
     56 H                     0.090022
  ----------------------------------------
  Sum of atomic charges =     0.000000

                    Cartesian Multipole Moments
 -----------------------------------------------------------------
    Charge (ESU x 10^10)
                 0.0000
    Dipole Moment (Debye)
         X       1.3482      Y       0.8496      Z       2.0128
       Tot       2.5673
    Quadrupole Moments (Debye-Ang)
        XX    -148.6803     XY       6.2571     YY    -150.8250
        XZ       1.3365     YZ      -1.6036     ZZ    -163.8427

 Total job time:  170.69s(wall), 8147.97s(cpu)
        *  Thank you very much for using Q-Chem.  Have a nice day.  *
