 Q-Chem 5.0, Q-Chem, Inc., Pleasanton, CA (2017)
 Q-Chem 5.0.1 for Intel X86 EM64T Linux

User input:
--------------------------------------------------------------
$molecule
0  1
O -3.94934 -3.66094 2.70899
C -3.26408 -4.56952 2.26188
C -3.36658 -6.02376 2.66595
C -3.41669 -6.33291 4.1712
C -3.53792 -5.14515 5.09996
O -4.81525 -5.0563 5.57531
C -5.13348 -3.76142 6.09616
C -4.68946 -3.65659 7.55149
O -5.4646 -4.55089 8.36529
C -6.52521 -5.12905 7.74885
C -7.09437 -4.27986 6.63728
C -7.32123 -2.80514 7.00061
C -6.63237 -2.32158 8.26091
O -7.18006 -2.11949 9.33504
O -2.26979 -4.26399 1.38709
O -5.83163 -1.27113 7.89012
O -7.03962 -6.1421 8.21573
C -5.25337 -0.32584 8.72278
C -7.63011 -4.2616 5.13329
C -9.15127 -3.98079 4.99446
C -9.1972 -2.47411 5.29343
C -7.71444 -2.1909 5.60769
O -7.14132 -3.03569 4.63014
H -8.06256 -4.72953 6.93393
H -8.3237 -2.76314 7.4916
H -7.31698 -5.16475 4.57185
H -9.45454 -4.1298 3.93406
H -9.79761 -4.61525 5.63833
H -9.45095 -1.93873 4.35048
H -9.92219 -2.16426 6.07661
H -7.46633 -1.11151 5.52897
O -2.62527 -4.34467 5.27464
C -2.00402 -2.99154 0.92621
C -4.69511 -6.65139 2.19722
C -4.52431 -8.15974 2.03494
C -4.40554 -8.58319 3.48272
C -4.6732 -7.2445 4.1835
O -5.54435 -6.56967 3.31207
H -2.53464 -6.56287 2.15708
H -2.53297 -6.909 4.52365
H -1.74462 -2.32313 1.77494
H -5.0832 -6.20683 1.25427
H -5.48479 -8.55004 1.62758
H -3.69072 -8.48397 1.37552
H -5.214 -9.31621 3.69999
H -3.41967 -9.0046 3.7757
H -5.05323 -7.43616 5.2113
H -2.88746 -2.58817 0.38648
H -1.14455 -3.03026 0.226
H -4.15337 -0.33868 8.57911
H -5.46383 -0.51364 9.79706
H -5.6342 0.67997 8.45107
H -3.67356 -4.11358 7.5713
H -4.29949 -2.76196 8.05995
H -4.3251 -3.03666 5.84471
H -5.1119 -2.97009 5.32227
$end

$opt
CONSTRAINT
tors           1           2           3           4     -47.368
tors           3           4           5           6    +104.211
tors           4           5           6           7    -161.053
tors           5           6           7           8     -85.263
tors           6           7           8           9     -66.316
tors           7           8           9          10      -9.474
tors           8           9          10          11     -28.421
tors           9          10          11          12     -47.368
tors          11          12          13          14    -104.211
ENDCONSTRAINT
$end

$rem
JOBTYPE                   OPT
METHOD                    B3LYP
DFT_D                     d3_op
BASIS                     STO-3G
GEOM_OPT_MAX_CYCLES       100
GEOM_OPT_TOL_GRADIENT     300
GEOM_OPT_TOL_DISPLACEMENT 1200
GEOM_OPT_TOL_ENERGY       100
SYMMETRY                  False
THRESH                    12
SCF_CONVERGENCE           8
MAX_SUB_FILE_NUM          128
MEM_STATIC                400
MEM_TOTAL                 4000
$end
--------------------------------------------------------------

   15   -1509.7728442300      8.23E-09 Convergence criterion met
 Total energy in the final basis set = -1509.77284423
   14   -1509.8682619641      9.71E-09 Convergence criterion met
 Total energy in the final basis set = -1509.86826196
   14   -1509.9355818018      5.03E-09 Convergence criterion met
 Total energy in the final basis set = -1509.93558180
   14   -1509.9847140217      3.22E-09 Convergence criterion met
 Total energy in the final basis set = -1509.98471402
   13   -1510.0242807590      9.64E-09 Convergence criterion met
 Total energy in the final basis set = -1510.02428076
    2   -1510.0242807590      2.50E-09 Convergence criterion met
 Total energy in the final basis set = -1510.02428076
   13   -1510.0573738907      8.27E-09 Convergence criterion met
 Total energy in the final basis set = -1510.05737389
   13   -1510.0857589096      6.69E-09 Convergence criterion met
   11   -1510.2481663519      6.80E-09 Convergence criterion met
 Total energy in the final basis set = -1510.24816635
   10   -1510.2482003561      9.88E-09 Convergence criterion met
 Total energy in the final basis set = -1510.24820036
   11   -1510.2482294810      5.43E-09 Convergence criterion met
 Total energy in the final basis set = -1510.24822948
   10   -1510.2482313811      7.50E-09 Convergence criterion met
 Total energy in the final basis set = -1510.24823138
    9   -1510.2482335053      8.67E-09 Convergence criterion met
 Total energy in the final basis set = -1510.24823351
    9   -1510.2482345967      5.04E-09 Convergence criterion met
 Total energy in the final basis set = -1510.24823460

             Standard Nuclear Orientation (Angstroms)
    I     Atom           X                Y                Z
 ----------------------------------------------------------------
    1      O       2.0698160031    -2.0776662518     0.4462864718
    2      C       3.2239474523    -1.7599413003     0.0833296192
    3      C       3.7636848217    -0.3276866305    -0.2386384798
    4      C       2.8047209358     0.5107850048    -1.1898837649
    5      C       1.5326176207    -0.3139971650    -1.6140012317
    6      O       0.3987955670     0.1393336758    -0.8812299317
    7      C      -0.6967700413    -0.8723296913    -0.8984302498
    8      C      -1.5618283824    -0.6983378877    -2.1888121701
    9      O      -2.3855027296     0.5144862533    -2.4082197514
   10      C      -2.6696564570     1.5560082483    -1.4783824595
   11      C      -2.7652980053     1.5486693544     0.1200781501
   12      C      -3.5968712609     0.4293342009     0.9097428720
   13      C      -4.0205710177    -0.9040128741     0.1988304903
   14      O      -5.1755412564    -1.1685966495    -0.2072594764
   15      O       4.2991785590    -2.6941673034    -0.0680782612
   16      O      -2.9809891485    -1.8821223535     0.3005770515
   17      O      -3.0045523167     2.6330617505    -2.0382514216
   18      C      -3.4364914102    -3.1914514818    -0.2202233336
   19      C      -1.4107076790     1.5586438885     0.9715536250
   20      C      -1.6730349373     2.4265664168     2.2582278390
   21      C      -2.6384578689     1.4779668598     3.0668952481
   22      C      -2.6508393018     0.1865399638     2.1553019638
   23      O      -1.3053832519     0.1910854177     1.5431312447
   24      H      -3.2775854841     2.5118209595     0.2898381817
   25      H      -4.5533032729     0.8810906535     1.2310822140
   26      H      -0.4920832130     1.7797954260     0.3949988458
   27      H      -0.7284702006     2.5932850697     2.8009017106
   28      H      -2.1271972404     3.4025254230     2.0239569734
   29      H      -2.2336664089     1.2412032003     4.0634163336
   30      H      -3.6475679707     1.9038827492     3.1875526900
   31      H      -2.8279329797    -0.7682790694     2.6866175278
   32      O       1.5156855967    -1.2617671932    -2.4323018670
   33      C       3.8248056044    -4.0631615727     0.2428928169
   34      C       3.7707805886     0.6006228925     1.0567949152
   35      C       4.6927160711     1.8473942972     0.7549217331
   36      C       3.7692108745     2.6774896391    -0.2115449778
   37      C       2.4841651375     1.7599553100    -0.2716789972
   38      O       2.4073802045     1.1738999525     1.0877208856
   39      H       4.7756991532    -0.4276285551    -0.6681201285
   40      H       3.3458858175     0.8074553231    -2.1065707681
   41      H       3.0006710188    -4.3705630262    -0.4326854561
   42      H       3.9894678201     0.0688335997     2.0032273610
   43      H       4.9079522446     2.4002039052     1.6834288628
   44      H       5.6463534316     1.5544667670     0.2878532492
   45      H       3.5210039146     3.6634554779     0.2121837386
   46      H       4.2179785282     2.8234946413    -1.2070387075
   47      H       1.5432390018     2.2835978516    -0.5248126524
   48      H       3.4693340533    -4.1444314674     1.2905556877
   49      H       4.6945072978    -4.7291675141     0.0940617215
   50      H      -2.7671934909    -3.5034779189    -1.0454555742
   51      H      -4.4804062852    -3.0992218506    -0.5826146423
   52      H      -3.3804327443    -3.9376388442     0.5963465063
   53      H      -0.8834945936    -0.7410672418    -3.0691497600
   54      H      -2.2526784746    -1.5679812817    -2.2598746966
   55      H      -0.2644287894    -1.8937413484    -0.9305324154
   56      H      -1.2241380809    -0.7041119400     0.0693765051
 ----------------------------------------------------------------

    9   -1510.2482352441      3.29E-09 Convergence criterion met
 Total energy in the final basis set = -1510.24823524
 Final energy is   -1510.24823524414
 **  OPTIMIZATION CONVERGED  **

                    Orbital Energies (a.u.)
 --------------------------------------------------------------

 Alpha MOs
 -- Occupied --
-18.942 -18.935 -18.920 -18.918 -18.910 -18.888 -18.883 -18.873
-18.861 -18.857 -10.107 -10.097 -10.095 -10.091 -10.070 -10.065
-10.064 -10.064 -10.063 -10.061 -10.058 -10.045 -10.039 -10.038
-10.036 -10.034 -10.026 -10.024 -10.021 -10.019  -1.020  -1.011
 -1.001  -0.993  -0.984  -0.969  -0.943  -0.935  -0.926  -0.918
 -0.767  -0.762  -0.726  -0.723  -0.710  -0.709  -0.693  -0.666
 -0.663  -0.610  -0.600  -0.583  -0.550  -0.546  -0.544  -0.536
 -0.515  -0.508  -0.483  -0.480  -0.467  -0.455  -0.441  -0.439
 -0.436  -0.432  -0.428  -0.419  -0.412  -0.411  -0.407  -0.401
 -0.394  -0.381  -0.378  -0.369  -0.359  -0.357  -0.354  -0.350
 -0.345  -0.342  -0.335  -0.332  -0.330  -0.322  -0.316  -0.313
 -0.309  -0.307  -0.304  -0.301  -0.294  -0.286  -0.284  -0.280
 -0.272  -0.256  -0.254  -0.243  -0.235  -0.230  -0.218  -0.181
 -0.177  -0.168  -0.164  -0.159  -0.155  -0.152  -0.145  -0.140
 -0.134

          Ground-State Mulliken Net Atomic Charges

     Atom                 Charge (a.u.)
  ----------------------------------------
      1 O                    -0.212635
      2 C                     0.208155
      3 C                    -0.079680
      4 C                    -0.078850
      5 C                     0.209379
      6 O                    -0.178919
      7 C                    -0.074574
      8 C                    -0.051662
      9 O                    -0.177774
     10 C                     0.200956
     11 C                    -0.083069
     12 C                    -0.083494
     13 C                     0.206078
     14 O                    -0.209663
     15 O                    -0.168667
     16 O                    -0.170254
     17 O                    -0.205936
     18 C                    -0.136309
     19 C                     0.022791
     20 C                    -0.141721
     21 C                    -0.143724
     22 C                     0.026665
     23 O                    -0.176714
     24 H                     0.092009
     25 H                     0.088607
     26 H                     0.101889
     27 H                     0.083751
     28 H                     0.076985
     29 H                     0.080957
     30 H                     0.075580
     31 H                     0.088964
     32 O                    -0.224967
     33 C                    -0.128742
     34 C                     0.026071
     35 C                    -0.143584
     36 C                    -0.144468
     37 C                     0.025834
     38 O                    -0.186290
     39 H                     0.086646
     40 H                     0.082713
     41 H                     0.090832
     42 H                     0.082336
     43 H                     0.077412
     44 H                     0.074192
     45 H                     0.077147
     46 H                     0.073911
     47 H                     0.084879
     48 H                     0.088231
     49 H                     0.090314
     50 H                     0.086339
     51 H                     0.104849
     52 H                     0.088272
     53 H                     0.094609
     54 H                     0.080554
     55 H                     0.090736
     56 H                     0.133053
  ----------------------------------------
  Sum of atomic charges =     0.000000

                    Cartesian Multipole Moments
 -----------------------------------------------------------------
    Charge (ESU x 10^10)
                -0.0000
    Dipole Moment (Debye)
         X       2.2214      Y      -1.0830      Z       3.1325
       Tot       3.9900
    Quadrupole Moments (Debye-Ang)
        XX    -157.3407     XY       6.4165     YY    -150.7968
        XZ     -10.3628     YZ       4.7182     ZZ    -164.7639

 Total job time:  98.68s(wall), 4709.72s(cpu)
        *  Thank you very much for using Q-Chem.  Have a nice day.  *
