 Q-Chem 5.0, Q-Chem, Inc., Pleasanton, CA (2017)
 Q-Chem 5.0.1 for Intel X86 EM64T Linux

User input:
--------------------------------------------------------------
$molecule
0  1
O -3.94934 -3.66094 2.70899
C -3.26408 -4.56952 2.26188
C -3.36658 -6.02376 2.66595
C -3.85957 -6.32399 4.09097
C -4.36389 -5.14454 4.89263
O -3.7372 -4.00252 4.48219
C -4.4342 -2.81068 4.86029
C -3.494 -1.61117 4.80249
O -2.7642 -1.62053 3.56549
C -1.63531 -0.86921 3.54878
C -0.37606 -1.69711 3.64631
C 0.74237 -1.0766 4.49623
C 0.32937 0.07092 5.39586
O 0.75428 0.27572 6.52372
O -2.50464 -4.33486 1.15889
O -0.2528 1.13743 4.78886
O -1.64264 0.19986 2.9582
C -0.59658 2.31725 5.41778
C -0.47616 -3.08179 4.33181
C 0.65054 -3.98964 3.83952
C 1.84318 -3.35337 4.51756
C 1.13958 -2.28557 5.36093
O -0.10902 -2.85296 5.66925
H -0.04544 -1.8647 2.59641
H 1.57145 -0.68897 3.86406
H -1.42884 -3.60381 4.16827
H 0.48016 -4.99274 4.29348
H 0.7313 -4.10037 2.73667
H 2.32676 -4.11643 5.1672
H 2.59439 -2.90236 3.83343
H 1.77721 -2.00548 6.22767
O -5.04454 -5.23845 5.90679
C -2.4168 -3.12568 0.50288
C -4.43937 -6.73506 1.82553
C -4.19773 -8.2438 1.83422
C -4.62524 -8.58588 3.24432
C -5.07701 -7.20862 3.73933
O -5.60868 -6.59783 2.59005
H -2.36897 -6.48114 2.47778
H -3.13971 -6.88653 4.72521
H -2.0061 -2.34904 1.17484
H -4.49204 -6.36133 0.77893
H -4.91779 -8.70851 1.12332
H -3.16289 -8.54551 1.56371
H -5.5023 -9.26887 3.18831
H -3.83726 -9.03469 3.88697
H -5.78185 -7.33162 4.59115
H -3.41866 -2.81547 0.13686
H -1.73628 -3.23356 -0.36625
H -1.06045 3.00118 4.678
H 0.30714 2.80687 5.83936
H -1.32977 2.11677 6.22824
H -4.02701 -0.64865 4.95971
H -2.77066 -1.75207 5.63897
H -4.79564 -2.84774 5.91359
H -5.33503 -2.64633 4.22454
$end

$opt
CONSTRAINT
tors           1           2           3           4     -28.421
tors           3           4           5           6     -28.421
tors           4           5           6           7    +161.053
tors           5           6           7           8    +161.053
tors           6           7           8           9     +47.368
tors           7           8           9          10    -161.053
tors           8           9          10          11    +104.211
tors           9          10          11          12    -142.105
tors          11          12          13          14    +142.105
ENDCONSTRAINT
$end

$rem
JOBTYPE                   OPT
METHOD                    B3LYP
DFT_D                     d3_op
BASIS                     STO-3G
GEOM_OPT_MAX_CYCLES       100
GEOM_OPT_TOL_GRADIENT     300
GEOM_OPT_TOL_DISPLACEMENT 1200
GEOM_OPT_TOL_ENERGY       100
SYMMETRY                  False
THRESH                    12
SCF_CONVERGENCE           8
MAX_SUB_FILE_NUM          128
MEM_STATIC                400
MEM_TOTAL                 4000
$end
--------------------------------------------------------------

   16   -1510.0476572146      4.55E-09 Convergence criterion met
 Total energy in the final basis set = -1510.04765721
   14   -1510.1303540092      5.97E-09 Convergence criterion met
 Total energy in the final basis set = -1510.13035401
   14   -1510.1831229007      6.85E-09 Convergence criterion met
 Total energy in the final basis set = -1510.18312290
   14   -1510.2148085794      5.64E-09 Convergence criterion met
 Total energy in the final basis set = -1510.21480858
   14   -1510.2322131336      3.39E-09 Convergence criterion met
 Total energy in the final basis set = -1510.23221313
   14   -1510.2420330673      1.92E-09 Convergence criterion met
 Total energy in the final basis set = -1510.24203307
   14   -1510.2475913458      2.04E-09 Convergence criterion met
 Total energy in the final basis set = -1510.24759135
   13   -1510.2506676726      5.62E-09 Convergence criterion met
   11   -1510.2615416293      4.74E-09 Convergence criterion met
 Total energy in the final basis set = -1510.26154163
   10   -1510.2615465297      8.94E-09 Convergence criterion met
 Total energy in the final basis set = -1510.26154653
    9   -1510.2615494258      7.29E-09 Convergence criterion met
 Total energy in the final basis set = -1510.26154943
    9   -1510.2615517202      6.09E-09 Convergence criterion met
 Total energy in the final basis set = -1510.26155172
    9   -1510.2615540904      4.44E-09 Convergence criterion met
 Total energy in the final basis set = -1510.26155409
    9   -1510.2615553318      4.25E-09 Convergence criterion met
 Total energy in the final basis set = -1510.26155533

             Standard Nuclear Orientation (Angstroms)
    I     Atom           X                Y                Z
 ----------------------------------------------------------------
    1      O       2.5759149579    -1.8935009982    -1.2615452028
    2      C       2.3629610705    -0.6876813665    -1.5134417280
    3      C       2.9527170725     0.5724359222    -0.7796599527
    4      C       3.3025446531     0.3126196282     0.7389472111
    5      C       2.5340991398    -0.8662412188     1.4361235689
    6      O       1.2574374259    -1.0257265122     0.7997066790
    7      C       0.6725554803    -2.3623596189     1.0764090242
    8      C      -0.8512546877    -2.2163800299     0.7666874766
    9      O      -0.9074986974    -1.5330463248    -0.5516075420
   10      C      -2.2349508020    -0.9499815659    -0.7260634904
   11      C      -2.1792017563     0.6258625098    -0.5042135331
   12      C      -3.4381526278     1.2253737034     0.2460675618
   13      C      -4.8049512186     0.4585960594     0.1587777833
   14      O      -5.6425112188     0.3310153507     1.0790129800
   15      O       1.4703981485    -0.2235560375    -2.5297153548
   16      O      -5.0717269407     0.1601270746    -1.2142271218
   17      O      -3.2290592963    -1.6491299022    -0.9985701170
   18      C      -6.3802957605    -0.5196484162    -1.3434378554
   19      C      -1.0611120149     0.9120036199     0.5866669070
   20      C      -0.8861236432     2.4634502619     0.8170609786
   21      C      -2.1149095826     2.7935005907     1.7456218237
   22      C      -2.8720399565     1.4113619914     1.7180123856
   23      O      -1.7554140440     0.4402163146     1.8162682570
   24      H      -1.9921736873     1.1276450707    -1.4716942682
   25      H      -3.6482936544     2.2222015197    -0.1870175513
   26      H      -0.1225796208     0.3309105986     0.4433418656
   27      H       0.0712654943     2.6728340390     1.3198040024
   28      H      -0.9126872282     3.0239632815    -0.1313699470
   29      H      -1.7907367565     3.0332403457     2.7711659490
   30      H      -2.7324939869     3.6221220437     1.3639441033
   31      H      -3.6203881798     1.2432653816     2.5173536419
   32      O       2.9481132479    -1.5866505311     2.3682783575
   33      C       0.7037487298    -1.3712328906    -3.0764856539
   34      C       4.4241019856     0.7988588989    -1.3468922745
   35      C       5.0570497895     2.1091593329    -0.7273906792
   36      C       5.4923479265     1.6022816301     0.6990826910
   37      C       4.8824250556     0.1482631838     0.6874128558
   38      O       5.1638741103    -0.3083781388    -0.6934936712
   39      H       2.2844276833     1.4376336898    -0.9283840389
   40      H       3.0552723413     1.2247758782     1.3159813408
   41      H       0.0283413238    -1.7676199861    -2.2832989074
   42      H       4.5010513612     0.7185079743    -2.4488384226
   43      H       5.9213738684     2.4408137022    -1.3239596485
   44      H       4.3255336133     2.9320184089    -0.6800860297
   45      H       6.5895108197     1.5563611536     0.7903372469
   46      H       5.0928740287     2.2231767667     1.5166240790
   47      H       5.2938290018    -0.5612345241     1.4316631308
   48      H       1.3715660837    -2.1783350415    -3.4381546630
   49      H       0.1112487614    -0.9707646125    -3.9191258891
   50      H      -6.5786380413    -0.5975974760    -2.4281189750
   51      H      -7.1913110029     0.0560745605    -0.8525054426
   52      H      -6.3484336064    -1.5365106586    -0.9015278599
   53      H      -1.3454807437    -3.2143419610     0.7417942827
   54      H      -1.3368870977    -1.5748883577     1.5398821150
   55      H       0.8489619790    -2.6679092951     2.1300503638
   56      H       1.1494016388    -3.1010359615     0.3952923940
 ----------------------------------------------------------------

    9   -1510.2615559765      1.73E-09 Convergence criterion met
 Total energy in the final basis set = -1510.26155598
 Final energy is   -1510.26155597646
 **  OPTIMIZATION CONVERGED  **

                    Orbital Energies (a.u.)
 --------------------------------------------------------------

 Alpha MOs
 -- Occupied --
-18.935 -18.933 -18.921 -18.911 -18.903 -18.888 -18.887 -18.882
-18.874 -18.861 -10.112 -10.105 -10.100 -10.091 -10.073 -10.069
-10.061 -10.061 -10.060 -10.059 -10.049 -10.044 -10.040 -10.039
-10.038 -10.035 -10.022 -10.021 -10.021 -10.020  -1.018  -1.013
 -1.007  -0.999  -0.973  -0.970  -0.947  -0.935  -0.933  -0.923
 -0.765  -0.763  -0.726  -0.723  -0.712  -0.704  -0.697  -0.660
 -0.651  -0.609  -0.599  -0.578  -0.547  -0.545  -0.538  -0.535
 -0.514  -0.510  -0.489  -0.475  -0.461  -0.457  -0.452  -0.446
 -0.436  -0.432  -0.427  -0.413  -0.408  -0.407  -0.404  -0.402
 -0.392  -0.386  -0.372  -0.370  -0.360  -0.355  -0.352  -0.351
 -0.345  -0.342  -0.338  -0.332  -0.329  -0.325  -0.323  -0.314
 -0.313  -0.311  -0.306  -0.303  -0.292  -0.287  -0.284  -0.273
 -0.270  -0.256  -0.251  -0.247  -0.242  -0.236  -0.233  -0.182
 -0.177  -0.169  -0.160  -0.158  -0.155  -0.152  -0.146  -0.146
 -0.140

          Ground-State Mulliken Net Atomic Charges

     Atom                 Charge (a.u.)
  ----------------------------------------
      1 O                    -0.219564
      2 C                     0.216896
      3 C                    -0.077693
      4 C                    -0.079923
      5 C                     0.217751
      6 O                    -0.174389
      7 C                    -0.046198
      8 C                    -0.053113
      9 O                    -0.200188
     10 C                     0.224607
     11 C                    -0.077502
     12 C                    -0.082560
     13 C                     0.209331
     14 O                    -0.215464
     15 O                    -0.175802
     16 O                    -0.165094
     17 O                    -0.176135
     18 C                    -0.126856
     19 C                     0.008948
     20 C                    -0.146764
     21 C                    -0.141425
     22 C                     0.022109
     23 O                    -0.201233
     24 H                     0.088547
     25 H                     0.084536
     26 H                     0.109447
     27 H                     0.074727
     28 H                     0.072827
     29 H                     0.077626
     30 H                     0.073382
     31 H                     0.090291
     32 O                    -0.207371
     33 C                    -0.140429
     34 C                     0.024379
     35 C                    -0.145422
     36 C                    -0.141845
     37 C                     0.025109
     38 O                    -0.187841
     39 H                     0.085079
     40 H                     0.081851
     41 H                     0.103566
     42 H                     0.082763
     43 H                     0.078244
     44 H                     0.072793
     45 H                     0.078539
     46 H                     0.072955
     47 H                     0.090934
     48 H                     0.085576
     49 H                     0.081547
     50 H                     0.090354
     51 H                     0.089293
     52 H                     0.090833
     53 H                     0.081925
     54 H                     0.101078
     55 H                     0.097129
     56 H                     0.097838
  ----------------------------------------
  Sum of atomic charges =    -0.000000

                    Cartesian Multipole Moments
 -----------------------------------------------------------------
    Charge (ESU x 10^10)
                 0.0000
    Dipole Moment (Debye)
         X      -0.8607      Y       3.2122      Z      -0.7010
       Tot       3.3986
    Quadrupole Moments (Debye-Ang)
        XX    -165.7328     XY       8.5641     YY    -155.0579
        XZ       5.3519     YZ       0.2945     ZZ    -161.6998

 Total job time:  129.49s(wall), 6180.64s(cpu)
        *  Thank you very much for using Q-Chem.  Have a nice day.  *
