 Q-Chem 5.0, Q-Chem, Inc., Pleasanton, CA (2017)
 Q-Chem 5.0.1 for Intel X86 EM64T Linux

User input:
--------------------------------------------------------------
$molecule
0  1
O 2.5759149579 -1.8935009982 -1.2615452028
C 2.3629610705 -0.6876813665 -1.513441728
C 2.9527170725 0.5724359222 -0.7796599527
C 3.3025446531 0.3126196282 0.7389472111
C 2.5340991398 -0.8662412188 1.4361235689
O 1.2574374259 -1.0257265122 0.799706679
C 0.6725554803 -2.3623596189 1.0764090242
C -0.8512546877 -2.2163800299 0.7666874766
O -0.9074986974 -1.5330463248 -0.551607542
C -2.234950802 -0.9499815659 -0.7260634904
C -2.1792017563 0.6258625098 -0.5042135331
C -3.4381526278 1.2253737034 0.2460675618
C -4.8049512186 0.4585960594 0.1587777833
O -5.6425112188 0.3310153507 1.07901298
O 1.4703981485 -0.2235560375 -2.5297153548
O -5.0717269407 0.1601270746 -1.2142271218
O -3.2290592963 -1.6491299022 -0.998570117
C -6.3802957605 -0.5196484162 -1.3434378554
C -1.0611120149 0.9120036199 0.586666907
C -0.8861236432 2.4634502619 0.8170609786
C -2.1149095826 2.7935005907 1.7456218237
C -2.8720399565 1.4113619914 1.7180123856
O -1.755414044 0.4402163146 1.816268257
H -1.9921736873 1.1276450707 -1.4716942682
H -3.6482936544 2.2222015197 -0.1870175513
H -0.1225796208 0.3309105986 0.4433418656
H 0.0712654943 2.672834039 1.3198040024
H -0.9126872282 3.0239632815 -0.131369947
H -1.7907367565 3.0332403457 2.771165949
H -2.7324939869 3.6221220437 1.3639441033
H -3.6203881798 1.2432653816 2.5173536419
O 2.9481132479 -1.5866505311 2.3682783575
C 0.7037487298 -1.3712328906 -3.0764856539
C 4.4241019856 0.7988588989 -1.3468922745
C 5.0570497895 2.1091593329 -0.7273906792
C 5.4923479265 1.6022816301 0.699082691
C 4.8824250556 0.1482631838 0.6874128558
O 5.1638741103 -0.3083781388 -0.6934936712
H 2.2844276833 1.4376336898 -0.9283840389
H 3.0552723413 1.2247758782 1.3159813408
H 0.0283413238 -1.7676199861 -2.2832989074
H 4.5010513612 0.7185079743 -2.4488384226
H 5.9213738684 2.4408137022 -1.3239596485
H 4.3255336133 2.9320184089 -0.6800860297
H 6.5895108197 1.5563611536 0.7903372469
H 5.0928740287 2.2231767667 1.516624079
H 5.2938290018 -0.5612345241 1.4316631308
H 1.3715660837 -2.1783350415 -3.438154663
H 0.1112487614 -0.9707646125 -3.9191258891
H -6.5786380413 -0.597597476 -2.428118975
H -7.1913110029 0.0560745605 -0.8525054426
H -6.3484336064 -1.5365106586 -0.9015278599
H -1.3454807437 -3.214341961 0.7417942827
H -1.3368870977 -1.5748883577 1.539882115
H 0.848961979 -2.6679092951 2.1300503638
H 1.1494016388 -3.1010359615 0.395292394
$end

$rem
JOBTYPE                   OPT
METHOD                    B3LYP
DFT_D                     d3_op
BASIS                     STO-3G
GEOM_OPT_MAX_CYCLES       100
GEOM_OPT_TOL_GRADIENT     300
GEOM_OPT_TOL_DISPLACEMENT 1200
GEOM_OPT_TOL_ENERGY       100
SYMMETRY                  False
THRESH                    12
SCF_CONVERGENCE           8
MAX_SUB_FILE_NUM          128
MEM_STATIC                400
MEM_TOTAL                 4000
$end
--------------------------------------------------------------

   16   -1510.2615533576      5.53E-09 Convergence criterion met
 Total energy in the final basis set = -1510.26155336
   15   -1510.2657414583      2.87E-09 Convergence criterion met
 Total energy in the final basis set = -1510.26574146
   15   -1510.2640575404      5.47E-09 Convergence criterion met
 Total energy in the final basis set = -1510.26405754
   13   -1510.2701160859      4.57E-09 Convergence criterion met
 Total energy in the final basis set = -1510.27011609
   14   -1510.2715934027      5.18E-09 Convergence criterion met
 Total energy in the final basis set = -1510.27159340
   13   -1510.2749274740      3.20E-09 Convergence criterion met
 Total energy in the final basis set = -1510.27492747
   13   -1510.2782318926      3.75E-09 Convergence criterion met
 Total energy in the final basis set = -1510.27823189
   13   -1510.2811023390      2.88E-09 Convergence criterion met
   11   -1510.3089205973      6.65E-09 Convergence criterion met
 Total energy in the final basis set = -1510.30892060
   11   -1510.3089380119      5.56E-09 Convergence criterion met
 Total energy in the final basis set = -1510.30893801
   10   -1510.3089472218      9.24E-09 Convergence criterion met
 Total energy in the final basis set = -1510.30894722
   11   -1510.3089585515      2.60E-09 Convergence criterion met
 Total energy in the final basis set = -1510.30895855
   11   -1510.3089651925      1.95E-09 Convergence criterion met
 Total energy in the final basis set = -1510.30896519
   10   -1510.3089678519      4.34E-09 Convergence criterion met
 Total energy in the final basis set = -1510.30896785

             Standard Nuclear Orientation (Angstroms)
    I     Atom           X                Y                Z
 ----------------------------------------------------------------
    1      O      -3.3984387076     1.7880758674    -0.5968951773
    2      C      -2.4733875978     1.0226588363    -0.9436077007
    3      C      -2.0902451310    -0.3663794799    -0.3341447332
    4      C      -1.4210277153    -0.2843384445     1.1030667099
    5      C      -1.0879141631     1.1540554545     1.6020119492
    6      O      -0.7181230472     1.9354736325     0.4474144576
    7      C      -0.2249104541     3.2745822622     0.8226703353
    8      C       1.3526563671     3.2489179337     0.7911193743
    9      O       1.8107923770     2.3925408616    -0.3334791696
   10      C       1.8343615607     1.0260671742     0.0844971342
   11      C       2.1533894666     0.1119022501    -1.1402038686
   12      C       2.4615070029    -1.3838540851    -0.7183285805
   13      C       2.0528301881    -1.7070395792     0.7697969474
   14      O       0.9262715054    -2.0744428409     1.1829885951
   15      O      -1.6323168118     1.2811353902    -2.0974122930
   16      O       3.2285385146    -1.6735654925     1.5822280467
   17      O       1.6838279673     0.6461252279     1.2705605361
   18      C       2.8613495559    -1.9083171163     2.9977751889
   19      C       0.9346195744    -0.0966890443    -2.1526506012
   20      C       1.5570181854    -0.5380844807    -3.5323504200
   21      C       2.0461249157    -1.9967892002    -3.1915058472
   22      C       1.5131168614    -2.1694705744    -1.7130605622
   23      O       0.2870192886    -1.3431671947    -1.6883225715
   24      H       3.0108181488     0.5571794069    -1.6759847792
   25      H       3.5293663724    -1.6307163310    -0.8512612125
   26      H       0.1557246703     0.7028319333    -2.1785097319
   27      H       0.7799227791    -0.5484623415    -4.3135199051
   28      H       2.3772168848     0.1218769494    -3.8568725173
   29      H       1.5887815836    -2.7453824052    -3.8574926644
   30      H       3.1418698014    -2.0993344281    -3.2462266491
   31      H       1.2870645537    -3.2088020907    -1.4055521615
   32      O      -1.0859110766     1.6019227452     2.7668549961
   33      C      -1.9462495475     2.6046960849    -2.6760982643
   34      C      -3.3870417353    -1.2123974171     0.0123779940
   35      C      -2.9410312135    -2.7015279086     0.3044059309
   36      C      -2.3410592518    -2.5667916180     1.7537157097
   37      C      -2.5031087582    -1.0166523070     1.9983242877
   38      O      -3.7906505147    -0.6947243717     1.3399012718
   39      H      -1.3955799047    -0.8924928550    -1.0210808320
   40      H      -0.4717680845    -0.8730135768     1.0956142859
   41      H      -1.0696090867     3.2730159394    -2.5624180548
   42      H      -4.2174411132    -1.1024826126    -0.7118744466
   43      H      -3.8105230896    -3.3776764802     0.2845804799
   44      H      -2.1974721981    -3.0551647977    -0.4275471430
   45      H      -2.9269105613    -3.1408072560     2.4891714362
   46      H      -1.2850571308    -2.8786411972     1.8049876600
   47      H      -2.5123619416    -0.6917796622     3.0570784787
   48      H      -2.8208926639     3.0300868943    -2.1420776783
   49      H      -2.1754149331     2.4817106469    -3.7525113945
   50      H       3.8079174757    -1.8842777805     3.5681048262
   51      H       2.3673393229    -2.8919533223     3.1338852801
   52      H       2.1805809388    -1.1145227996     3.3676119921
   53      H       1.7594976852     4.2624181303     0.6050219313
   54      H       1.7427800053     2.8483828148     1.7502712806
   55      H      -0.5847294623     3.5451785605     1.8388995536
   56      H      -0.6199106184     3.9860499861     0.0700496132
 ----------------------------------------------------------------

    9   -1510.3089679096      7.95E-09 Convergence criterion met
 Total energy in the final basis set = -1510.30896791
 Final energy is   -1510.30896790957
 **  OPTIMIZATION CONVERGED  **

                    Orbital Energies (a.u.)
 --------------------------------------------------------------

 Alpha MOs
 -- Occupied --
-18.947 -18.934 -18.930 -18.921 -18.895 -18.887 -18.875 -18.870
-18.867 -18.861 -10.112 -10.103 -10.096 -10.088 -10.078 -10.074
-10.065 -10.061 -10.051 -10.051 -10.043 -10.041 -10.040 -10.039
-10.023 -10.020 -10.010 -10.008 -10.002  -9.998  -1.028  -1.010
 -1.006  -0.996  -0.976  -0.951  -0.949  -0.935  -0.933  -0.923
 -0.767  -0.746  -0.727  -0.718  -0.705  -0.698  -0.685  -0.662
 -0.651  -0.620  -0.593  -0.574  -0.548  -0.542  -0.529  -0.521
 -0.514  -0.496  -0.488  -0.470  -0.466  -0.457  -0.447  -0.443
 -0.432  -0.427  -0.418  -0.413  -0.411  -0.407  -0.405  -0.401
 -0.392  -0.383  -0.376  -0.365  -0.357  -0.356  -0.351  -0.344
 -0.339  -0.338  -0.336  -0.331  -0.327  -0.316  -0.313  -0.310
 -0.308  -0.306  -0.297  -0.290  -0.286  -0.282  -0.275  -0.268
 -0.261  -0.258  -0.252  -0.240  -0.234  -0.233  -0.214  -0.193
 -0.175  -0.170  -0.166  -0.162  -0.155  -0.152  -0.150  -0.141
 -0.125

          Ground-State Mulliken Net Atomic Charges

     Atom                 Charge (a.u.)
  ----------------------------------------
      1 O                    -0.219336
      2 C                     0.217508
      3 C                    -0.093973
      4 C                    -0.093172
      5 C                     0.217483
      6 O                    -0.179356
      7 C                    -0.053018
      8 C                    -0.053471
      9 O                    -0.167126
     10 C                     0.218805
     11 C                    -0.081145
     12 C                    -0.080834
     13 C                     0.223263
     14 O                    -0.226189
     15 O                    -0.176730
     16 O                    -0.169054
     17 O                    -0.215470
     18 C                    -0.128114
     19 C                     0.013446
     20 C                    -0.143097
     21 C                    -0.144930
     22 C                     0.027649
     23 O                    -0.192872
     24 H                     0.087180
     25 H                     0.086218
     26 H                     0.114651
     27 H                     0.078786
     28 H                     0.072813
     29 H                     0.078231
     30 H                     0.073446
     31 H                     0.084965
     32 O                    -0.210918
     33 C                    -0.137715
     34 C                     0.024656
     35 C                    -0.143835
     36 C                    -0.145705
     37 C                     0.023514
     38 O                    -0.192409
     39 H                     0.110809
     40 H                     0.113875
     41 H                     0.078847
     42 H                     0.078284
     43 H                     0.072260
     44 H                     0.075082
     45 H                     0.071491
     46 H                     0.084394
     47 H                     0.083870
     48 H                     0.102156
     49 H                     0.081983
     50 H                     0.089101
     51 H                     0.088409
     52 H                     0.095795
     53 H                     0.090933
     54 H                     0.098226
     55 H                     0.102739
     56 H                     0.087602
  ----------------------------------------
  Sum of atomic charges =    -0.000000

                    Cartesian Multipole Moments
 -----------------------------------------------------------------
    Charge (ESU x 10^10)
                -0.0000
    Dipole Moment (Debye)
         X       4.2858      Y       0.1782      Z      -2.4022
       Tot       4.9163
    Quadrupole Moments (Debye-Ang)
        XX    -167.3507     XY       2.1533     YY    -147.5966
        XZ       4.7837     YZ      -2.0356     ZZ    -155.9354

 Total job time:  238.79s(wall), 11395.04s(cpu)
        *  Thank you very much for using Q-Chem.  Have a nice day.  *
