 Q-Chem 5.0, Q-Chem, Inc., Pleasanton, CA (2017)
 Q-Chem 5.0.1 for Intel X86 EM64T Linux

User input:
--------------------------------------------------------------
$molecule
0  1
O 2.934727887 -2.1150736316 -0.1807824582
C 3.8909225598 -1.3448595478 0.0568819547
C 4.1564059787 0.0632578446 -0.5877617529
C 2.8549350916 0.8289528743 -1.0520777883
C 1.5436764282 0.3581508297 -0.3216691639
O 0.3456458649 0.7401208773 -1.0531354952
C -0.2349216331 -0.4320760641 -1.7504762485
C -0.3941414337 -1.7683894862 -0.9028691229
O -1.7862339671 -2.0438194086 -0.4835418185
C -2.0283315569 -1.3073003054 0.7686619348
C -2.479380759 0.2017263146 0.6481735718
C -3.2794298501 0.648891042 -0.6322445823
C -4.1609281746 -0.4797988678 -1.2799449422
O -4.8808832573 -0.3635575878 -2.2975046823
O 4.9607037103 -1.6517721845 0.9536668514
O -4.239812016 -1.5843309757 -0.3728813854
O -1.9286749049 -1.891897682 1.8660311411
C -5.1078779001 -2.6530100158 -0.9129832725
C -3.4024399645 0.7355557192 1.8241926979
C -3.0238242368 2.2506069477 2.0419557705
C -3.562008393 2.8725106505 0.6983253059
C -4.3211920431 1.6385114984 0.0613964294
O -4.7562770506 0.832207976 1.2273063185
H -1.5250731053 0.7680878951 0.6539052584
H -2.6596951428 1.1505068312 -1.3934004519
H -3.4083100726 0.0936218234 2.7265369266
H -3.5584200274 2.6587419731 2.9149423562
H -1.9415973476 2.4009060514 2.183249389
H -4.260064383 3.7042074274 0.8824398014
H -2.7497681302 3.231032038 0.0455140539
H -5.1873977807 1.8977490299 -0.5785304008
O 1.4829605549 -0.1188557415 0.8317516564
C 4.7446765763 -2.9873920449 1.5576754549
C 4.8535570766 1.1501528272 0.3409915883
C 5.6237979071 2.1464704286 -0.6089032086
C 4.4168277437 2.8882492266 -1.2950740341
C 3.1888211777 2.2872256191 -0.5012286396
O 3.7329094247 1.9809443635 0.8421201853
H 4.7968897006 -0.1270389008 -1.4707769117
H 2.7027251658 0.8059186398 -2.1449002798
H 4.7591351081 -3.7886182527 0.7905192351
H 5.4384729296 0.7263238464 1.179632956
H 6.2365681905 2.8436240986 -0.0149755988
H 6.275753474 1.6268070925 -1.3290051066
H 4.4730007485 3.9790007247 -1.1525968414
H 4.3479376552 2.6770244585 -2.3743949823
H 2.3083109249 2.954570127 -0.423176497
H 3.778691708 -3.0360800729 2.1001468793
H 5.578841593 -3.1392289387 2.2670287182
H -4.4835963322 -3.5265100802 -1.1885235341
H -5.6452081941 -2.2736397057 -1.8057360369
H -5.8261655909 -2.9472522672 -0.1239276913
H -0.1162808905 -2.6156432278 -1.5629266269
H 0.3177134571 -1.7539154991 -0.0480554578
H 0.3963719451 -0.6711697801 -2.6377957514
H -1.2247219064 -0.1077559275 -2.1247960807
$end

$rem
JOBTYPE                   OPT
METHOD                    B3LYP
DFT_D                     d3_op
BASIS                     STO-3G
GEOM_OPT_MAX_CYCLES       100
GEOM_OPT_TOL_GRADIENT     300
GEOM_OPT_TOL_DISPLACEMENT 1200
GEOM_OPT_TOL_ENERGY       100
SYMMETRY                  False
THRESH                    12
SCF_CONVERGENCE           8
MAX_SUB_FILE_NUM          128
MEM_STATIC                400
MEM_TOTAL                 4000
$end
--------------------------------------------------------------

   16   -1510.2362272177      5.80E-09 Convergence criterion met
 Total energy in the final basis set = -1510.23622722
   14   -1510.2405386820      3.38E-09 Convergence criterion met
 Total energy in the final basis set = -1510.24053868
   13   -1510.2442871046      9.02E-09 Convergence criterion met
 Total energy in the final basis set = -1510.24428710
   14   -1510.2473689957      3.64E-09 Convergence criterion met
 Total energy in the final basis set = -1510.24736900
   14   -1510.2502239855      5.65E-09 Convergence criterion met
 Total energy in the final basis set = -1510.25022399
   14   -1510.2527770660      6.90E-09 Convergence criterion met
 Total energy in the final basis set = -1510.25277707
   13   -1510.2553754169      8.51E-09 Convergence criterion met
 Total energy in the final basis set = -1510.25537542
   14   -1510.2583403469      6.96E-09 Convergence criterion met
   10   -1510.2946512789      7.69E-09 Convergence criterion met
 Total energy in the final basis set = -1510.29465128
   10   -1510.2946509637      8.41E-09 Convergence criterion met
 Total energy in the final basis set = -1510.29465096
   10   -1510.2946522426      5.08E-09 Convergence criterion met
 Total energy in the final basis set = -1510.29465224
    9   -1510.2946512534      9.22E-09 Convergence criterion met
 Total energy in the final basis set = -1510.29465125
   10   -1510.2946466132      6.55E-09 Convergence criterion met
 Total energy in the final basis set = -1510.29464661
    9   -1510.2946452663      5.36E-09 Convergence criterion met
 Total energy in the final basis set = -1510.29464527

             Standard Nuclear Orientation (Angstroms)
    I     Atom           X                Y                Z
 ----------------------------------------------------------------
    1      O       5.3703806445    -1.9687863663    -1.4036319247
    2      C       4.8360536761    -1.4053975255    -0.4229355191
    3      C       4.1928666049     0.0310054832    -0.4128365025
    4      C       2.6482713530     0.0339527449    -0.7673877830
    5      C       2.0481893668    -1.3790206691    -1.0486455264
    6      O       0.7924317631    -1.1902982478    -1.7169603098
    7      C       0.0756188847    -2.4779866514    -1.8745526912
    8      C      -1.2004159142    -2.4497991272    -0.9554349300
    9      O      -1.9277651869    -1.1777032654    -1.1825270083
   10      C      -1.4675437657    -0.1808133567    -0.2600108688
   11      C      -2.0359251054     1.2091898623    -0.7084965816
   12      C      -3.6171622278     1.2594668805    -0.8098958057
   13      C      -4.3090877841    -0.0695575389    -0.3640084250
   14      O      -5.2385745510    -0.6746768634    -0.9406538543
   15      O       4.7835549033    -1.9600024343     0.8951557551
   16      O      -3.7111756763    -0.4861612238     0.8722679625
   17      O      -0.6977291769    -0.4124404925     0.7003855883
   18      C      -4.2755108081    -1.7802955784     1.3173294608
   19      C      -1.7558006416     2.3314989937     0.3740764524
   20      C      -1.9268280279     3.7377894355    -0.3211837893
   21      C      -3.4921079091     3.8082521709    -0.4727968013
   22      C      -3.9292167460     2.4480916716     0.2036863153
   23      O      -2.9292309702     2.2479283153     1.2746393861
   24      H      -1.5754319511     1.4596443615    -1.6819342201
   25      H      -3.9570362207     1.4925257183    -1.8339182625
   26      H      -0.8189644591     2.1833903825     0.9451211830
   27      H      -1.5480484247     4.5393734301     0.3327296954
   28      H      -1.4010289712     3.7914789939    -1.2879673500
   29      H      -3.9145732773     4.6641256970     0.0771326637
   30      H      -3.8152234144     3.8696039071    -1.5243544717
   31      H      -4.9548895235     2.4376630587     0.6211050989
   32      O       2.5198854015    -2.4987419810    -0.7500445740
   33      C       5.2869959416    -3.3508205733     0.8713491605
   34      C       4.1610205773     0.6901881963     1.0294029468
   35      C       3.8471931599     2.2328813149     0.8709013762
   36      C       2.3056821361     2.2012491395     0.5533947309
   37      C       2.0244353872     0.6485428456     0.5677059342
   38      O       2.9214893297     0.1430178489     1.6271528882
   39      H       4.7527557143     0.6489169783    -1.1372594725
   40      H       2.4280584175     0.6772632775    -1.6377722027
   41      H       6.3308665486    -3.4055689162     0.4993364523
   42      H       5.0365435595     0.4490441154     1.6619736420
   43      H       4.0552423124     2.7656200149     1.8124358010
   44      H       4.4391056648     2.6965190233     0.0654910441
   45      H       1.7219416187     2.7050374693     1.3405086694
   46      H       2.0587338360     2.6606094754    -0.4170181621
   47      H       0.9679855576     0.3401114169     0.7543086590
   48      H       4.6482840723    -3.9938636071     0.2317891572
   49      H       5.2456415322    -3.7090070321     1.9164306929
   50      H      -3.4800296064    -2.5511897964     1.2881630496
   51      H      -5.1095672011    -2.0718536266     0.6471784062
   52      H      -4.6377477496    -1.6683832111     2.3574805512
   53      H      -1.8899056261    -3.2758785293    -1.2223660770
   54      H      -0.9012897928    -2.5238061797     0.1117270202
   55      H       0.7522467536    -3.3135184252    -1.5895638873
   56      H      -0.2202378098    -2.5697473313    -2.9398078911
 ----------------------------------------------------------------

    9   -1510.2946453356      6.65E-09 Convergence criterion met
 Total energy in the final basis set = -1510.29464534
 Final energy is   -1510.29464533561
 **  OPTIMIZATION CONVERGED  **

                    Orbital Energies (a.u.)
 --------------------------------------------------------------

 Alpha MOs
 -- Occupied --
-18.939 -18.937 -18.936 -18.920 -18.892 -18.886 -18.885 -18.881
-18.878 -18.855 -10.112 -10.104 -10.104 -10.086 -10.078 -10.074
-10.065 -10.062 -10.061 -10.051 -10.050 -10.044 -10.042 -10.041
-10.034 -10.029 -10.024 -10.023 -10.014 -10.013  -1.026  -1.016
 -1.009  -0.995  -0.974  -0.961  -0.947  -0.940  -0.939  -0.920
 -0.769  -0.757  -0.731  -0.721  -0.713  -0.706  -0.695  -0.661
 -0.648  -0.621  -0.600  -0.580  -0.550  -0.542  -0.537  -0.531
 -0.515  -0.506  -0.490  -0.477  -0.474  -0.457  -0.449  -0.441
 -0.437  -0.428  -0.426  -0.419  -0.415  -0.408  -0.402  -0.399
 -0.398  -0.381  -0.375  -0.369  -0.365  -0.361  -0.351  -0.350
 -0.348  -0.340  -0.336  -0.333  -0.330  -0.321  -0.317  -0.313
 -0.311  -0.306  -0.301  -0.298  -0.296  -0.289  -0.278  -0.273
 -0.271  -0.257  -0.251  -0.248  -0.239  -0.238  -0.224  -0.193
 -0.177  -0.173  -0.165  -0.161  -0.160  -0.158  -0.148  -0.138
 -0.134

          Ground-State Mulliken Net Atomic Charges

     Atom                 Charge (a.u.)
  ----------------------------------------
      1 O                    -0.222620
      2 C                     0.212038
      3 C                    -0.081153
      4 C                    -0.080134
      5 C                     0.215805
      6 O                    -0.177473
      7 C                    -0.055858
      8 C                    -0.053347
      9 O                    -0.174009
     10 C                     0.229833
     11 C                    -0.077753
     12 C                    -0.078119
     13 C                     0.214439
     14 O                    -0.212276
     15 O                    -0.165998
     16 O                    -0.167533
     17 O                    -0.215155
     18 C                    -0.134759
     19 C                     0.024696
     20 C                    -0.143768
     21 C                    -0.143886
     22 C                     0.026337
     23 O                    -0.184876
     24 H                     0.087362
     25 H                     0.087018
     26 H                     0.090194
     27 H                     0.078752
     28 H                     0.073062
     29 H                     0.078986
     30 H                     0.074391
     31 H                     0.083724
     32 O                    -0.208962
     33 C                    -0.126604
     34 C                     0.026558
     35 C                    -0.144810
     36 C                    -0.145227
     37 C                     0.009914
     38 O                    -0.187283
     39 H                     0.081517
     40 H                     0.083635
     41 H                     0.085234
     42 H                     0.085844
     43 H                     0.076316
     44 H                     0.071103
     45 H                     0.074746
     46 H                     0.068890
     47 H                     0.104942
     48 H                     0.092212
     49 H                     0.087759
     50 H                     0.083938
     51 H                     0.101364
     52 H                     0.089425
     53 H                     0.090447
     54 H                     0.099847
     55 H                     0.103456
     56 H                     0.087820
  ----------------------------------------
  Sum of atomic charges =     0.000000

                    Cartesian Multipole Moments
 -----------------------------------------------------------------
    Charge (ESU x 10^10)
                -0.0000
    Dipole Moment (Debye)
         X      -1.3319      Y       1.4294      Z      -1.2996
       Tot       2.3465
    Quadrupole Moments (Debye-Ang)
        XX    -166.4865     XY       4.9479     YY    -146.4944
        XZ       2.1265     YZ      -5.9196     ZZ    -165.1337

 Total job time:  153.87s(wall), 7341.88s(cpu)
        *  Thank you very much for using Q-Chem.  Have a nice day.  *
