 Q-Chem 5.0, Q-Chem, Inc., Pleasanton, CA (2017)
 Q-Chem 5.0.1 for Intel X86 EM64T Linux

User input:
--------------------------------------------------------------
$molecule
0  1
O -3.94934 -3.66094 2.70899
C -3.26408 -4.56952 2.26188
C -3.36658 -6.02376 2.66595
C -4.73745 -6.52338 3.15068
C -5.89497 -5.55994 3.00924
O -6.91778 -5.93966 3.83088
C -7.03046 -5.12552 5.00294
C -6.96744 -3.64915 4.62546
O -8.28149 -3.07237 4.68455
C -9.03363 -3.21928 3.56569
C -9.77571 -4.5339 3.52401
C -10.12554 -5.12361 4.89811
C -10.01197 -4.17345 6.07327
O -10.24716 -4.45665 7.23905
O -2.19234 -4.2412 1.49186
O -10.38122 -2.88261 5.79376
O -9.44672 -2.23051 2.97918
C -10.50288 -1.83316 6.68905
C -11.17567 -4.45528 2.87578
C -11.59763 -5.84065 2.38636
C -11.87041 -6.5329 3.70427
C -11.63517 -5.37248 4.67751
O -12.04648 -4.23781 3.95478
H -9.1519 -5.2202 2.91312
H -9.64272 -6.09435 5.13104
H -11.23956 -3.72727 2.03829
H -12.56227 -5.72144 1.84265
H -10.86443 -6.35012 1.72467
H -12.93998 -6.83969 3.7238
H -11.22096 -7.40675 3.92767
H -12.17698 -5.56 5.63133
O -6.14763 -5.02301 1.93881
C -1.89484 -2.96052 1.07488
C -3.18737 -6.96023 1.44181
C -2.74297 -8.3481 1.90436
C -4.02549 -8.86367 2.51876
C -4.97011 -7.70333 2.19303
O -4.48978 -7.20178 0.97263
H -2.52977 -6.22506 3.37134
H -4.68974 -6.85069 4.21373
H -1.72279 -2.30121 1.95233
H -2.46664 -6.57976 0.68608
H -2.52626 -8.94609 0.98998
H -1.85393 -8.36473 2.57076
H -4.33484 -9.78147 1.97079
H -3.98151 -9.06903 3.61031
H -6.02725 -8.0506 2.19681
H -2.72672 -2.55703 0.45864
H -0.97263 -2.98365 0.45888
H -9.83602 -1.0069 6.36731
H -10.22331 -2.11699 7.72596
H -11.55061 -1.46877 6.68371
H -6.45361 -3.17175 5.4884
H -6.37198 -3.29248 3.7614
H -6.08207 -5.31871 5.55693
H -7.76238 -5.43688 5.75546
$end

$opt
CONSTRAINT
tors           1           2           3           4     +28.421
tors           3           4           5           6    -161.053
tors           4           5           6           7    +104.211
tors           5           6           7           8     +47.368
tors           6           7           8           9    +104.211
tors           7           8           9          10     -85.263
tors           8           9          10          11     +85.263
tors           9          10          11          12     +28.421
tors          11          12          13          14    -180.000
ENDCONSTRAINT
$end

$rem
JOBTYPE                   OPT
METHOD                    B3LYP
DFT_D                     d3_op
BASIS                     STO-3G
GEOM_OPT_MAX_CYCLES       100
GEOM_OPT_TOL_GRADIENT     300
GEOM_OPT_TOL_DISPLACEMENT 1200
GEOM_OPT_TOL_ENERGY       100
SYMMETRY                  False
THRESH                    12
SCF_CONVERGENCE           8
MAX_SUB_FILE_NUM          128
MEM_STATIC                400
MEM_TOTAL                 4000
$end
--------------------------------------------------------------

   15   -1510.0549027358      7.45E-09 Convergence criterion met
 Total energy in the final basis set = -1510.05490274
   14   -1510.1344974501      8.08E-09 Convergence criterion met
 Total energy in the final basis set = -1510.13449745
   14   -1510.1800240592      7.40E-09 Convergence criterion met
 Total energy in the final basis set = -1510.18002406
   14   -1510.2048806489      5.99E-09 Convergence criterion met
 Total energy in the final basis set = -1510.20488065
   14   -1510.2176124819      5.31E-09 Convergence criterion met
 Total energy in the final basis set = -1510.21761248
   14   -1510.2249939764      3.17E-09 Convergence criterion met
 Total energy in the final basis set = -1510.22499398
   13   -1510.2296619485      3.19E-09 Convergence criterion met
 Total energy in the final basis set = -1510.22966195
   13   -1510.2327759014      3.24E-09 Convergence criterion met
   10   -1510.2360951962      6.60E-09 Convergence criterion met
 Total energy in the final basis set = -1510.23609520
    9   -1510.2360965476      7.96E-09 Convergence criterion met
 Total energy in the final basis set = -1510.23609655
    9   -1510.2360976995      5.23E-09 Convergence criterion met
 Total energy in the final basis set = -1510.23609770
    9   -1510.2360996894      5.63E-09 Convergence criterion met
 Total energy in the final basis set = -1510.23609969
    9   -1510.2361015501      7.16E-09 Convergence criterion met
 Total energy in the final basis set = -1510.23610155
    9   -1510.2361032845      7.12E-09 Convergence criterion met
 Total energy in the final basis set = -1510.23610328

             Standard Nuclear Orientation (Angstroms)
    I     Atom           X                Y                Z
 ----------------------------------------------------------------
    1      O       2.9347278870    -2.1150736316    -0.1807824582
    2      C       3.8909225598    -1.3448595478     0.0568819547
    3      C       4.1564059787     0.0632578446    -0.5877617529
    4      C       2.8549350916     0.8289528743    -1.0520777883
    5      C       1.5436764282     0.3581508297    -0.3216691639
    6      O       0.3456458649     0.7401208773    -1.0531354952
    7      C      -0.2349216331    -0.4320760641    -1.7504762485
    8      C      -0.3941414337    -1.7683894862    -0.9028691229
    9      O      -1.7862339671    -2.0438194086    -0.4835418185
   10      C      -2.0283315569    -1.3073003054     0.7686619348
   11      C      -2.4793807590     0.2017263146     0.6481735718
   12      C      -3.2794298501     0.6488910420    -0.6322445823
   13      C      -4.1609281746    -0.4797988678    -1.2799449422
   14      O      -4.8808832573    -0.3635575878    -2.2975046823
   15      O       4.9607037103    -1.6517721845     0.9536668514
   16      O      -4.2398120160    -1.5843309757    -0.3728813854
   17      O      -1.9286749049    -1.8918976820     1.8660311411
   18      C      -5.1078779001    -2.6530100158    -0.9129832725
   19      C      -3.4024399645     0.7355557192     1.8241926979
   20      C      -3.0238242368     2.2506069477     2.0419557705
   21      C      -3.5620083930     2.8725106505     0.6983253059
   22      C      -4.3211920431     1.6385114984     0.0613964294
   23      O      -4.7562770506     0.8322079760     1.2273063185
   24      H      -1.5250731053     0.7680878951     0.6539052584
   25      H      -2.6596951428     1.1505068312    -1.3934004519
   26      H      -3.4083100726     0.0936218234     2.7265369266
   27      H      -3.5584200274     2.6587419731     2.9149423562
   28      H      -1.9415973476     2.4009060514     2.1832493890
   29      H      -4.2600643830     3.7042074274     0.8824398014
   30      H      -2.7497681302     3.2310320380     0.0455140539
   31      H      -5.1873977807     1.8977490299    -0.5785304008
   32      O       1.4829605549    -0.1188557415     0.8317516564
   33      C       4.7446765763    -2.9873920449     1.5576754549
   34      C       4.8535570766     1.1501528272     0.3409915883
   35      C       5.6237979071     2.1464704286    -0.6089032086
   36      C       4.4168277437     2.8882492266    -1.2950740341
   37      C       3.1888211777     2.2872256191    -0.5012286396
   38      O       3.7329094247     1.9809443635     0.8421201853
   39      H       4.7968897006    -0.1270389008    -1.4707769117
   40      H       2.7027251658     0.8059186398    -2.1449002798
   41      H       4.7591351081    -3.7886182527     0.7905192351
   42      H       5.4384729296     0.7263238464     1.1796329560
   43      H       6.2365681905     2.8436240986    -0.0149755988
   44      H       6.2757534740     1.6268070925    -1.3290051066
   45      H       4.4730007485     3.9790007247    -1.1525968414
   46      H       4.3479376552     2.6770244585    -2.3743949823
   47      H       2.3083109249     2.9545701270    -0.4231764970
   48      H       3.7786917080    -3.0360800729     2.1001468793
   49      H       5.5788415930    -3.1392289387     2.2670287182
   50      H      -4.4835963322    -3.5265100802    -1.1885235341
   51      H      -5.6452081941    -2.2736397057    -1.8057360369
   52      H      -5.8261655909    -2.9472522672    -0.1239276913
   53      H      -0.1162808905    -2.6156432278    -1.5629266269
   54      H       0.3177134571    -1.7539154991    -0.0480554578
   55      H       0.3963719451    -0.6711697801    -2.6377957514
   56      H      -1.2247219064    -0.1077559275    -2.1247960807
 ----------------------------------------------------------------

   10   -1510.2361039612      3.79E-09 Convergence criterion met
 Total energy in the final basis set = -1510.23610396
 Final energy is   -1510.23610396121
 **  OPTIMIZATION CONVERGED  **

                    Orbital Energies (a.u.)
 --------------------------------------------------------------

 Alpha MOs
 -- Occupied --
-18.941 -18.932 -18.908 -18.905 -18.894 -18.891 -18.887 -18.882
-18.878 -18.869 -10.113 -10.106 -10.097 -10.095 -10.069 -10.068
-10.067 -10.065 -10.057 -10.057 -10.053 -10.052 -10.045 -10.044
-10.036 -10.027 -10.027 -10.025 -10.017 -10.014  -1.019  -1.011
 -1.008  -0.991  -0.977  -0.966  -0.944  -0.938  -0.931  -0.922
 -0.769  -0.758  -0.728  -0.719  -0.715  -0.698  -0.693  -0.665
 -0.653  -0.612  -0.596  -0.586  -0.552  -0.544  -0.539  -0.533
 -0.519  -0.505  -0.478  -0.474  -0.466  -0.463  -0.454  -0.440
 -0.438  -0.427  -0.418  -0.414  -0.413  -0.408  -0.405  -0.400
 -0.394  -0.381  -0.377  -0.373  -0.362  -0.360  -0.354  -0.350
 -0.347  -0.337  -0.336  -0.333  -0.326  -0.323  -0.319  -0.313
 -0.312  -0.308  -0.304  -0.299  -0.298  -0.294  -0.288  -0.281
 -0.266  -0.259  -0.248  -0.244  -0.240  -0.230  -0.227  -0.182
 -0.174  -0.168  -0.166  -0.156  -0.154  -0.150  -0.145  -0.142
 -0.136

          Ground-State Mulliken Net Atomic Charges

     Atom                 Charge (a.u.)
  ----------------------------------------
      1 O                    -0.218235
      2 C                     0.213322
      3 C                    -0.080595
      4 C                    -0.080750
      5 C                     0.224459
      6 O                    -0.204135
      7 C                    -0.056438
      8 C                    -0.062460
      9 O                    -0.190352
     10 C                     0.228921
     11 C                    -0.085258
     12 C                    -0.078222
     13 C                     0.214069
     14 O                    -0.219505
     15 O                    -0.169716
     16 O                    -0.162354
     17 O                    -0.185269
     18 C                    -0.132439
     19 C                     0.024691
     20 C                    -0.141287
     21 C                    -0.145460
     22 C                     0.024347
     23 O                    -0.191243
     24 H                     0.088933
     25 H                     0.085231
     26 H                     0.091569
     27 H                     0.077294
     28 H                     0.075501
     29 H                     0.077578
     30 H                     0.073955
     31 H                     0.084171
     32 O                    -0.178822
     33 C                    -0.127837
     34 C                     0.024589
     35 C                    -0.142174
     36 C                    -0.144642
     37 C                     0.025129
     38 O                    -0.188195
     39 H                     0.083916
     40 H                     0.083695
     41 H                     0.088464
     42 H                     0.093950
     43 H                     0.079381
     44 H                     0.074102
     45 H                     0.079713
     46 H                     0.074315
     47 H                     0.084798
     48 H                     0.094953
     49 H                     0.091642
     50 H                     0.088674
     51 H                     0.100718
     52 H                     0.089181
     53 H                     0.086201
     54 H                     0.095661
     55 H                     0.072482
     56 H                     0.089783
  ----------------------------------------
  Sum of atomic charges =    -0.000000

                    Cartesian Multipole Moments
 -----------------------------------------------------------------
    Charge (ESU x 10^10)
                -0.0000
    Dipole Moment (Debye)
         X       4.0099      Y       1.2984      Z      -2.4193
       Tot       4.8598
    Quadrupole Moments (Debye-Ang)
        XX    -154.0683     XY      -3.6290     YY    -154.1554
        XZ      -5.5272     YZ       0.0171     ZZ    -162.4686

 Total job time:  74.98s(wall), 3571.67s(cpu)
        *  Thank you very much for using Q-Chem.  Have a nice day.  *
