 Q-Chem 5.0, Q-Chem, Inc., Pleasanton, CA (2017)
 Q-Chem 5.0.1 for Intel X86 EM64T Linux

User input:
--------------------------------------------------------------
$molecule
0  1
O -3.8105702302 -2.0956655059 1.1281778538
C -3.9119138735 -1.5499333695 0.0060087557
C -4.5074680577 -0.1295475645 -0.298022269
C -3.9760686684 1.0289352393 0.6457757962
C -2.8270727452 0.6544547012 1.6473228775
O -1.7767815116 -0.0790136072 0.9850358605
C -1.2518775457 -1.138768558 1.8841942254
C 0.3032412069 -1.2341131049 1.6793741757
O 0.5710700792 -0.8067666608 0.2911558058
C 2.0123149647 -0.8768635584 0.0456430672
C 2.7400138928 0.435470902 0.5145000067
C 4.3020988625 0.3370940941 0.7447425744
C 4.9956513751 -0.9377363754 0.1387897839
O 5.6761345836 -1.7758949397 0.77163483
O -3.534773837 -2.1810902785 -1.2196649251
O 4.8911322116 -0.9024624985 -1.2869060608
O 2.521381371 -1.8586458831 -0.5307782463
C 5.5323604019 -2.1023526981 -1.8689948738
C 2.6422882054 1.6436386833 -0.5246510933
C 2.76429846 2.9771761977 0.3110436365
C 4.2837568836 2.9263668905 0.7216899555
C 4.7732383767 1.6336912093 -0.0488150871
O 3.9221886045 1.598991508 -1.2618097297
H 2.2482707146 0.7407851239 1.4545169524
H 4.5567498415 0.3797995463 1.8180541808
H 1.7815596364 1.5903257562 -1.219418106
H 2.54849056 3.8488729847 -0.3275225031
H 2.0843364709 2.9947645948 1.1775035412
H 4.8299095665 3.815846281 0.3702803019
H 4.4246751425 2.8331157161 1.8104537688
H 5.8440595547 1.6329022346 -0.3301457265
O -2.8293667188 0.9087449777 2.8722899559
C -2.9574754241 -3.5191056556 -0.9553422866
C -4.135944489 0.4419225939 -1.7326761359
C -5.1790469928 1.5708433347 -2.0932574477
C -4.7008593827 2.7353792804 -1.1494480195
C -3.4526437238 2.0660341259 -0.447808917
O -2.8827797208 1.1934694426 -1.4961091209
H -5.6055078809 -0.2149856023 -0.188518595
H -4.7930692398 1.4632496683 1.2482074018
H -3.5924899109 -4.10985808 -0.2646421875
H -3.9835581159 -0.3404264933 -2.4999171247
H -5.0910369689 1.8502307949 -3.1552393757
H -6.2169342663 1.2592798769 -1.8948184615
H -4.3896027681 3.6218166753 -1.7246156563
H -5.4706603625 3.0389030146 -0.4218867671
H -2.6882503699 2.7747365366 -0.0739998079
H -1.9399755978 -3.435964912 -0.5211968217
H -2.8949129758 -4.0251382454 -1.9362493964
H 5.5268294712 -1.9495374406 -2.9637792029
H 4.959874197 -3.0196897453 -1.6212451443
H 6.5749835116 -2.2257430395 -1.5114639898
H 0.8198760034 -0.5734243025 2.412831399
H 0.6415735147 -2.2796017828 1.8655078759
H -1.7595155186 -2.089407068 1.6117323819
H -1.4848874371 -0.8979318606 2.9430901737
$end

$rem
JOBTYPE                   OPT
METHOD                    B3LYP
DFT_D                     d3_op
BASIS                     STO-3G
GEOM_OPT_MAX_CYCLES       100
GEOM_OPT_TOL_GRADIENT     300
GEOM_OPT_TOL_DISPLACEMENT 1200
GEOM_OPT_TOL_ENERGY       100
SYMMETRY                  False
THRESH                    12
SCF_CONVERGENCE           8
MAX_SUB_FILE_NUM          128
MEM_STATIC                400
MEM_TOTAL                 4000
$end
--------------------------------------------------------------

   16   -1510.2486190314      5.77E-09 Convergence criterion met
 Total energy in the final basis set = -1510.24861903
   15   -1510.2537206066      3.26E-09 Convergence criterion met
 Total energy in the final basis set = -1510.25372061
   15   -1510.2576395854      2.65E-09 Convergence criterion met
 Total energy in the final basis set = -1510.25763959
   15   -1510.2607403539      2.31E-09 Convergence criterion met
 Total energy in the final basis set = -1510.26074035
   15   -1510.2639381890      2.48E-09 Convergence criterion met
 Total energy in the final basis set = -1510.26393819
   15   -1510.2567339978      3.13E-09 Convergence criterion met
 Total energy in the final basis set = -1510.25673400
   15   -1510.2663966230      3.31E-09 Convergence criterion met
 Total energy in the final basis set = -1510.26639662
   14   -1510.2660410815      6.40E-09 Convergence criterion met
   10   -1510.3049130094      7.26E-09 Convergence criterion met
 Total energy in the final basis set = -1510.30491301
   10   -1510.3049138593      9.77E-09 Convergence criterion met
 Total energy in the final basis set = -1510.30491386
   11   -1510.3049154526      3.03E-09 Convergence criterion met
 Total energy in the final basis set = -1510.30491545
   11   -1510.3049170461      2.99E-09 Convergence criterion met
 Total energy in the final basis set = -1510.30491705
    9   -1510.3049178402      7.28E-09 Convergence criterion met
 Total energy in the final basis set = -1510.30491784
    9   -1510.3049182877      3.01E-09 Convergence criterion met
 Total energy in the final basis set = -1510.30491829

             Standard Nuclear Orientation (Angstroms)
    I     Atom           X                Y                Z
 ----------------------------------------------------------------
    1      O      -3.3306580013    -2.0456566952    -1.0518852667
    2      C      -2.9901730865    -0.8432892067    -1.1214763663
    3      C      -3.6416933635     0.3576469137    -0.3327236944
    4      C      -3.1589189058     0.4262591206     1.1815369036
    5      C      -2.3692737902    -0.8136638394     1.7041923887
    6      O      -1.3063932559    -1.1182821982     0.7914118572
    7      C      -0.5355615237    -2.2881060684     1.2739379553
    8      C       0.6717348523    -1.7941773763     2.1492609437
    9      O       1.5112857640    -0.9103027400     1.3141914015
   10      C       1.1169766450     0.4598241785     1.4377035352
   11      C       1.7506717864     1.2432839723     0.2422928361
   12      C       3.1349473429     0.6586794303    -0.2703175728
   13      C       3.8150952327    -0.3415771401     0.7344797055
   14      O       4.1923594708    -0.0728468788     1.8972577856
   15      O      -1.9488087402    -0.3362628957    -1.9512379749
   16      O       4.0249416111    -1.6085340799     0.0945163570
   17      O       0.3373421997     0.8926975977     2.3169617238
   18      C       4.6506340413    -2.5599346391     1.0396778766
   19      C       0.8290242033     0.9742474039    -1.0286109659
   20      C       1.2910569750     1.9150399995    -2.2090571807
   21      C       2.5913632150     1.1877072830    -2.7127881158
   22      C       2.7026968219     0.0197357416    -1.6599452878
   23      O       1.2887602659    -0.3717066400    -1.4439235200
   24      H       1.8098454963     2.3142849141     0.5021097595
   25      H       3.8484309303     1.4878421089    -0.4316715491
   26      H      -0.2684268400     1.0129949873    -0.8081719723
   27      H       0.5160417245     1.9525905444    -2.9911555924
   28      H       1.4866618842     2.9416767680    -1.8606728347
   29      H       2.4582301864     0.7780566730    -3.7269436297
   30      H       3.4792518385     1.8396502684    -2.7084307177
   31      H       3.3074266435    -0.8558451559    -1.9628525764
   32      O      -2.5905872534    -1.4545812215     2.7548360164
   33      C      -1.1666706153    -1.4307417309    -2.5768452281
   34      C      -3.1313811784     1.7595453910    -0.8558766973
   35      C      -3.9465344691     2.9185334785    -0.1519316373
   36      C      -3.2620206056     2.9743089843     1.2670624854
   37      C      -2.2726940355     1.7538480261     1.1636112361
   38      O      -1.7915580198     1.8544114069    -0.2324767557
   39      H      -4.7406993602     0.2560891710    -0.3858014299
   40      H      -4.0240788003     0.5515307015     1.8559622340
   41      H      -1.5126403874    -2.4085428740    -2.1885881866
   42      H      -3.0529464091     1.8370494095    -1.9567860060
   43      H      -3.8237809428     3.8659630776    -0.7002698540
   44      H      -5.0212002157     2.6826100076    -0.0926281667
   45      H      -2.7015139593     3.9128219353     1.4057414643
   46      H      -3.9807774294     2.8636086662     2.0942279932
   47      H      -1.3975853851     1.7327281657     1.8514124209
   48      H      -0.0976561754    -1.2371084773    -2.3160747014
   49      H      -1.3125067921    -1.3967993382    -3.6746332866
   50      H       5.6040680224    -2.9228714354     0.6082651529
   51      H       3.9681380271    -3.4194309758     1.1910018235
   52      H       4.8383859462    -2.0455749041     2.0044846650
   53      H       0.3001233276    -1.2469217788     3.0418179646
   54      H       1.3027211352    -2.6515130112     2.4591480123
   55      H      -0.1608023529    -2.8057811916     0.3682637124
   56      H      -1.1858950093    -2.9634830706     1.8703388570
 ----------------------------------------------------------------

    9   -1510.3049176113      2.89E-09 Convergence criterion met
 Total energy in the final basis set = -1510.30491761
 Final energy is   -1510.30491761128
 **  OPTIMIZATION CONVERGED  **

                    Orbital Energies (a.u.)
 --------------------------------------------------------------

 Alpha MOs
 -- Occupied --
-18.938 -18.936 -18.927 -18.919 -18.897 -18.888 -18.879 -18.878
-18.864 -18.858 -10.104 -10.101 -10.097 -10.091 -10.075 -10.072
-10.062 -10.055 -10.055 -10.054 -10.038 -10.037 -10.036 -10.035
-10.033 -10.031 -10.021 -10.020 -10.015 -10.011  -1.022  -1.011
 -1.003  -0.997  -0.975  -0.967  -0.943  -0.936  -0.929  -0.923
 -0.764  -0.760  -0.728  -0.720  -0.710  -0.702  -0.695  -0.654
 -0.644  -0.616  -0.595  -0.582  -0.545  -0.541  -0.538  -0.529
 -0.511  -0.506  -0.489  -0.474  -0.469  -0.461  -0.441  -0.435
 -0.433  -0.426  -0.423  -0.419  -0.407  -0.406  -0.403  -0.398
 -0.389  -0.376  -0.374  -0.365  -0.360  -0.358  -0.353  -0.346
 -0.343  -0.339  -0.338  -0.330  -0.326  -0.320  -0.316  -0.307
 -0.304  -0.303  -0.300  -0.299  -0.295  -0.292  -0.288  -0.273
 -0.268  -0.249  -0.245  -0.243  -0.239  -0.232  -0.223  -0.190
 -0.171  -0.166  -0.162  -0.159  -0.156  -0.150  -0.149  -0.143
 -0.140

          Ground-State Mulliken Net Atomic Charges

     Atom                 Charge (a.u.)
  ----------------------------------------
      1 O                    -0.225456
      2 C                     0.212869
      3 C                    -0.078441
      4 C                    -0.081655
      5 C                     0.212014
      6 O                    -0.172260
      7 C                    -0.050164
      8 C                    -0.049961
      9 O                    -0.168610
     10 C                     0.222893
     11 C                    -0.078374
     12 C                    -0.077994
     13 C                     0.218081
     14 O                    -0.225258
     15 O                    -0.173993
     16 O                    -0.171363
     17 O                    -0.220413
     18 C                    -0.135937
     19 C                     0.009795
     20 C                    -0.145128
     21 C                    -0.144550
     22 C                     0.025376
     23 O                    -0.193037
     24 H                     0.085576
     25 H                     0.083143
     26 H                     0.123111
     27 H                     0.077451
     28 H                     0.072396
     29 H                     0.075476
     30 H                     0.072001
     31 H                     0.092244
     32 O                    -0.211781
     33 C                    -0.150065
     34 C                     0.028071
     35 C                    -0.145016
     36 C                    -0.142335
     37 C                     0.017195
     38 O                    -0.189809
     39 H                     0.084261
     40 H                     0.086078
     41 H                     0.089733
     42 H                     0.090105
     43 H                     0.077647
     44 H                     0.074099
     45 H                     0.078581
     46 H                     0.075467
     47 H                     0.105196
     48 H                     0.113787
     49 H                     0.073563
     50 H                     0.083203
     51 H                     0.082044
     52 H                     0.101812
     53 H                     0.101121
     54 H                     0.090667
     55 H                     0.096779
     56 H                     0.099765
  ----------------------------------------
  Sum of atomic charges =     0.000000

                    Cartesian Multipole Moments
 -----------------------------------------------------------------
    Charge (ESU x 10^10)
                 0.0000
    Dipole Moment (Debye)
         X       0.5482      Y       1.0397      Z      -1.4736
       Tot       1.8849
    Quadrupole Moments (Debye-Ang)
        XX    -154.5976     XY     -12.3202     YY    -153.7050
        XZ      -2.4893     YZ      -4.4654     ZZ    -163.9474

 Total job time:  299.17s(wall), 14254.04s(cpu)
        *  Thank you very much for using Q-Chem.  Have a nice day.  *
