 Q-Chem 5.0, Q-Chem, Inc., Pleasanton, CA (2017)
 Q-Chem 5.0.1 for Intel X86 EM64T Linux

User input:
--------------------------------------------------------------
$molecule
0  1
O -3.94934 -3.66094 2.70899
C -3.26408 -4.56952 2.26188
C -3.36658 -6.02376 2.66595
C -4.77372 -6.64113 2.71769
C -5.90468 -5.78727 2.1886
O -5.55781 -5.255 0.97956
C -6.02339 -3.91319 0.80057
C -6.47206 -3.70047 -0.64151
O -5.73803 -4.57184 -1.51603
C -6.04993 -4.47473 -2.83225
C -7.23379 -5.32802 -3.22088
C -7.91166 -4.93207 -4.54072
C -7.11867 -4.00345 -5.43824
O -7.49962 -2.91585 -5.84636
O -2.37956 -4.27374 1.27033
O -5.91131 -4.45984 -5.87789
O -5.59244 -3.53384 -3.46031
C -5.07916 -3.76987 -6.73465
C -6.88875 -6.80176 -3.50855
C -8.13243 -7.6659 -3.30148
C -8.97945 -7.23328 -4.48471
C -7.98835 -6.31555 -5.21238
O -6.72842 -6.86695 -4.90491
H -7.97593 -5.29438 -2.39494
H -8.90549 -4.46015 -4.37357
H -6.04179 -7.18257 -2.89701
H -7.81706 -8.72267 -3.45759
H -8.62436 -7.5771 -2.30898
H -9.2144 -8.1334 -5.09481
H -9.91452 -6.69051 -4.2263
H -8.23825 -6.24008 -6.29378
O -6.90033 -5.48777 2.83517
C -2.1072 -3.00438 0.80298
C -2.66151 -7.00983 1.7101
C -2.36247 -8.32546 2.4333
C -3.74642 -8.93533 2.4967
C -4.56154 -7.85298 1.7879
O -3.67518 -7.37012 0.8052
H -2.90148 -6.06667 3.67585
H -5.06312 -6.97406 3.73995
H -1.71726 -2.37014 1.62738
H -1.7224 -6.61384 1.26809
H -1.73035 -8.95759 1.76958
H -1.85484 -8.19303 3.41301
H -3.75353 -9.85701 1.87245
H -4.11844 -9.17074 3.51715
H -5.52089 -8.27566 1.41516
H -3.01682 -2.5405 0.37115
H -1.33628 -3.06938 0.00814
H -4.16798 -4.37428 -6.92119
H -4.77967 -2.80137 -6.28024
H -5.59276 -3.58839 -7.70289
H -7.54108 -3.99623 -0.67669
H -6.40147 -2.62809 -0.93447
H -5.1369 -3.26402 0.82455
H -6.74281 -3.50241 1.54466
$end

$opt
CONSTRAINT
tors           1           2           3           4     +47.368
tors           3           4           5           6     +47.368
tors           4           5           6           7    -142.105
tors           5           6           7           8    -142.105
tors           6           7           8           9     -28.421
tors           7           8           9          10    -180.000
tors           8           9          10          11     -85.263
tors           9          10          11          12    +161.053
tors          11          12          13          14    -123.158
ENDCONSTRAINT
$end

$rem
JOBTYPE                   OPT
METHOD                    B3LYP
DFT_D                     d3_op
BASIS                     STO-3G
GEOM_OPT_MAX_CYCLES       100
GEOM_OPT_TOL_GRADIENT     300
GEOM_OPT_TOL_DISPLACEMENT 1200
GEOM_OPT_TOL_ENERGY       100
SYMMETRY                  False
THRESH                    12
SCF_CONVERGENCE           8
MAX_SUB_FILE_NUM          128
MEM_STATIC                400
MEM_TOTAL                 4000
$end
--------------------------------------------------------------

   15   -1510.1117758554      8.54E-09 Convergence criterion met
 Total energy in the final basis set = -1510.11177586
   14   -1510.1828849724      4.92E-09 Convergence criterion met
 Total energy in the final basis set = -1510.18288497
   14   -1510.2210032283      6.89E-09 Convergence criterion met
 Total energy in the final basis set = -1510.22100323
   14   -1510.2379118810      4.77E-09 Convergence criterion met
 Total energy in the final basis set = -1510.23791188
   14   -1510.2438938001      6.20E-09 Convergence criterion met
 Total energy in the final basis set = -1510.24389380
   13   -1510.2468403431      6.97E-09 Convergence criterion met
 Total energy in the final basis set = -1510.24684034
   12   -1510.2479941797      8.83E-09 Convergence criterion met
 Total energy in the final basis set = -1510.24799418
   12   -1510.2484105077      9.29E-09 Convergence criterion met
    9   -1510.2485978229      8.50E-09 Convergence criterion met
 Total energy in the final basis set = -1510.24859782
   11   -1510.2486043896      2.52E-09 Convergence criterion met
 Total energy in the final basis set = -1510.24860439
   10   -1510.2486088951      9.46E-09 Convergence criterion met
 Total energy in the final basis set = -1510.24860890
    9   -1510.2486116650      5.67E-09 Convergence criterion met
 Total energy in the final basis set = -1510.24861166
    9   -1510.2486147640      6.92E-09 Convergence criterion met
 Total energy in the final basis set = -1510.24861476
    9   -1510.2486161046      4.63E-09 Convergence criterion met
 Total energy in the final basis set = -1510.24861610

             Standard Nuclear Orientation (Angstroms)
    I     Atom           X                Y                Z
 ----------------------------------------------------------------
    1      O      -3.8105702302    -2.0956655059     1.1281778538
    2      C      -3.9119138735    -1.5499333695     0.0060087557
    3      C      -4.5074680577    -0.1295475645    -0.2980222690
    4      C      -3.9760686684     1.0289352393     0.6457757962
    5      C      -2.8270727452     0.6544547012     1.6473228775
    6      O      -1.7767815116    -0.0790136072     0.9850358605
    7      C      -1.2518775457    -1.1387685580     1.8841942254
    8      C       0.3032412069    -1.2341131049     1.6793741757
    9      O       0.5710700792    -0.8067666608     0.2911558058
   10      C       2.0123149647    -0.8768635584     0.0456430672
   11      C       2.7400138928     0.4354709020     0.5145000067
   12      C       4.3020988625     0.3370940941     0.7447425744
   13      C       4.9956513751    -0.9377363754     0.1387897839
   14      O       5.6761345836    -1.7758949397     0.7716348300
   15      O      -3.5347738370    -2.1810902785    -1.2196649251
   16      O       4.8911322116    -0.9024624985    -1.2869060608
   17      O       2.5213813710    -1.8586458831    -0.5307782463
   18      C       5.5323604019    -2.1023526981    -1.8689948738
   19      C       2.6422882054     1.6436386833    -0.5246510933
   20      C       2.7642984600     2.9771761977     0.3110436365
   21      C       4.2837568836     2.9263668905     0.7216899555
   22      C       4.7732383767     1.6336912093    -0.0488150871
   23      O       3.9221886045     1.5989915080    -1.2618097297
   24      H       2.2482707146     0.7407851239     1.4545169524
   25      H       4.5567498415     0.3797995463     1.8180541808
   26      H       1.7815596364     1.5903257562    -1.2194181060
   27      H       2.5484905600     3.8488729847    -0.3275225031
   28      H       2.0843364709     2.9947645948     1.1775035412
   29      H       4.8299095665     3.8158462810     0.3702803019
   30      H       4.4246751425     2.8331157161     1.8104537688
   31      H       5.8440595547     1.6329022346    -0.3301457265
   32      O      -2.8293667188     0.9087449777     2.8722899559
   33      C      -2.9574754241    -3.5191056556    -0.9553422866
   34      C      -4.1359444890     0.4419225939    -1.7326761359
   35      C      -5.1790469928     1.5708433347    -2.0932574477
   36      C      -4.7008593827     2.7353792804    -1.1494480195
   37      C      -3.4526437238     2.0660341259    -0.4478089170
   38      O      -2.8827797208     1.1934694426    -1.4961091209
   39      H      -5.6055078809    -0.2149856023    -0.1885185950
   40      H      -4.7930692398     1.4632496683     1.2482074018
   41      H      -3.5924899109    -4.1098580800    -0.2646421875
   42      H      -3.9835581159    -0.3404264933    -2.4999171247
   43      H      -5.0910369689     1.8502307949    -3.1552393757
   44      H      -6.2169342663     1.2592798769    -1.8948184615
   45      H      -4.3896027681     3.6218166753    -1.7246156563
   46      H      -5.4706603625     3.0389030146    -0.4218867671
   47      H      -2.6882503699     2.7747365366    -0.0739998079
   48      H      -1.9399755978    -3.4359649120    -0.5211968217
   49      H      -2.8949129758    -4.0251382454    -1.9362493964
   50      H       5.5268294712    -1.9495374406    -2.9637792029
   51      H       4.9598741970    -3.0196897453    -1.6212451443
   52      H       6.5749835116    -2.2257430395    -1.5114639898
   53      H       0.8198760034    -0.5734243025     2.4128313990
   54      H       0.6415735147    -2.2796017828     1.8655078759
   55      H      -1.7595155186    -2.0894070680     1.6117323819
   56      H      -1.4848874371    -0.8979318606     2.9430901737
 ----------------------------------------------------------------

    9   -1510.2486159091      5.72E-09 Convergence criterion met
 Total energy in the final basis set = -1510.24861591
 Final energy is   -1510.24861590906
 **  OPTIMIZATION CONVERGED  **

                    Orbital Energies (a.u.)
 --------------------------------------------------------------

 Alpha MOs
 -- Occupied --
-18.939 -18.924 -18.920 -18.907 -18.899 -18.889 -18.888 -18.880
-18.874 -18.862 -10.107 -10.103 -10.100 -10.090 -10.073 -10.066
-10.064 -10.061 -10.061 -10.059 -10.057 -10.052 -10.040 -10.038
-10.036 -10.035 -10.021 -10.020 -10.019 -10.019  -1.016  -1.009
 -1.004  -0.998  -0.970  -0.969  -0.942  -0.938  -0.927  -0.924
 -0.763  -0.761  -0.724  -0.721  -0.711  -0.705  -0.696  -0.663
 -0.651  -0.606  -0.599  -0.580  -0.545  -0.544  -0.538  -0.537
 -0.517  -0.510  -0.488  -0.474  -0.468  -0.453  -0.446  -0.435
 -0.434  -0.433  -0.432  -0.412  -0.410  -0.408  -0.403  -0.401
 -0.390  -0.387  -0.377  -0.364  -0.362  -0.351  -0.348  -0.347
 -0.341  -0.338  -0.336  -0.330  -0.329  -0.326  -0.323  -0.313
 -0.311  -0.307  -0.305  -0.299  -0.293  -0.291  -0.284  -0.274
 -0.272  -0.257  -0.248  -0.241  -0.236  -0.233  -0.232  -0.179
 -0.169  -0.167  -0.160  -0.156  -0.153  -0.150  -0.143  -0.143
 -0.141

          Ground-State Mulliken Net Atomic Charges

     Atom                 Charge (a.u.)
  ----------------------------------------
      1 O                    -0.223687
      2 C                     0.215251
      3 C                    -0.077618
      4 C                    -0.078847
      5 C                     0.212854
      6 O                    -0.172188
      7 C                    -0.051904
      8 C                    -0.045530
      9 O                    -0.190063
     10 C                     0.221017
     11 C                    -0.083107
     12 C                    -0.081141
     13 C                     0.209041
     14 O                    -0.219577
     15 O                    -0.166081
     16 O                    -0.161188
     17 O                    -0.175167
     18 C                    -0.126720
     19 C                     0.027220
     20 C                    -0.141926
     21 C                    -0.145271
     22 C                     0.027052
     23 O                    -0.182042
     24 H                     0.079655
     25 H                     0.083082
     26 H                     0.090088
     27 H                     0.078570
     28 H                     0.073885
     29 H                     0.078213
     30 H                     0.073298
     31 H                     0.083584
     32 O                    -0.206812
     33 C                    -0.128235
     34 C                     0.024295
     35 C                    -0.144139
     36 C                    -0.144324
     37 C                     0.026398
     38 O                    -0.184994
     39 H                     0.084163
     40 H                     0.085270
     41 H                     0.091326
     42 H                     0.094906
     43 H                     0.078091
     44 H                     0.072605
     45 H                     0.077900
     46 H                     0.073481
     47 H                     0.082139
     48 H                     0.090525
     49 H                     0.092515
     50 H                     0.089567
     51 H                     0.090496
     52 H                     0.087102
     53 H                     0.071028
     54 H                     0.078345
     55 H                     0.093186
     56 H                     0.094415
  ----------------------------------------
  Sum of atomic charges =    -0.000000

                    Cartesian Multipole Moments
 -----------------------------------------------------------------
    Charge (ESU x 10^10)
                 0.0000
    Dipole Moment (Debye)
         X      -1.9112      Y       0.9820      Z       0.2127
       Tot       2.1592
    Quadrupole Moments (Debye-Ang)
        XX    -151.9651     XY       5.1273     YY    -151.7344
        XZ       8.3803     YZ       3.8318     ZZ    -164.6772

 Total job time:  59.30s(wall), 2817.42s(cpu)
        *  Thank you very much for using Q-Chem.  Have a nice day.  *
