 Q-Chem 5.0, Q-Chem, Inc., Pleasanton, CA (2017)
 Q-Chem 5.0.1 for Intel X86 EM64T Linux

User input:
--------------------------------------------------------------
$molecule
0  1
O -3.94934 -3.66094 2.70899
C -3.26408 -4.56952 2.26188
C -3.36658 -6.02376 2.66595
C -4.66266 -6.76517 2.29943
C -5.63801 -6.02118 1.41441
O -6.44257 -5.22426 2.17796
C -7.39654 -4.48481 1.40827
C -8.78134 -5.10848 1.54786
O -9.43113 -4.59944 2.72324
C -9.05908 -3.35119 3.10086
C -9.04444 -2.36926 1.95358
C -10.42144 -2.06123 1.34756
C -11.61769 -2.48104 2.17789
O -12.51112 -1.73899 2.55959
O -2.32599 -4.25259 1.32826
O -11.80687 -3.81659 2.33657
O -8.90588 -3.04811 4.27406
C -12.87378 -4.38512 3.00096
C -8.64123 -0.93181 2.40692
C -8.06057 -0.1423 1.23187
C -9.30026 0.02121 0.37303
C -10.37008 -0.51764 1.33504
O -9.85415 -0.25106 2.61401
H -8.50885 -2.50404 1.00551
H -10.57167 -2.51478 0.34036
H -7.92639 -0.91297 3.25826
H -7.77034 0.85402 1.63745
H -7.184 -0.59137 0.71696
H -9.43615 1.10431 0.15938
H -9.30283 -0.56225 -0.57331
H -11.35761 -0.06168 1.10272
O -5.82271 -6.29214 0.2316
C -2.10683 -2.98118 0.84032
C -2.32117 -6.92823 1.97315
C -2.10535 -8.20622 2.78462
C -3.38699 -8.94741 2.48447
C -4.05875 -7.9612 1.52593
O -2.98284 -7.3903 0.82454
H -3.17827 -6.03883 3.7625
H -5.22835 -7.14833 3.17881
H -1.81084 -2.29968 1.66628
H -1.33891 -6.43384 1.81092
H -1.25884 -8.7662 2.32639
H -1.89465 -8.03497 3.86225
H -3.13195 -9.88166 1.93558
H -4.01676 -9.18989 3.36751
H -4.81227 -8.50072 0.91052
H -3.02552 -2.59761 0.34692
H -1.28746 -3.01465 0.09337
H -12.7685 -5.48914 2.97882
H -13.82774 -4.10658 2.50436
H -12.88743 -4.04808 4.05951
H -9.40493 -4.78438 0.68543
H -8.75788 -6.21844 1.52419
H -7.20263 -4.52932 0.31275
H -7.00606 -3.48015 1.62554
$end

$opt
CONSTRAINT
tors           1           2           3           4     +66.316
tors           3           4           5           6     -85.263
tors           4           5           6           7    -180.000
tors           5           6           7           8    +104.211
tors           6           7           8           9     +85.263
tors           7           8           9          10     +28.421
tors           8           9          10          11     +47.368
tors           9          10          11          12     +66.316
tors          11          12          13          14    +123.158
ENDCONSTRAINT
$end

$rem
JOBTYPE                   OPT
METHOD                    B3LYP
DFT_D                     d3_op
BASIS                     STO-3G
GEOM_OPT_MAX_CYCLES       100
GEOM_OPT_TOL_GRADIENT     300
GEOM_OPT_TOL_DISPLACEMENT 1200
GEOM_OPT_TOL_ENERGY       100
SYMMETRY                  False
THRESH                    12
SCF_CONVERGENCE           8
MAX_SUB_FILE_NUM          128
MEM_STATIC                400
MEM_TOTAL                 4000
$end
--------------------------------------------------------------

   15   -1510.0857278156      8.39E-09 Convergence criterion met
 Total energy in the final basis set = -1510.08572782
   15   -1510.1643013803      1.84E-09 Convergence criterion met
 Total energy in the final basis set = -1510.16430138
   14   -1510.2091462101      6.80E-09 Convergence criterion met
 Total energy in the final basis set = -1510.20914621
   14   -1510.2352482690      9.36E-09 Convergence criterion met
 Total energy in the final basis set = -1510.23524827
   14   -1510.2465439606      4.44E-09 Convergence criterion met
 Total energy in the final basis set = -1510.24654396
   14   -1510.2508021519      3.96E-09 Convergence criterion met
 Total energy in the final basis set = -1510.25080215
   13   -1510.2521688876      9.03E-09 Convergence criterion met
 Total energy in the final basis set = -1510.25216889
   12   -1510.2526424407      5.83E-09 Convergence criterion met
   11   -1510.2556063033      7.24E-09 Convergence criterion met
 Total energy in the final basis set = -1510.25560630
   11   -1510.2556176263      4.25E-09 Convergence criterion met
 Total energy in the final basis set = -1510.25561763
   11   -1510.2556296203      3.56E-09 Convergence criterion met
 Total energy in the final basis set = -1510.25562962
   11   -1510.2556409684      4.03E-09 Convergence criterion met
 Total energy in the final basis set = -1510.25564097
   11   -1510.2556478448      3.47E-09 Convergence criterion met
 Total energy in the final basis set = -1510.25564784
   11   -1510.2556502328      2.27E-09 Convergence criterion met
 Total energy in the final basis set = -1510.25565023

             Standard Nuclear Orientation (Angstroms)
    I     Atom           X                Y                Z
 ----------------------------------------------------------------
    1      O      -2.5853835835    -1.9894806234     0.2128856478
    2      C      -3.7182567431    -1.4988745416     0.0100737594
    3      C      -4.3420782601    -0.2497238056     0.7370246654
    4      C      -3.5689080973     1.1020459474     0.3934384452
    5      C      -2.3305841587     0.8834517608    -0.5374145798
    6      O      -1.2128481046     0.5369814461     0.2896255574
    7      C      -0.0067483936     0.3176366893    -0.5450483889
    8      C       0.9809297319     1.5438393287    -0.4408318106
    9      O       1.9653942696     1.6174325277     0.6645098595
   10      C       2.4563643212     0.4011071992     1.2464113137
   11      C       2.9538711729    -0.7834541971     0.3062270183
   12      C       4.2639159018    -0.4787036877    -0.5513574887
   13      C       4.8127421221     0.9925300553    -0.5457780704
   14      O       5.9577695656     1.3669721749    -0.2125378640
   15      O      -4.6405602351    -2.0136228688    -0.9539978980
   16      O       3.8422927458     1.8457847145    -1.1597031500
   17      O       2.6501062898     0.3985086659     2.4826166953
   18      C       4.3172120310     3.2474691533    -1.1574284326
   19      C       3.4886787494    -1.9647089199     1.2214007441
   20      C       3.6537239621    -3.2635620997     0.3357195445
   21      C       4.9827535419    -2.9375323423    -0.4432710690
   22      C       5.2984700078    -1.4897077025     0.0985499506
   23      O       4.8809186784    -1.5555754486     1.5165770218
   24      H       2.1544455648    -1.1300588536    -0.3655120266
   25      H       4.0678717451    -0.7379028582    -1.6087166628
   26      H       2.9204714567    -2.0932331596     2.1629299763
   27      H       3.7653094285    -4.1547888995     0.9731825906
   28      H       2.7947074790    -3.4165691096    -0.3371386838
   29      H       5.7914348975    -3.6336698969    -0.1694144032
   30      H       4.8535528144    -2.9576370867    -1.5372408295
   31      H       6.3520523281    -1.1578848254     0.0182034711
   32      O      -2.2840449120     0.9631109747    -1.7851376706
   33      C      -4.0388786075    -3.1641670439    -1.6669717523
   34      C      -5.7974283633     0.1112318413     0.2250233423
   35      C      -6.4362788363     1.1599166895     1.2213798879
   36      C      -5.6877773369     2.4797441599     0.8022230349
   37      C      -4.7193804238     1.9322186027    -0.3172567837
   38      O      -5.5319417667     0.9004871796    -1.0004212579
   39      H      -4.3157373688    -0.4416850042     1.8252171822
   40      H      -3.2197722449     1.5916291180     1.3197583349
   41      H      -3.7600391379    -3.9793403097    -0.9683537236
   42      H      -6.4269911575    -0.7675811265    -0.0106080936
   43      H      -7.5223404855     1.2390671076     1.0558298973
   44      H      -6.2584958168     0.8882734467     2.2741776492
   45      H      -6.3836052133     3.2200323381     0.3763710958
   46      H      -5.1409225885     2.9451138532     1.6378237600
   47      H      -4.3559458949     2.6818725849    -1.0466101476
   48      H      -3.1353495803    -2.8617775245    -2.2347259000
   49      H      -4.8129112831    -3.5243053191    -2.3693375852
   50      H       3.5435982262     3.8321142164    -1.6881663305
   51      H       5.2897113129     3.3510392342    -1.6806056430
   52      H       4.4267619433     3.6337393398    -0.1236539561
   53      H       1.5500950454     1.5998765948    -1.3982901033
   54      H       0.3784710594     2.4720293352    -0.3471087706
   55      H      -0.3311852240     0.2283363033    -1.6053364657
   56      H       0.4418845969    -0.6309570888    -0.2038852846
 ----------------------------------------------------------------

    9   -1510.2556506307      8.43E-09 Convergence criterion met
 Total energy in the final basis set = -1510.25565063
 Final energy is   -1510.25565063072
 **  OPTIMIZATION CONVERGED  **

                    Orbital Energies (a.u.)
 --------------------------------------------------------------

 Alpha MOs
 -- Occupied --
-18.940 -18.937 -18.937 -18.918 -18.888 -18.885 -18.881 -18.881
-18.878 -18.876 -10.104 -10.102 -10.101 -10.100 -10.075 -10.073
-10.068 -10.065 -10.061 -10.060 -10.057 -10.056 -10.042 -10.041
-10.040 -10.037 -10.022 -10.021 -10.020 -10.018  -1.019  -1.014
 -1.013  -1.000  -0.971  -0.968  -0.943  -0.939  -0.938  -0.930
 -0.766  -0.762  -0.727  -0.721  -0.715  -0.704  -0.702  -0.664
 -0.664  -0.621  -0.601  -0.587  -0.550  -0.543  -0.539  -0.534
 -0.515  -0.508  -0.486  -0.477  -0.467  -0.465  -0.451  -0.447
 -0.433  -0.432  -0.427  -0.418  -0.415  -0.414  -0.413  -0.409
 -0.395  -0.384  -0.378  -0.376  -0.366  -0.356  -0.353  -0.350
 -0.348  -0.347  -0.336  -0.333  -0.330  -0.329  -0.318  -0.313
 -0.311  -0.308  -0.305  -0.301  -0.292  -0.287  -0.284  -0.280
 -0.276  -0.259  -0.256  -0.250  -0.235  -0.232  -0.228  -0.185
 -0.181  -0.178  -0.164  -0.163  -0.155  -0.153  -0.147  -0.144
 -0.142

          Ground-State Mulliken Net Atomic Charges

     Atom                 Charge (a.u.)
  ----------------------------------------
      1 O                    -0.215951
      2 C                     0.205870
      3 C                    -0.076923
      4 C                    -0.078860
      5 C                     0.206923
      6 O                    -0.167435
      7 C                    -0.060122
      8 C                    -0.049498
      9 O                    -0.178668
     10 C                     0.209864
     11 C                    -0.083408
     12 C                    -0.080707
     13 C                     0.209181
     14 O                    -0.208346
     15 O                    -0.164789
     16 O                    -0.172087
     17 O                    -0.187759
     18 C                    -0.127159
     19 C                     0.025198
     20 C                    -0.145140
     21 C                    -0.143881
     22 C                     0.023946
     23 O                    -0.186586
     24 H                     0.076449
     25 H                     0.082281
     26 H                     0.090304
     27 H                     0.078665
     28 H                     0.071159
     29 H                     0.078621
     30 H                     0.071704
     31 H                     0.090601
     32 O                    -0.214487
     33 C                    -0.127354
     34 C                     0.024456
     35 C                    -0.144738
     36 C                    -0.143577
     37 C                     0.024964
     38 O                    -0.186981
     39 H                     0.086649
     40 H                     0.087840
     41 H                     0.089035
     42 H                     0.091011
     43 H                     0.078142
     44 H                     0.073260
     45 H                     0.078410
     46 H                     0.073816
     47 H                     0.086123
     48 H                     0.089671
     49 H                     0.092491
     50 H                     0.089456
     51 H                     0.090084
     52 H                     0.093506
     53 H                     0.089757
     54 H                     0.091637
     55 H                     0.102011
     56 H                     0.091373
  ----------------------------------------
  Sum of atomic charges =    -0.000000

                    Cartesian Multipole Moments
 -----------------------------------------------------------------
    Charge (ESU x 10^10)
                -0.0000
    Dipole Moment (Debye)
         X      -2.4656      Y      -0.8709      Z      -2.3153
       Tot       3.4926
    Quadrupole Moments (Debye-Ang)
        XX    -167.5648     XY      -1.7560     YY    -146.9120
        XZ     -23.3247     YZ       2.3364     ZZ    -167.4532

 Total job time:  64.95s(wall), 3091.60s(cpu)
        *  Thank you very much for using Q-Chem.  Have a nice day.  *
