 Q-Chem 5.0, Q-Chem, Inc., Pleasanton, CA (2017)
 Q-Chem 5.0.1 for Intel X86 EM64T Linux

User input:
--------------------------------------------------------------
$molecule
0  1
O -2.5853835835 -1.9894806234 0.2128856478
C -3.7182567431 -1.4988745416 0.0100737594
C -4.3420782601 -0.2497238056 0.7370246654
C -3.5689080973 1.1020459474 0.3934384452
C -2.3305841587 0.8834517608 -0.5374145798
O -1.2128481046 0.5369814461 0.2896255574
C -0.0067483936 0.3176366893 -0.5450483889
C 0.9809297319 1.5438393287 -0.4408318106
O 1.9653942696 1.6174325277 0.6645098595
C 2.4563643212 0.4011071992 1.2464113137
C 2.9538711729 -0.7834541971 0.3062270183
C 4.2639159018 -0.4787036877 -0.5513574887
C 4.8127421221 0.9925300553 -0.5457780704
O 5.9577695656 1.3669721749 -0.212537864
O -4.6405602351 -2.0136228688 -0.953997898
O 3.8422927458 1.8457847145 -1.15970315
O 2.6501062898 0.3985086659 2.4826166953
C 4.317212031 3.2474691533 -1.1574284326
C 3.4886787494 -1.9647089199 1.2214007441
C 3.6537239621 -3.2635620997 0.3357195445
C 4.9827535419 -2.9375323423 -0.443271069
C 5.2984700078 -1.4897077025 0.0985499506
O 4.8809186784 -1.5555754486 1.5165770218
H 2.1544455648 -1.1300588536 -0.3655120266
H 4.0678717451 -0.7379028582 -1.6087166628
H 2.9204714567 -2.0932331596 2.1629299763
H 3.7653094285 -4.1547888995 0.9731825906
H 2.794707479 -3.4165691096 -0.3371386838
H 5.7914348975 -3.6336698969 -0.1694144032
H 4.8535528144 -2.9576370867 -1.5372408295
H 6.3520523281 -1.1578848254 0.0182034711
O -2.284044912 0.9631109747 -1.7851376706
C -4.0388786075 -3.1641670439 -1.6669717523
C -5.7974283633 0.1112318413 0.2250233423
C -6.4362788363 1.1599166895 1.2213798879
C -5.6877773369 2.4797441599 0.8022230349
C -4.7193804238 1.9322186027 -0.3172567837
O -5.5319417667 0.9004871796 -1.0004212579
H -4.3157373688 -0.4416850042 1.8252171822
H -3.2197722449 1.591629118 1.3197583349
H -3.7600391379 -3.9793403097 -0.9683537236
H -6.4269911575 -0.7675811265 -0.0106080936
H -7.5223404855 1.2390671076 1.0558298973
H -6.2584958168 0.8882734467 2.2741776492
H -6.3836052133 3.2200323381 0.3763710958
H -5.1409225885 2.9451138532 1.63782376
H -4.3559458949 2.6818725849 -1.0466101476
H -3.1353495803 -2.8617775245 -2.2347259
H -4.8129112831 -3.5243053191 -2.3693375852
H 3.5435982262 3.8321142164 -1.6881663305
H 5.2897113129 3.3510392342 -1.680605643
H 4.4267619433 3.6337393398 -0.1236539561
H 1.5500950454 1.5998765948 -1.3982901033
H 0.3784710594 2.4720293352 -0.3471087706
H -0.331185224 0.2283363033 -1.6053364657
H 0.4418845969 -0.6309570888 -0.2038852846
$end

$rem
JOBTYPE                   OPT
METHOD                    B3LYP
DFT_D                     d3_op
BASIS                     STO-3G
GEOM_OPT_MAX_CYCLES       100
GEOM_OPT_TOL_GRADIENT     300
GEOM_OPT_TOL_DISPLACEMENT 1200
GEOM_OPT_TOL_ENERGY       100
SYMMETRY                  False
THRESH                    12
SCF_CONVERGENCE           8
MAX_SUB_FILE_NUM          128
MEM_STATIC                400
MEM_TOTAL                 4000
$end
--------------------------------------------------------------

   16   -1510.2555435807      6.27E-09 Convergence criterion met
 Total energy in the final basis set = -1510.25554358
   15   -1510.2584479711      2.79E-09 Convergence criterion met
 Total energy in the final basis set = -1510.25844797
   13   -1510.2623166936      5.87E-09 Convergence criterion met
 Total energy in the final basis set = -1510.26231669
   13   -1510.2653539108      9.78E-09 Convergence criterion met
 Total energy in the final basis set = -1510.26535391
   13   -1510.2674630834      4.53E-09 Convergence criterion met
 Total energy in the final basis set = -1510.26746308
   14   -1510.2688549405      6.32E-09 Convergence criterion met
 Total energy in the final basis set = -1510.26885494
   13   -1510.2696484990      8.29E-09 Convergence criterion met
 Total energy in the final basis set = -1510.26964850
   13   -1510.2703955209      3.15E-09 Convergence criterion met
   12   -1510.2766663587      5.77E-09 Convergence criterion met
 Total energy in the final basis set = -1510.27666636
   11   -1510.2766865850      8.10E-09 Convergence criterion met
 Total energy in the final basis set = -1510.27668658
   11   -1510.2766982696      8.09E-09 Convergence criterion met
 Total energy in the final basis set = -1510.27669827
   10   -1510.2767025229      7.38E-09 Convergence criterion met
 Total energy in the final basis set = -1510.27670252
    9   -1510.2766981811      7.59E-09 Convergence criterion met
 Total energy in the final basis set = -1510.27669818
    9   -1510.2767002416      2.47E-09 Convergence criterion met
 Total energy in the final basis set = -1510.27670024

             Standard Nuclear Orientation (Angstroms)
    I     Atom           X                Y                Z
 ----------------------------------------------------------------
    1      O       3.2946350899    -1.3971116341     1.5085368058
    2      C       4.1807423387    -1.4197402475     0.6240344608
    3      C       4.4277245363    -0.3573804032    -0.4981728827
    4      C       3.3038751746     0.7542859438    -0.5452760131
    5      C       2.1248764733     0.5350635511     0.4728185351
    6      O       1.2485407311    -0.4628317818    -0.0792585741
    7      C       0.1253489822    -0.7294042690     0.8456750463
    8      C      -0.9308502670     0.4412180286     0.8521527298
    9      O      -1.3154234095     0.8454674260    -0.5160013248
   10      C      -2.1960843556    -0.0644060808    -1.2043120454
   11      C      -3.1804743450    -0.9616234982    -0.3471717578
   12      C      -4.2456035998    -0.1152863061     0.4804898546
   13      C      -4.0588599833     1.4331008736     0.3177723094
   14      O      -4.3246497481     2.1361235634    -0.6799057903
   15      O       5.1672360695    -2.4456497707     0.5066125260
   16      O      -3.5076593157     1.9440141799     1.5389562800
   17      O      -2.2093424824    -0.0195210499    -2.4525809904
   18      C      -3.2193126504     3.3896396673     1.3960636249
   19      C      -4.1363667998    -1.7785298348    -1.3133355869
   20      C      -4.8425016543    -2.9111574121    -0.4696755817
   21      C      -5.9008986713    -2.0726563220     0.3399026086
   22      C      -5.5989218150    -0.6140177410    -0.1866441659
   23      O      -5.2291226367    -0.8225428326    -1.6032483266
   24      H      -2.6133032499    -1.6383222992     0.3146886241
   25      H      -4.2011713932    -0.3611763689     1.5562586842
   26      H      -3.6506469566    -2.1026377127    -2.2539132768
   27      H      -5.3292247391    -3.6418440766    -1.1348499333
   28      H      -4.1333575207    -3.4445140591     0.1832972101
   29      H      -6.9313492847    -2.3678412782     0.0854812051
   30      H      -5.7679353546    -2.1568955467     1.4304521416
   31      H      -6.4387959813     0.1029535158    -0.1072564476
   32      O       1.8937318126     1.1854246088     1.5143402427
   33      C       4.9826126925    -3.4542705941     1.5767350363
   34      C       5.7064338399     0.5268153315    -0.1579065369
   35      C       6.0997825174     1.3591629891    -1.4421727647
   36      C       4.9874275291     2.4736635484    -1.4362264543
   37      C       4.1410815847     2.0481908329    -0.1742043278
   38      O       5.1639917831     1.5411660224     0.7716774866
   39      H       4.5406769133    -0.8797904932    -1.4650628759
   40      H       2.8674642022     0.8215127131    -1.5580519322
   41      H       3.9988475843    -3.9599212986     1.4936537021
   42      H       6.5349215104    -0.0373993696     0.3130077360
   43      H       7.1070116040     1.7902799307    -1.3274378591
   44      H       6.0812006153     0.7434152260    -2.3555936107
   45      H       5.4215333823     3.4754452317    -1.2894249335
   46      H       4.3855269199     2.4808252795    -2.3588914592
   47      H       3.5435171755     2.8499577712     0.3010263485
   48      H       5.0609958307    -2.9984297279     2.5847822508
   49      H       5.7917909637    -4.1949169543     1.4399901545
   50      H      -2.7939688082     3.7142139311     2.3634143345
   51      H      -4.1389664026     3.9706701876     1.1797406768
   52      H      -2.4856631345     3.5749590400     0.5850053777
   53      H      -1.7980399974     0.1683649911     1.4878909119
   54      H      -0.4481171409     1.3374300381     1.2909387622
   55      H       0.4930107858    -0.8825291714     1.8839583063
   56      H      -0.3359418821    -1.6686708300     0.4793833236
 ----------------------------------------------------------------

    8   -1510.2767003606      6.96E-09 Convergence criterion met
 Total energy in the final basis set = -1510.27670036
 Final energy is   -1510.27670036064
 **  OPTIMIZATION CONVERGED  **

                    Orbital Energies (a.u.)
 --------------------------------------------------------------

 Alpha MOs
 -- Occupied --
-18.944 -18.933 -18.926 -18.924 -18.888 -18.887 -18.887 -18.878
-18.876 -18.864 -10.107 -10.098 -10.098 -10.095 -10.071 -10.071
-10.069 -10.063 -10.062 -10.061 -10.058 -10.057 -10.041 -10.040
-10.039 -10.034 -10.022 -10.021 -10.021 -10.019  -1.021  -1.012
 -1.006  -0.998  -0.970  -0.970  -0.944  -0.937  -0.935  -0.927
 -0.764  -0.763  -0.724  -0.724  -0.712  -0.706  -0.699  -0.668
 -0.663  -0.614  -0.600  -0.587  -0.551  -0.545  -0.539  -0.536
 -0.513  -0.508  -0.483  -0.472  -0.463  -0.460  -0.454  -0.449
 -0.435  -0.430  -0.428  -0.420  -0.418  -0.414  -0.411  -0.405
 -0.398  -0.384  -0.378  -0.367  -0.365  -0.361  -0.352  -0.349
 -0.344  -0.339  -0.336  -0.333  -0.331  -0.326  -0.316  -0.312
 -0.311  -0.305  -0.304  -0.302  -0.296  -0.287  -0.280  -0.276
 -0.275  -0.260  -0.256  -0.249  -0.236  -0.234  -0.234  -0.187
 -0.179  -0.177  -0.162  -0.160  -0.154  -0.147  -0.145  -0.144
 -0.142

          Ground-State Mulliken Net Atomic Charges

     Atom                 Charge (a.u.)
  ----------------------------------------
      1 O                    -0.208536
      2 C                     0.215222
      3 C                    -0.077975
      4 C                    -0.081380
      5 C                     0.219263
      6 O                    -0.174087
      7 C                    -0.050461
      8 C                    -0.056165
      9 O                    -0.173957
     10 C                     0.209074
     11 C                    -0.085134
     12 C                    -0.082739
     13 C                     0.204406
     14 O                    -0.204304
     15 O                    -0.168418
     16 O                    -0.174165
     17 O                    -0.190927
     18 C                    -0.129649
     19 C                     0.025728
     20 C                    -0.144563
     21 C                    -0.144043
     22 C                     0.026652
     23 O                    -0.183398
     24 H                     0.076540
     25 H                     0.082243
     26 H                     0.091769
     27 H                     0.078893
     28 H                     0.071253
     29 H                     0.078808
     30 H                     0.072481
     31 H                     0.085235
     32 O                    -0.219835
     33 C                    -0.128135
     34 C                     0.025169
     35 C                    -0.143746
     36 C                    -0.143909
     37 C                     0.025196
     38 O                    -0.189762
     39 H                     0.088163
     40 H                     0.087921
     41 H                     0.089604
     42 H                     0.084600
     43 H                     0.078232
     44 H                     0.074161
     45 H                     0.078276
     46 H                     0.074991
     47 H                     0.089428
     48 H                     0.091847
     49 H                     0.092426
     50 H                     0.090114
     51 H                     0.089733
     52 H                     0.093651
     53 H                     0.086642
     54 H                     0.102041
     55 H                     0.095432
     56 H                     0.080097
  ----------------------------------------
  Sum of atomic charges =     0.000000

                    Cartesian Multipole Moments
 -----------------------------------------------------------------
    Charge (ESU x 10^10)
                 0.0000
    Dipole Moment (Debye)
         X       1.3594      Y      -2.8765      Z       2.3086
       Tot       3.9308
    Quadrupole Moments (Debye-Ang)
        XX    -151.0770     XY       0.1228     YY    -148.4142
        XZ     -20.6134     YZ      -2.4179     ZZ    -168.9123

 Total job time:  87.00s(wall), 4140.85s(cpu)
        *  Thank you very much for using Q-Chem.  Have a nice day.  *
