 Q-Chem 5.0, Q-Chem, Inc., Pleasanton, CA (2017)
 Q-Chem 5.0.1 for Intel X86 EM64T Linux

User input:
--------------------------------------------------------------
$molecule
0  1
O -3.5672019392 -2.3398960543 1.3799151674
C -3.9038898589 -1.5191588854 0.4966515113
C -4.6840324372 -0.1797055817 0.7235209531
C -3.9842937424 1.1560168613 0.2058069707
C -2.6394038108 0.9198326472 -0.5671278916
O -1.5410743774 1.2722724591 0.3015577028
C -0.4181865444 0.3218370002 0.0990403112
C 0.5162769689 0.4255118709 1.3577261818
O 1.3444228725 -0.8052575338 1.3845824046
C 2.7550772208 -0.4698734547 1.3816118728
C 3.472152098 -1.1565829903 0.1584268802
C 4.2161199312 -0.1265357357 -0.7914857906
C 3.8894320117 1.3811291954 -0.4950357998
O 2.8352491698 1.8459345214 -0.0057528329
O -3.7092538973 -1.7314311632 -0.9030061904
O 4.9842515427 2.1887240942 -0.9268900698
O 3.3010732989 0.2367786446 2.2540513226
C 4.688981748 3.6195508893 -0.6780463176
C 4.7113061059 -2.0227153519 0.6522835621
C 5.2368799968 -2.9019518816 -0.5519748294
C 6.0274390372 -1.8322746145 -1.393327658
C 5.7370373501 -0.5244714319 -0.5592811045
O 5.7676910197 -1.0024265814 0.8413999056
H 2.72756764 -1.7591319155 -0.3898433204
H 3.9288665634 -0.312581938 -1.8439970726
H 4.5340275688 -2.5750545335 1.5954876618
H 5.89895676 -3.7030887003 -0.1869190436
H 4.408824701 -3.3592320188 -1.1170286896
H 7.1080149221 -2.0464149494 -1.403942401
H 5.6710094112 -1.7549314618 -2.4329041031
H 6.4472716156 0.3114718648 -0.7072633554
O -2.4937507618 0.4768691004 -1.7253430681
C -2.9915272659 -3.0061228256 -1.1309338381
C -6.0494846371 -0.1356736688 -0.0975827158
C -6.9919432056 0.937615615 0.5764833594
C -6.3025361322 2.2747249352 0.1144785219
C -5.1124509678 1.7174795894 -0.7632726981
O -5.671073204 0.4933929628 -1.3802015136
H -4.8739236738 -0.1089597991 1.8092279207
H -3.77930126 1.8382948376 1.0495071236
H -3.5677877617 -3.8745708218 -0.75104908
H -6.51128845 -1.1266529121 -0.2722347192
H -8.0153020744 0.8518008068 0.177438728
H -7.0287794257 0.8318443663 1.6724062983
H -6.9803112363 2.8899152656 -0.4984592696
H -5.9427289851 2.880747828 0.9612959214
H -4.7385808527 2.4053754795 -1.546135241
H -1.9942930322 -3.0069313418 -0.644865715
H -2.8689163985 -3.0910735687 -2.2262221889
H 5.5835984107 4.1763887048 -1.0119947602
H 4.5077395159 3.8143424304 0.3985378052
H 3.8030676395 3.958356121 -1.2530618422
H 1.1462673302 1.3365581425 1.2902991594
H -0.1135076907 0.4765487597 2.273812151
H 0.1574602829 0.5580554243 -0.8236061348
H -0.7970903739 -0.7195194186 0.0102344466
$end

$rem
JOBTYPE                   OPT
METHOD                    B3LYP
DFT_D                     d3_op
BASIS                     STO-3G
GEOM_OPT_MAX_CYCLES       100
GEOM_OPT_TOL_GRADIENT     300
GEOM_OPT_TOL_DISPLACEMENT 1200
GEOM_OPT_TOL_ENERGY       100
SYMMETRY                  False
THRESH                    12
SCF_CONVERGENCE           8
MAX_SUB_FILE_NUM          128
MEM_STATIC                400
MEM_TOTAL                 4000
$end
--------------------------------------------------------------

   16   -1510.2559158389      3.36E-09 Convergence criterion met
 Total energy in the final basis set = -1510.25591584
   13   -1510.2618835889      8.64E-09 Convergence criterion met
 Total energy in the final basis set = -1510.26188359
   13   -1510.2677398505      8.35E-09 Convergence criterion met
 Total energy in the final basis set = -1510.26773985
   14   -1510.2731924679      2.54E-09 Convergence criterion met
 Total energy in the final basis set = -1510.27319247
   14   -1510.2775274757      1.87E-09 Convergence criterion met
 Total energy in the final basis set = -1510.27752748
   13   -1510.2802368301      5.97E-09 Convergence criterion met
 Total energy in the final basis set = -1510.28023683
   13   -1510.2820893201      2.74E-09 Convergence criterion met
 Total energy in the final basis set = -1510.28208932
   13   -1510.2836806464      5.70E-09 Convergence criterion met
   13   -1510.2936652724      1.78E-09 Convergence criterion met
 Total energy in the final basis set = -1510.29366527
   12   -1510.2936348745      6.10E-09 Convergence criterion met
 Total energy in the final basis set = -1510.29363487
   12   -1510.2936947908      4.26E-09 Convergence criterion met
 Total energy in the final basis set = -1510.29369479
   11   -1510.2936816524      6.83E-09 Convergence criterion met
 Total energy in the final basis set = -1510.29368165
   10   -1510.2936952657      6.46E-09 Convergence criterion met
 Total energy in the final basis set = -1510.29369527
    9   -1510.2936968029      8.97E-09 Convergence criterion met
 Total energy in the final basis set = -1510.29369680

             Standard Nuclear Orientation (Angstroms)
    I     Atom           X                Y                Z
 ----------------------------------------------------------------
    1      O      -3.8718671815    -2.5207308928     0.3141323651
    2      C      -3.8778764161    -1.3331384392    -0.0743893702
    3      C      -4.5088941818    -0.0967142640     0.6493956582
    4      C      -3.5161759938     1.1321968308     0.8035636841
    5      C      -2.0841544001     0.8590361227     0.2240418341
    6      O      -1.5748051693    -0.3362459150     0.8208219426
    7      C      -0.2381595926    -0.6202288266     0.2458356516
    8      C       0.3600999509    -1.9219425037     0.8735523972
    9      O       1.6950276948    -2.0889499631     0.2438734254
   10      C       2.7342964731    -1.6012816098     1.1119105771
   11      C       4.0395044778    -1.4960433597     0.2451633045
   12      C       4.0223518742    -0.2976038270    -0.7974934674
   13      C       2.7921407692     0.6547587000    -0.6188391838
   14      O       2.1998969235     0.9070120100     0.4592715272
   15      O      -3.3265764664    -0.8923182063    -1.3241806302
   16      O       2.4410311342     1.2235905056    -1.8738862874
   17      O       2.5971674127    -1.3853274411     2.3337904946
   18      C       1.3416832877     2.2139354364    -1.7111864580
   19      C       5.3129185195    -1.1298720966     1.1157903886
   20      C       6.5981725880    -1.5282245811     0.2923140886
   21      C       6.6011009500    -0.4085873535    -0.8153476967
   22      C       5.3565959915     0.4619793778    -0.3778178164
   23      O       5.3428071460     0.3519593335     1.0968537644
   24      H       4.1726010811    -2.4563753060    -0.2855214933
   25      H       4.0562363724    -0.6496624871    -1.8433852115
   26      H       5.2688449226    -1.5000861610     2.1583864155
   27      H       7.4963253199    -1.4672809684     0.9272725877
   28      H       6.5288666514    -2.5445961959    -0.1273320931
   29      H       7.5225977946     0.1938601342    -0.7803547122
   30      H       6.4838755192    -0.8152205077    -1.8327337116
   31      H       5.3939188763     1.5240751837    -0.6895034882
   32      O      -1.4531312898     1.5651245956    -0.5950532949
   33      C      -2.7438018551    -2.0394361281    -2.0549637979
   34      C      -5.6568199062     0.5721799386    -0.2285312242
   35      C      -6.4858913755     1.5507111175     0.6944087598
   36      C      -5.4927027066     2.7645597769     0.8240558535
   37      C      -4.2697528400     2.2471462311    -0.0300149452
   38      O      -4.9118835934     1.4825618792    -1.1253865925
   39      H      -4.8880699573    -0.4376426466     1.6285082598
   40      H      -3.4098057289     1.4161138791     1.8668485533
   41      H      -3.5266785276    -2.7575014556    -2.3747866121
   42      H      -6.2614027517    -0.1447945414    -0.8173772010
   43      H      -7.4226973343     1.8456580394     0.1956282642
   44      H      -6.7323515920     1.0948330151     1.6666941645
   45      H      -5.9146093121     3.6801167157     0.3797163911
   46      H      -5.2114599901     2.9755393294     1.8681419424
   47      H      -3.5995068208     3.0257546975    -0.4434437827
   48      H      -2.0003314770    -2.5845685267    -1.4388345702
   49      H      -2.2490491448    -1.6136883365    -2.9473722625
   50      H       1.1700459800     2.6288256146    -2.7209381243
   51      H       1.6477105355     3.0300373652    -1.0262701885
   52      H       0.3953025056     1.7645400224    -1.3273432097
   53      H       0.4674262668    -1.8215510334     1.9745427695
   54      H      -0.2484992850    -2.8163618733     0.6292094986
   55      H       0.4750856209     0.2149262445     0.4476833610
   56      H      -0.3152587553    -0.7444998977    -0.8558818181
 ----------------------------------------------------------------

   10   -1510.2936967834      5.24E-09 Convergence criterion met
 Total energy in the final basis set = -1510.29369678
 Final energy is   -1510.29369678336
 **  OPTIMIZATION CONVERGED  **

                    Orbital Energies (a.u.)
 --------------------------------------------------------------

 Alpha MOs
 -- Occupied --
-18.941 -18.936 -18.932 -18.924 -18.889 -18.888 -18.880 -18.880
-18.877 -18.873 -10.105 -10.105 -10.099 -10.098 -10.066 -10.064
-10.063 -10.061 -10.058 -10.058 -10.057 -10.051 -10.041 -10.039
-10.038 -10.037 -10.022 -10.021 -10.020 -10.020  -1.018  -1.016
 -1.007  -1.005  -0.971  -0.970  -0.940  -0.939  -0.934  -0.934
 -0.765  -0.763  -0.728  -0.724  -0.711  -0.706  -0.695  -0.661
 -0.659  -0.613  -0.598  -0.580  -0.547  -0.545  -0.538  -0.537
 -0.514  -0.510  -0.483  -0.477  -0.466  -0.460  -0.454  -0.443
 -0.437  -0.432  -0.428  -0.416  -0.413  -0.410  -0.407  -0.399
 -0.391  -0.380  -0.371  -0.368  -0.360  -0.358  -0.356  -0.351
 -0.345  -0.337  -0.335  -0.333  -0.331  -0.329  -0.324  -0.311
 -0.309  -0.306  -0.305  -0.299  -0.293  -0.292  -0.283  -0.278
 -0.269  -0.260  -0.251  -0.247  -0.245  -0.235  -0.234  -0.187
 -0.176  -0.173  -0.173  -0.160  -0.158  -0.152  -0.149  -0.145
 -0.144

          Ground-State Mulliken Net Atomic Charges

     Atom                 Charge (a.u.)
  ----------------------------------------
      1 O                    -0.214003
      2 C                     0.211993
      3 C                    -0.078894
      4 C                    -0.077880
      5 C                     0.222113
      6 O                    -0.173951
      7 C                    -0.063650
      8 C                    -0.053345
      9 O                    -0.181304
     10 C                     0.214960
     11 C                    -0.079234
     12 C                    -0.077728
     13 C                     0.214416
     14 O                    -0.216107
     15 O                    -0.169380
     16 O                    -0.166932
     17 O                    -0.205701
     18 C                    -0.141830
     19 C                     0.024887
     20 C                    -0.143486
     21 C                    -0.144002
     22 C                     0.025762
     23 O                    -0.186831
     24 H                     0.085279
     25 H                     0.087901
     26 H                     0.090295
     27 H                     0.078630
     28 H                     0.073499
     29 H                     0.078684
     30 H                     0.074096
     31 H                     0.083208
     32 O                    -0.215611
     33 C                    -0.128331
     34 C                     0.026040
     35 C                    -0.143921
     36 C                    -0.143923
     37 C                     0.024644
     38 O                    -0.186150
     39 H                     0.085839
     40 H                     0.086479
     41 H                     0.087501
     42 H                     0.082467
     43 H                     0.078088
     44 H                     0.074147
     45 H                     0.078238
     46 H                     0.073645
     47 H                     0.090126
     48 H                     0.087714
     49 H                     0.091403
     50 H                     0.087900
     51 H                     0.085147
     52 H                     0.112069
     53 H                     0.102150
     54 H                     0.086332
     55 H                     0.106877
     56 H                     0.079665
  ----------------------------------------
  Sum of atomic charges =     0.000000

                    Cartesian Multipole Moments
 -----------------------------------------------------------------
    Charge (ESU x 10^10)
                 0.0000
    Dipole Moment (Debye)
         X       0.0709      Y      -0.2788      Z      -1.5894
       Tot       1.6152
    Quadrupole Moments (Debye-Ang)
        XX    -142.9806     XY      -9.3700     YY    -157.7266
        XZ     -13.3963     YZ       5.1553     ZZ    -164.4153

 Total job time:  113.61s(wall), 5409.16s(cpu)
        *  Thank you very much for using Q-Chem.  Have a nice day.  *
