 Q-Chem 5.0, Q-Chem, Inc., Pleasanton, CA (2017)
 Q-Chem 5.0.1 for Intel X86 EM64T Linux

User input:
--------------------------------------------------------------
$molecule
0  1
O -3.94934 -3.66094 2.70899
C -3.26408 -4.56952 2.26188
C -3.36658 -6.02376 2.66595
C -3.63629 -7.04588 1.54953
C -3.59671 -6.52161 0.1312
O -4.8678 -6.39416 -0.35202
C -5.04403 -5.23592 -1.17461
C -6.52581 -4.8936 -1.28989
O -6.68157 -3.5318 -1.71898
C -7.4055 -3.35671 -2.8523
C -6.64542 -2.61741 -3.92764
C -6.52177 -3.36505 -5.26332
C -7.45324 -4.54611 -5.44817
O -7.90235 -5.24214 -4.54906
O -2.26759 -4.24411 1.39654
O -7.62989 -4.97066 -6.72863
O -8.61097 -3.56894 -2.88144
C -8.384 -6.06751 -7.09029
C -7.33267 -1.31206 -4.35897
C -6.30276 -0.36805 -4.97509
C -6.0108 -1.08482 -6.27627
C -7.02611 -2.23189 -6.19236
O -8.10307 -1.68372 -5.47182
H -5.63322 -2.3785 -3.52561
H -5.49181 -3.68722 -5.53129
H -7.87622 -0.80726 -3.53037
H -6.83123 0.58533 -5.20362
H -5.4144 -0.15184 -4.34339
H -6.25965 -0.39819 -7.11586
H -4.97253 -1.46541 -6.38881
H -7.26655 -2.58552 -7.2185
O -2.6029 -6.06315 -0.4201
C -2.01139 -2.96708 0.94253
C -2.03333 -6.56515 3.21626
C -2.28779 -7.78818 4.09736
C -2.64542 -8.82248 3.0494
C -2.45233 -8.00258 1.76972
O -1.3988 -7.12607 2.09192
H -4.14706 -6.07664 3.45871
H -4.61486 -7.55578 1.70655
H -1.76409 -2.2996 1.79543
H -1.45314 -5.79948 3.77691
H -1.31651 -8.0758 4.55983
H -3.04561 -7.63783 4.8961
H -1.89238 -9.64075 3.09232
H -3.66973 -9.24654 3.12905
H -2.28382 -8.67411 0.89886
H -2.89481 -2.57062 0.39785
H -1.14699 -2.99526 0.24802
H -8.358 -6.1789 -8.19364
H -9.43852 -5.92824 -6.7693
H -7.96852 -6.98824 -6.62783
H -7.0413 -5.64059 -1.93633
H -6.97456 -4.95558 -0.27506
H -4.56242 -5.34722 -2.17078
H -4.58715 -4.36211 -0.65174
$end

$opt
CONSTRAINT
tors           1           2           3           4    +123.158
tors           3           4           5           6    -104.211
tors           4           5           6           7    +142.105
tors           5           6           7           8    -161.053
tors           6           7           8           9    +161.053
tors           7           8           9          10    +123.158
tors           8           9          10          11    -123.158
tors           9          10          11          12    +123.158
tors          11          12          13          14     -28.421
ENDCONSTRAINT
$end

$rem
JOBTYPE                   OPT
METHOD                    B3LYP
DFT_D                     d3_op
BASIS                     STO-3G
GEOM_OPT_MAX_CYCLES       100
GEOM_OPT_TOL_GRADIENT     300
GEOM_OPT_TOL_DISPLACEMENT 1200
GEOM_OPT_TOL_ENERGY       100
SYMMETRY                  False
THRESH                    12
SCF_CONVERGENCE           8
MAX_SUB_FILE_NUM          128
MEM_STATIC                400
MEM_TOTAL                 4000
$end
--------------------------------------------------------------

   15   -1510.1207732702      6.10E-09 Convergence criterion met
 Total energy in the final basis set = -1510.12077327
   14   -1510.1915385607      4.26E-09 Convergence criterion met
 Total energy in the final basis set = -1510.19153856
   14   -1510.2291058273      4.93E-09 Convergence criterion met
 Total energy in the final basis set = -1510.22910583
   14   -1510.2450208011      5.55E-09 Convergence criterion met
 Total energy in the final basis set = -1510.24502080
   14   -1510.2503589152      2.97E-09 Convergence criterion met
 Total energy in the final basis set = -1510.25035892
   13   -1510.2527293827      4.27E-09 Convergence criterion met
 Total energy in the final basis set = -1510.25272938
   13   -1510.2540480782      2.65E-09 Convergence criterion met
 Total energy in the final basis set = -1510.25404808
   13   -1510.2548006919      5.48E-09 Convergence criterion met
   11   -1510.2558709867      8.71E-09 Convergence criterion met
 Total energy in the final basis set = -1510.25587099
   11   -1510.2559315662      9.37E-09 Convergence criterion met
 Total energy in the final basis set = -1510.25593157
   11   -1510.2559734979      6.22E-09 Convergence criterion met
 Total energy in the final basis set = -1510.25597350
   11   -1510.2559894538      3.57E-09 Convergence criterion met
 Total energy in the final basis set = -1510.25598945
   10   -1510.2559960190      6.27E-09 Convergence criterion met
 Total energy in the final basis set = -1510.25599602
    9   -1510.2559942103      9.14E-09 Convergence criterion met
 Total energy in the final basis set = -1510.25599421

             Standard Nuclear Orientation (Angstroms)
    I     Atom           X                Y                Z
 ----------------------------------------------------------------
    1      O      -3.5672019392    -2.3398960543     1.3799151674
    2      C      -3.9038898589    -1.5191588854     0.4966515113
    3      C      -4.6840324372    -0.1797055817     0.7235209531
    4      C      -3.9842937424     1.1560168613     0.2058069707
    5      C      -2.6394038108     0.9198326472    -0.5671278916
    6      O      -1.5410743774     1.2722724591     0.3015577028
    7      C      -0.4181865444     0.3218370002     0.0990403112
    8      C       0.5162769689     0.4255118709     1.3577261818
    9      O       1.3444228725    -0.8052575338     1.3845824046
   10      C       2.7550772208    -0.4698734547     1.3816118728
   11      C       3.4721520980    -1.1565829903     0.1584268802
   12      C       4.2161199312    -0.1265357357    -0.7914857906
   13      C       3.8894320117     1.3811291954    -0.4950357998
   14      O       2.8352491698     1.8459345214    -0.0057528329
   15      O      -3.7092538973    -1.7314311632    -0.9030061904
   16      O       4.9842515427     2.1887240942    -0.9268900698
   17      O       3.3010732989     0.2367786446     2.2540513226
   18      C       4.6889817480     3.6195508893    -0.6780463176
   19      C       4.7113061059    -2.0227153519     0.6522835621
   20      C       5.2368799968    -2.9019518816    -0.5519748294
   21      C       6.0274390372    -1.8322746145    -1.3933276580
   22      C       5.7370373501    -0.5244714319    -0.5592811045
   23      O       5.7676910197    -1.0024265814     0.8413999056
   24      H       2.7275676400    -1.7591319155    -0.3898433204
   25      H       3.9288665634    -0.3125819380    -1.8439970726
   26      H       4.5340275688    -2.5750545335     1.5954876618
   27      H       5.8989567600    -3.7030887003    -0.1869190436
   28      H       4.4088247010    -3.3592320188    -1.1170286896
   29      H       7.1080149221    -2.0464149494    -1.4039424010
   30      H       5.6710094112    -1.7549314618    -2.4329041031
   31      H       6.4472716156     0.3114718648    -0.7072633554
   32      O      -2.4937507618     0.4768691004    -1.7253430681
   33      C      -2.9915272659    -3.0061228256    -1.1309338381
   34      C      -6.0494846371    -0.1356736688    -0.0975827158
   35      C      -6.9919432056     0.9376156150     0.5764833594
   36      C      -6.3025361322     2.2747249352     0.1144785219
   37      C      -5.1124509678     1.7174795894    -0.7632726981
   38      O      -5.6710732040     0.4933929628    -1.3802015136
   39      H      -4.8739236738    -0.1089597991     1.8092279207
   40      H      -3.7793012600     1.8382948376     1.0495071236
   41      H      -3.5677877617    -3.8745708218    -0.7510490800
   42      H      -6.5112884500    -1.1266529121    -0.2722347192
   43      H      -8.0153020744     0.8518008068     0.1774387280
   44      H      -7.0287794257     0.8318443663     1.6724062983
   45      H      -6.9803112363     2.8899152656    -0.4984592696
   46      H      -5.9427289851     2.8807478280     0.9612959214
   47      H      -4.7385808527     2.4053754795    -1.5461352410
   48      H      -1.9942930322    -3.0069313418    -0.6448657150
   49      H      -2.8689163985    -3.0910735687    -2.2262221889
   50      H       5.5835984107     4.1763887048    -1.0119947602
   51      H       4.5077395159     3.8143424304     0.3985378052
   52      H       3.8030676395     3.9583561210    -1.2530618422
   53      H       1.1462673302     1.3365581425     1.2902991594
   54      H      -0.1135076907     0.4765487597     2.2738121510
   55      H       0.1574602829     0.5580554243    -0.8236061348
   56      H      -0.7970903739    -0.7195194186     0.0102344466
 ----------------------------------------------------------------

    8   -1510.2559947829      9.82E-09 Convergence criterion met
 Total energy in the final basis set = -1510.25599478
 Final energy is   -1510.25599478293
 **  OPTIMIZATION CONVERGED  **

                    Orbital Energies (a.u.)
 --------------------------------------------------------------

 Alpha MOs
 -- Occupied --
-18.946 -18.934 -18.916 -18.901 -18.890 -18.888 -18.886 -18.884
-18.881 -18.871 -10.110 -10.099 -10.096 -10.096 -10.071 -10.065
-10.062 -10.061 -10.061 -10.061 -10.060 -10.058 -10.044 -10.038
-10.036 -10.036 -10.022 -10.021 -10.020 -10.019  -1.022  -1.011
 -1.003  -0.999  -0.972  -0.970  -0.945  -0.936  -0.932  -0.927
 -0.765  -0.761  -0.725  -0.722  -0.711  -0.706  -0.693  -0.667
 -0.659  -0.611  -0.598  -0.575  -0.547  -0.545  -0.540  -0.537
 -0.516  -0.513  -0.483  -0.476  -0.464  -0.456  -0.452  -0.441
 -0.435  -0.434  -0.428  -0.417  -0.414  -0.411  -0.410  -0.395
 -0.389  -0.382  -0.377  -0.369  -0.361  -0.358  -0.351  -0.349
 -0.344  -0.342  -0.333  -0.332  -0.328  -0.325  -0.320  -0.314
 -0.307  -0.306  -0.305  -0.301  -0.300  -0.291  -0.281  -0.275
 -0.274  -0.259  -0.254  -0.241  -0.238  -0.236  -0.234  -0.186
 -0.177  -0.167  -0.164  -0.157  -0.153  -0.150  -0.147  -0.144
 -0.143

          Ground-State Mulliken Net Atomic Charges

     Atom                 Charge (a.u.)
  ----------------------------------------
      1 O                    -0.215229
      2 C                     0.200624
      3 C                    -0.079654
      4 C                    -0.079038
      5 C                     0.209003
      6 O                    -0.183610
      7 C                    -0.046514
      8 C                    -0.049752
      9 O                    -0.195290
     10 C                     0.219314
     11 C                    -0.081809
     12 C                    -0.079308
     13 C                     0.214827
     14 O                    -0.218061
     15 O                    -0.161113
     16 O                    -0.167257
     17 O                    -0.191200
     18 C                    -0.127561
     19 C                     0.025632
     20 C                    -0.144670
     21 C                    -0.143280
     22 C                     0.024298
     23 O                    -0.186556
     24 H                     0.084633
     25 H                     0.085564
     26 H                     0.084536
     27 H                     0.078607
     28 H                     0.073686
     29 H                     0.078803
     30 H                     0.073221
     31 H                     0.092358
     32 O                    -0.193790
     33 C                    -0.127067
     34 C                     0.027244
     35 C                    -0.143612
     36 C                    -0.144461
     37 C                     0.026254
     38 O                    -0.182879
     39 H                     0.085366
     40 H                     0.086360
     41 H                     0.088217
     42 H                     0.083601
     43 H                     0.078035
     44 H                     0.074053
     45 H                     0.077938
     46 H                     0.073759
     47 H                     0.084605
     48 H                     0.086088
     49 H                     0.094175
     50 H                     0.092909
     51 H                     0.094432
     52 H                     0.090073
     53 H                     0.104355
     54 H                     0.083778
     55 H                     0.083038
     56 H                     0.082323
  ----------------------------------------
  Sum of atomic charges =     0.000000

                    Cartesian Multipole Moments
 -----------------------------------------------------------------
    Charge (ESU x 10^10)
                 0.0000
    Dipole Moment (Debye)
         X       0.1826      Y       0.4783      Z      -1.6691
       Tot       1.7458
    Quadrupole Moments (Debye-Ang)
        XX    -151.0989     XY      -3.7105     YY    -147.7137
        XZ     -19.2087     YZ       3.8288     ZZ    -168.7313

 Total job time:  51.74s(wall), 2456.56s(cpu)
        *  Thank you very much for using Q-Chem.  Have a nice day.  *
