 Q-Chem 5.0, Q-Chem, Inc., Pleasanton, CA (2017)
 Q-Chem 5.0.1 for Intel X86 EM64T Linux

User input:
--------------------------------------------------------------
$molecule
0  1
O -3.94934 -3.66094 2.70899
C -3.26408 -4.56952 2.26188
C -3.36658 -6.02376 2.66595
C -2.76261 -7.06348 1.7078
C -1.9673 -6.5228 0.54022
O -0.67699 -6.29287 0.92447
C 0.03527 -7.49087 1.2512
C -0.56231 -8.13412 2.4983
O -0.9645 -9.48219 2.20878
C -0.04954 -10.23465 1.54863
C 0.31204 -11.50213 2.28579
C 0.5298 -12.7314 1.3915
C 0.70789 -12.44979 -0.0869
O 1.1714 -11.42319 -0.5621
O -2.12741 -4.17066 1.63163
O 0.18184 -13.37644 -0.93014
O 0.93885 -9.76453 1.00665
C 0.2049 -13.27771 -2.30561
C 1.66103 -11.4416 3.03635
C 1.68729 -12.49047 4.14733
C 1.80095 -13.76045 3.33061
C 1.91151 -13.17159 1.9199
O 2.5881 -11.95348 2.11427
H -0.49257 -11.6926 3.03322
H -0.22216 -13.54177 1.52009
H 1.88366 -10.4342 3.45131
H 2.63457 -12.34733 4.7151
H 0.82824 -12.45346 4.85128
H 2.74862 -14.27254 3.60996
H 0.94629 -14.46508 3.42266
H 2.40919 -13.89824 1.23926
O -2.45632 -5.86231 -0.37315
C -1.82212 -2.86932 1.28598
C -3.82107 -6.82746 3.91197
C -5.23802 -7.37179 3.7304
C -4.98475 -8.33665 2.56456
C -3.41983 -8.31107 2.46737
O -3.09955 -8.03695 3.81116
H -4.36145 -5.90443 2.17102
H -3.51662 -7.29689 0.92121
H -1.76751 -2.2321 2.19421
H -3.65281 -6.27881 4.86236
H -5.47658 -7.95447 4.64928
H -6.0373 -6.61933 3.55645
H -5.35819 -9.33773 2.87525
H -5.46846 -8.05294 1.60524
H -3.14469 -9.29886 2.06049
H -2.59093 -2.46993 0.59043
H -0.8366 -2.85092 0.77724
H -0.28924 -14.16946 -2.74274
H 1.25441 -13.23658 -2.66807
H -0.34212 -12.36818 -2.63398
H 0.33757 -8.28941 3.13882
H -1.00941 -7.50906 3.28384
H 1.08836 -7.18514 1.44456
H -0.02657 -8.03389 0.28342
$end

$opt
CONSTRAINT
tors           1           2           3           4    +161.053
tors           3           4           5           6     +85.263
tors           4           5           6           7     +66.316
tors           5           6           7           8     -66.316
tors           6           7           8           9    +123.158
tors           7           8           9          10     +47.368
tors           8           9          10          11    +123.158
tors           9          10          11          12    +142.105
tors          11          12          13          14     +28.421
ENDCONSTRAINT
$end

$rem
JOBTYPE                   OPT
METHOD                    B3LYP
DFT_D                     d3_op
BASIS                     STO-3G
GEOM_OPT_MAX_CYCLES       100
GEOM_OPT_TOL_GRADIENT     300
GEOM_OPT_TOL_DISPLACEMENT 1200
GEOM_OPT_TOL_ENERGY       100
SYMMETRY                  False
THRESH                    12
SCF_CONVERGENCE           8
MAX_SUB_FILE_NUM          128
MEM_STATIC                400
MEM_TOTAL                 4000
$end
--------------------------------------------------------------

   16   -1509.8556851617      6.36E-09 Convergence criterion met
 Total energy in the final basis set = -1509.85568516
   14   -1509.9488305794      8.59E-09 Convergence criterion met
 Total energy in the final basis set = -1509.94883058
   14   -1510.0103883893      5.28E-09 Convergence criterion met
 Total energy in the final basis set = -1510.01038839
   14   -1510.0541774063      6.75E-09 Convergence criterion met
 Total energy in the final basis set = -1510.05417741
   13   -1510.0864538432      9.86E-09 Convergence criterion met
 Total energy in the final basis set = -1510.08645384
   13   -1510.1119014158      7.66E-09 Convergence criterion met
 Total energy in the final basis set = -1510.11190142
   13   -1510.1329472932      5.93E-09 Convergence criterion met
 Total energy in the final basis set = -1510.13294729
   13   -1510.1510725436      7.49E-09 Convergence criterion met
   12   -1510.2237979807      6.16E-09 Convergence criterion met
 Total energy in the final basis set = -1510.22379798
   11   -1510.2238196501      7.61E-09 Convergence criterion met
 Total energy in the final basis set = -1510.22381965
   11   -1510.2238322482      5.29E-09 Convergence criterion met
 Total energy in the final basis set = -1510.22383225
    9   -1510.2238391948      9.56E-09 Convergence criterion met
 Total energy in the final basis set = -1510.22383919
   11   -1510.2238452450      2.82E-09 Convergence criterion met
 Total energy in the final basis set = -1510.22384525
    9   -1510.2238474206      4.82E-09 Convergence criterion met
 Total energy in the final basis set = -1510.22384742

             Standard Nuclear Orientation (Angstroms)
    I     Atom           X                Y                Z
 ----------------------------------------------------------------
    1      O       6.6103546539    -0.1751428457    -0.5122658766
    2      C       5.3860636613     0.0498534508    -0.3854236118
    3      C       4.5260822207    -0.2611609058     0.8856877253
    4      C       3.1276208831     0.4713265260     1.0791219696
    5      C       2.8216079770     1.6571517825     0.0385230036
    6      O       2.2474312004     1.6021678121    -1.2979623650
    7      C       0.8445082269     1.1846699442    -1.4499488752
    8      C       0.5368012260    -0.3236243823    -1.0634448924
    9      O      -0.4930528870    -0.5664776298    -0.0246827871
   10      C      -1.7143434136     0.1861352643    -0.2253877767
   11      C      -2.9186940975    -0.8211607324    -0.3014814457
   12      C      -4.2844396163    -0.3874079551     0.3719782185
   13      C      -4.2596150083     0.7847551995     1.4125847927
   14      O      -3.4956705654     1.7659654354     1.5180383331
   15      O       4.5522602154     0.5458075848    -1.4279111166
   16      O      -5.3778542526     0.5611624275     2.2887989712
   17      O      -1.7617675073     1.4235037381    -0.3967063071
   18      C      -5.4766500541     1.6633889840     3.2723397206
   19      C      -3.3699151553    -0.8769501167    -1.8306690066
   20      C      -4.3862526735    -2.0695753618    -2.0405316772
   21      C      -5.7128417365    -1.4512842637    -1.4618377598
   22      C      -5.1784445966    -0.0705206646    -0.9161265796
   23      O      -4.2037839927     0.3393119251    -1.9505344106
   24      H      -2.5718535824    -1.8018308884     0.0684599137
   25      H      -4.7189355334    -1.2525869472     0.9037810567
   26      H      -2.5326621649    -0.8453189291    -2.5548903395
   27      H      -4.4816399193    -2.3107666628    -3.1109965717
   28      H      -4.0710682009    -2.9768710073    -1.5010304961
   29      H      -6.4585765382    -1.2853181281    -2.2558517220
   30      H      -6.1666727278    -2.0690431075    -0.6708603610
   31      H      -5.9455546132     0.7142222449    -0.7694472543
   32      O       3.3157436097     2.7698875004     0.3475835001
   33      C       5.3445356550     0.8489325985    -2.6397869022
   34      C       4.0456218109    -1.7907684181     0.8873666786
   35      C       3.8421279344    -2.2172098605     2.3890582878
   36      C       2.5479166648    -1.3989658641     2.7499232647
   37      C       2.1709402796    -0.7555359210     1.3545857651
   38      O       2.6551359269    -1.7554770316     0.3687636473
   39      H       5.1746689240    -0.0768471215     1.7596355246
   40      H       3.2015935102     1.0542537616     2.0164374287
   41      H       5.7927814968    -0.0697532536    -3.0711113659
   42      H       4.6695548877    -2.4728822415     0.2773055536
   43      H       3.6654107137    -3.3025796746     2.4600003079
   44      H       4.7079198880    -1.9562293312     3.0182191930
   45      H       1.7353210107    -2.0568945798     3.0962701835
   46      H       2.7316927019    -0.6327354609     3.5199779433
   47      H       1.0847751259    -0.5640232988     1.2267099970
   48      H       6.1561771771     1.5733770409    -2.4254620787
   49      H       4.6314993874     1.2900898631    -3.3602779612
   50      H      -6.3408140971     1.4207050622     3.9177726025
   51      H      -5.6476976543     2.6406582689     2.7760570511
   52      H      -4.5604262551     1.7422923384     3.8924768576
   53      H       0.1846394810    -0.8314062365    -1.9897862699
   54      H       1.4600892163    -0.8576201799    -0.7476942014
   55      H       0.6475226315     1.3236994035    -2.5317336113
   56      H       0.1351860120     1.8372316380    -0.8884233996
 ----------------------------------------------------------------

    9   -1510.2238482944      5.98E-09 Convergence criterion met
 Total energy in the final basis set = -1510.22384829
 Final energy is   -1510.22384829436
 **  OPTIMIZATION CONVERGED  **

                    Orbital Energies (a.u.)
 --------------------------------------------------------------

 Alpha MOs
 -- Occupied --
-18.938 -18.931 -18.915 -18.902 -18.899 -18.897 -18.896 -18.879
-18.871 -18.869 -10.107 -10.099 -10.099 -10.093 -10.068 -10.066
-10.065 -10.064 -10.063 -10.056 -10.055 -10.052 -10.042 -10.041
-10.038 -10.034 -10.027 -10.025 -10.023 -10.021  -1.013  -1.012
 -1.007  -0.988  -0.978  -0.977  -0.941  -0.935  -0.934  -0.919
 -0.767  -0.764  -0.727  -0.721  -0.714  -0.706  -0.691  -0.663
 -0.660  -0.612  -0.598  -0.586  -0.550  -0.548  -0.543  -0.541
 -0.519  -0.510  -0.476  -0.474  -0.469  -0.458  -0.450  -0.440
 -0.438  -0.429  -0.419  -0.413  -0.412  -0.410  -0.407  -0.406
 -0.391  -0.380  -0.376  -0.371  -0.365  -0.355  -0.348  -0.345
 -0.340  -0.339  -0.335  -0.334  -0.333  -0.329  -0.319  -0.316
 -0.313  -0.312  -0.306  -0.304  -0.296  -0.291  -0.283  -0.276
 -0.274  -0.256  -0.251  -0.244  -0.241  -0.239  -0.213  -0.178
 -0.177  -0.175  -0.170  -0.157  -0.152  -0.151  -0.149  -0.139
 -0.131

          Ground-State Mulliken Net Atomic Charges

     Atom                 Charge (a.u.)
  ----------------------------------------
      1 O                    -0.215776
      2 C                     0.207487
      3 C                    -0.081489
      4 C                    -0.081863
      5 C                     0.211326
      6 O                    -0.178779
      7 C                    -0.061116
      8 C                    -0.071603
      9 O                    -0.196669
     10 C                     0.217773
     11 C                    -0.079590
     12 C                    -0.080998
     13 C                     0.205773
     14 O                    -0.202980
     15 O                    -0.162810
     16 O                    -0.174099
     17 O                    -0.177424
     18 C                    -0.129521
     19 C                     0.025957
     20 C                    -0.144623
     21 C                    -0.142102
     22 C                     0.027165
     23 O                    -0.185205
     24 H                     0.087673
     25 H                     0.086796
     26 H                     0.081003
     27 H                     0.079533
     28 H                     0.075380
     29 H                     0.079193
     30 H                     0.075759
     31 H                     0.085882
     32 O                    -0.195728
     33 C                    -0.125149
     34 C                     0.026579
     35 C                    -0.142182
     36 C                    -0.144528
     37 C                     0.011685
     38 O                    -0.194399
     39 H                     0.087959
     40 H                     0.085731
     41 H                     0.087828
     42 H                     0.084726
     43 H                     0.078358
     44 H                     0.076116
     45 H                     0.078595
     46 H                     0.075118
     47 H                     0.101505
     48 H                     0.091898
     49 H                     0.096847
     50 H                     0.089390
     51 H                     0.088947
     52 H                     0.088981
     53 H                     0.068037
     54 H                     0.116342
     55 H                     0.085286
     56 H                     0.102002
  ----------------------------------------
  Sum of atomic charges =    -0.000000

                    Cartesian Multipole Moments
 -----------------------------------------------------------------
    Charge (ESU x 10^10)
                 0.0000
    Dipole Moment (Debye)
         X      -2.6766      Y      -3.8812      Z       0.8956
       Tot       4.7990
    Quadrupole Moments (Debye-Ang)
        XX    -156.7649     XY      -0.6607     YY    -167.8880
        XZ      -3.0414     YZ       2.2141     ZZ    -147.7720

 Total job time:  110.24s(wall), 5248.95s(cpu)
        *  Thank you very much for using Q-Chem.  Have a nice day.  *
