 Q-Chem 5.0, Q-Chem, Inc., Pleasanton, CA (2017)
 Q-Chem 5.0.1 for Intel X86 EM64T Linux

User input:
--------------------------------------------------------------
$molecule
0  1
O 6.6103546539 -0.1751428457 -0.5122658766
C 5.3860636613 0.0498534508 -0.3854236118
C 4.5260822207 -0.2611609058 0.8856877253
C 3.1276208831 0.471326526 1.0791219696
C 2.821607977 1.6571517825 0.0385230036
O 2.2474312004 1.6021678121 -1.297962365
C 0.8445082269 1.1846699442 -1.4499488752
C 0.536801226 -0.3236243823 -1.0634448924
O -0.493052887 -0.5664776298 -0.0246827871
C -1.7143434136 0.1861352643 -0.2253877767
C -2.9186940975 -0.8211607324 -0.3014814457
C -4.2844396163 -0.3874079551 0.3719782185
C -4.2596150083 0.7847551995 1.4125847927
O -3.4956705654 1.7659654354 1.5180383331
O 4.5522602154 0.5458075848 -1.4279111166
O -5.3778542526 0.5611624275 2.2887989712
O -1.7617675073 1.4235037381 -0.3967063071
C -5.4766500541 1.663388984 3.2723397206
C -3.3699151553 -0.8769501167 -1.8306690066
C -4.3862526735 -2.0695753618 -2.0405316772
C -5.7128417365 -1.4512842637 -1.4618377598
C -5.1784445966 -0.0705206646 -0.9161265796
O -4.2037839927 0.3393119251 -1.9505344106
H -2.5718535824 -1.8018308884 0.0684599137
H -4.7189355334 -1.2525869472 0.9037810567
H -2.5326621649 -0.8453189291 -2.5548903395
H -4.4816399193 -2.3107666628 -3.1109965717
H -4.0710682009 -2.9768710073 -1.5010304961
H -6.4585765382 -1.2853181281 -2.255851722
H -6.1666727278 -2.0690431075 -0.670860361
H -5.9455546132 0.7142222449 -0.7694472543
O 3.3157436097 2.7698875004 0.3475835001
C 5.344535655 0.8489325985 -2.6397869022
C 4.0456218109 -1.7907684181 0.8873666786
C 3.8421279344 -2.2172098605 2.3890582878
C 2.5479166648 -1.3989658641 2.7499232647
C 2.1709402796 -0.755535921 1.3545857651
O 2.6551359269 -1.7554770316 0.3687636473
H 5.174668924 -0.0768471215 1.7596355246
H 3.2015935102 1.0542537616 2.0164374287
H 5.7927814968 -0.0697532536 -3.0711113659
H 4.6695548877 -2.4728822415 0.2773055536
H 3.6654107137 -3.3025796746 2.4600003079
H 4.707919888 -1.9562293312 3.018219193
H 1.7353210107 -2.0568945798 3.0962701835
H 2.7316927019 -0.6327354609 3.5199779433
H 1.0847751259 -0.5640232988 1.226709997
H 6.1561771771 1.5733770409 -2.4254620787
H 4.6314993874 1.2900898631 -3.3602779612
H -6.3408140971 1.4207050622 3.9177726025
H -5.6476976543 2.6406582689 2.7760570511
H -4.5604262551 1.7422923384 3.8924768576
H 0.184639481 -0.8314062365 -1.9897862699
H 1.4600892163 -0.8576201799 -0.7476942014
H 0.6475226315 1.3236994035 -2.5317336113
H 0.135186012 1.837231638 -0.8884233996
$end

$rem
JOBTYPE                   OPT
METHOD                    B3LYP
DFT_D                     d3_op
BASIS                     STO-3G
GEOM_OPT_MAX_CYCLES       100
GEOM_OPT_TOL_GRADIENT     300
GEOM_OPT_TOL_DISPLACEMENT 1200
GEOM_OPT_TOL_ENERGY       100
SYMMETRY                  False
THRESH                    12
SCF_CONVERGENCE           8
MAX_SUB_FILE_NUM          128
MEM_STATIC                400
MEM_TOTAL                 4000
$end
--------------------------------------------------------------

   16   -1510.2238425078      6.63E-09 Convergence criterion met
 Total energy in the final basis set = -1510.22384251
   15   -1510.2278740135      5.63E-09 Convergence criterion met
 Total energy in the final basis set = -1510.22787401
   14   -1510.2313918953      7.61E-09 Convergence criterion met
 Total energy in the final basis set = -1510.23139190
   14   -1510.2359805809      4.46E-09 Convergence criterion met
 Total energy in the final basis set = -1510.23598058
   14   -1510.2399134091      5.48E-09 Convergence criterion met
 Total energy in the final basis set = -1510.23991341
   14   -1510.2436454338      8.14E-09 Convergence criterion met
 Total energy in the final basis set = -1510.24364543
   14   -1510.2475393600      4.15E-09 Convergence criterion met
 Total energy in the final basis set = -1510.24753936
   13   -1510.2512328894      8.86E-09 Convergence criterion met
   11   -1510.2830896643      9.66E-09 Convergence criterion met
 Total energy in the final basis set = -1510.28308966
   10   -1510.2830918349      7.15E-09 Convergence criterion met
 Total energy in the final basis set = -1510.28309183
    9   -1510.2830902178      7.76E-09 Convergence criterion met
 Total energy in the final basis set = -1510.28309022
    9   -1510.2830900247      4.78E-09 Convergence criterion met
 Total energy in the final basis set = -1510.28309002
    9   -1510.2830892352      3.08E-09 Convergence criterion met
 Total energy in the final basis set = -1510.28308924
    9   -1510.2830880041      4.41E-09 Convergence criterion met
 Total energy in the final basis set = -1510.28308800

             Standard Nuclear Orientation (Angstroms)
    I     Atom           X                Y                Z
 ----------------------------------------------------------------
    1      O      -4.5784671722    -1.5135851707    -2.0328054810
    2      C      -4.3006850057    -1.1659211581    -0.8631432846
    3      C      -2.9013467601    -1.3444011079    -0.1575509364
    4      C      -1.7792183667    -0.3335687602    -0.6471786814
    5      C      -2.4634435387     0.8714491410    -1.4118844217
    6      O      -1.7286621374     1.7511650590    -2.2660450543
    7      C      -0.2585278379     1.7734397707    -2.1522108033
    8      C       0.2254521043     2.8519664674    -1.0964367930
    9      O       0.8276691215     2.2075728391     0.0925780994
   10      C       2.2638728972     2.1470473406    -0.0536399751
   11      C       2.8641853648     1.3780452763     1.1782301053
   12      C       2.8805135740    -0.1985039395     1.0303111902
   13      C       2.2537393302    -0.7010611478    -0.3081501944
   14      O       1.9457786904    -0.0144501917    -1.3093656337
   15      O      -5.2727161731    -0.7197251075     0.0943249027
   16      O       2.0797616614    -2.1176681871    -0.2334711477
   17      O       2.8948273115     2.7431395647    -0.9510958298
   18      C       1.5660028254    -2.6424573791    -1.5224926755
   19      C       4.4167498645     1.6787038071     1.3111210485
   20      C       4.8986680901     1.2289071919     2.7449367258
   21      C       4.9210442223    -0.3362426399     2.5818167562
   22      C       4.4460068058    -0.4920433693     1.0839025189
   23      O       5.0333444685     0.6813957773     0.4037690984
   24      H       2.2995287657     1.6769121887     2.0795201557
   25      H       2.3602924937    -0.6953894959     1.8671060647
   26      H       4.7047203060     2.7029683837     1.0050171145
   27      H       5.9036470323     1.6277847693     2.9547470791
   28      H       4.2116578020     1.5649420637     3.5379187810
   29      H       5.9380719599    -0.7412930600     2.7046003555
   30      H       4.2479339869    -0.8500945080     3.2865757706
   31      H       4.7502631703    -1.4325354937     0.5846438984
   32      O      -3.7022870603     1.0711157038    -1.3694993197
   33      C      -6.5754938345    -0.5271452339    -0.5775640562
   34      C      -2.9050003631    -1.0641232727     1.4072560249
   35      C      -1.7220444687    -1.8930106988     2.0331858039
   36      C      -0.4911332928    -1.0886035155     1.4802902103
   37      C      -1.1942118170     0.1323248175     0.7552854239
   38      O      -2.4341437445     0.3368921909     1.5389966381
   39      H      -2.5732668220    -2.3796443610    -0.3628133733
   40      H      -1.0270306628    -0.8265783443    -1.2872170500
   41      H      -6.9179467247    -1.4525560916    -1.0847565340
   42      H      -3.8946420774    -1.1868043117     1.8858361226
   43      H      -1.7653779017    -1.8589430828     3.1335819289
   44      H      -1.7269576376    -2.9462030568     1.7100551914
   45      H       0.1416373752    -0.7169839564     2.3009532563
   46      H       0.1374848943    -1.6866745436     0.8011706079
   47      H      -0.5585698212     1.0452707322     0.7055484852
   48      H      -6.5223959196     0.2877162966    -1.3285226692
   49      H      -7.2930940173    -0.2509614149     0.2169452284
   50      H       1.5239314477    -3.7409055422    -1.4070257497
   51      H       2.2361820744    -2.3785513440    -2.3651848940
   52      H       0.5500468524    -2.2560766873    -1.7432850124
   53      H       0.9830477494     3.5174760777    -1.5604751688
   54      H      -0.6433929671     3.4453853637    -0.7448405332
   55      H       0.0960280640     2.0729016916    -3.1597144633
   56      H       0.2091926622     0.7955050106    -1.9029055741
 ----------------------------------------------------------------

    9   -1510.2830868893      3.69E-09 Convergence criterion met
 Total energy in the final basis set = -1510.28308689
 Final energy is   -1510.28308688928
 **  OPTIMIZATION CONVERGED  **

                    Orbital Energies (a.u.)
 --------------------------------------------------------------

 Alpha MOs
 -- Occupied --
-18.963 -18.939 -18.936 -18.913 -18.906 -18.899 -18.884 -18.880
-18.878 -18.845 -10.127 -10.109 -10.101 -10.085 -10.083 -10.073
-10.071 -10.070 -10.068 -10.055 -10.050 -10.049 -10.048 -10.047
-10.037 -10.030 -10.029 -10.027 -10.016 -10.014  -1.039  -1.018
 -1.008  -0.989  -0.982  -0.963  -0.962  -0.945  -0.935  -0.914
 -0.776  -0.757  -0.735  -0.722  -0.717  -0.704  -0.699  -0.682
 -0.645  -0.623  -0.598  -0.591  -0.557  -0.547  -0.542  -0.533
 -0.527  -0.507  -0.491  -0.481  -0.475  -0.467  -0.455  -0.452
 -0.444  -0.438  -0.434  -0.424  -0.421  -0.407  -0.400  -0.397
 -0.394  -0.393  -0.382  -0.376  -0.372  -0.362  -0.359  -0.355
 -0.349  -0.345  -0.339  -0.333  -0.326  -0.326  -0.321  -0.317
 -0.315  -0.312  -0.304  -0.300  -0.296  -0.292  -0.288  -0.277
 -0.274  -0.268  -0.254  -0.245  -0.241  -0.233  -0.226  -0.203
 -0.191  -0.180  -0.166  -0.163  -0.156  -0.155  -0.148  -0.140
 -0.129

          Ground-State Mulliken Net Atomic Charges

     Atom                 Charge (a.u.)
  ----------------------------------------
      1 O                    -0.230492
      2 C                     0.214745
      3 C                    -0.080573
      4 C                    -0.082404
      5 C                     0.215098
      6 O                    -0.169465
      7 C                    -0.056040
      8 C                    -0.057034
      9 O                    -0.180159
     10 C                     0.218331
     11 C                    -0.080921
     12 C                    -0.078817
     13 C                     0.219235
     14 O                    -0.210861
     15 O                    -0.172477
     16 O                    -0.165287
     17 O                    -0.207450
     18 C                    -0.128784
     19 C                     0.026308
     20 C                    -0.144307
     21 C                    -0.143176
     22 C                     0.025954
     23 O                    -0.186366
     24 H                     0.087917
     25 H                     0.091481
     26 H                     0.090814
     27 H                     0.080625
     28 H                     0.075271
     29 H                     0.080499
     30 H                     0.075088
     31 H                     0.085789
     32 O                    -0.193108
     33 C                    -0.126844
     34 C                     0.023519
     35 C                    -0.143949
     36 C                    -0.151223
     37 C                     0.006619
     38 O                    -0.191435
     39 H                     0.077628
     40 H                     0.073241
     41 H                     0.085204
     42 H                     0.093003
     43 H                     0.075113
     44 H                     0.070697
     45 H                     0.069008
     46 H                     0.072195
     47 H                     0.098774
     48 H                     0.092054
     49 H                     0.085498
     50 H                     0.097265
     51 H                     0.095979
     52 H                     0.087667
     53 H                     0.101791
     54 H                     0.094566
     55 H                     0.093117
     56 H                     0.101080
  ----------------------------------------
  Sum of atomic charges =    -0.000000

                    Cartesian Multipole Moments
 -----------------------------------------------------------------
    Charge (ESU x 10^10)
                 0.0000
    Dipole Moment (Debye)
         X       3.4624      Y      -2.4142      Z       2.5957
       Tot       4.9552
    Quadrupole Moments (Debye-Ang)
        XX    -171.3506     XY      -1.2357     YY    -155.8027
        XZ       2.2617     YZ       2.9349     ZZ    -161.5133

 Total job time:  172.41s(wall), 8201.69s(cpu)
        *  Thank you very much for using Q-Chem.  Have a nice day.  *
