 Q-Chem 5.0, Q-Chem, Inc., Pleasanton, CA (2017)
 Q-Chem 5.0.1 for Intel X86 EM64T Linux

User input:
--------------------------------------------------------------
$molecule
0  1
O -3.94934 -3.66094 2.70899
C -3.26408 -4.56952 2.26188
C -3.36658 -6.02376 2.66595
C -2.40867 -7.01244 1.98128
C -1.33566 -6.41165 1.10049
O -0.17315 -7.11483 1.2402
C -0.38357 -8.48722 1.58879
C 0.63011 -9.37301 0.87188
O 0.41446 -10.74836 1.22513
C 0.95786 -11.65949 0.38031
C 2.46783 -11.63389 0.37946
C 3.09313 -10.34868 -0.18223
C 2.15749 -9.16463 -0.3212
O 1.63104 -8.56474 0.60484
O -2.42674 -4.19509 1.29875
O 1.94617 -8.74682 -1.59498
O 0.2916 -12.52738 -0.16105
C 1.16059 -7.66113 -1.91779
C 3.19052 -11.71949 1.74899
C 4.60487 -12.2655 1.53727
C 5.28127 -11.07791 0.86989
C 4.13865 -10.05697 0.91459
O 3.46837 -10.3731 2.09667
H 2.77522 -12.51515 -0.22906
H 3.55021 -10.53555 -1.18025
H 2.63403 -12.30646 2.50362
H 5.06693 -12.42613 2.53792
H 4.6496 -13.21477 0.95705
H 6.11302 -10.72939 1.52239
H 5.65072 -11.2614 -0.159
H 4.52762 -9.01057 0.85188
O -1.51674 -5.86759 0.02015
C -2.23863 -2.94972 0.76843
C -3.14812 -6.19066 4.18145
C -3.71804 -7.53536 4.69146
C -2.80703 -8.50665 4.02073
C -1.86952 -7.47703 3.42799
O -1.83688 -6.35673 4.2466
H -4.42727 -6.29988 2.46852
H -3.01119 -7.74062 1.39128
H -1.85485 -2.30328 1.57538
H -3.43875 -5.3333 4.82302
H -3.50883 -7.62887 5.78033
H -4.77675 -7.67961 4.44058
H -2.25103 -9.14882 4.74762
H -3.26905 -9.1905 3.2545
H -0.92564 -7.77643 3.76112
H -3.19102 -2.59374 0.3268
H -1.47661 -3.05886 -0.02986
H 1.07083 -7.59529 -3.01767
H 1.62423 -6.74523 -1.50214
H 0.14498 -7.79166 -1.4977
H -0.06362 -9.50569 -0.10662
H 1.21816 -9.90688 1.89951
H -1.35775 -8.96877 1.33102
H -0.03056 -8.75366 2.56348
$end

$opt
CONSTRAINT
tors           1           2           3           4    -180.000
tors           3           4           5           6    +142.105
tors           4           5           6           7     +28.421
tors           5           6           7           8    +142.105
tors           6           7           8           9    -180.000
tors           7           8           9          10    +161.053
tors           8           9          10          11     +66.316
tors           9          10          11          12     -66.316
tors          11          12          13          14     +66.316
ENDCONSTRAINT
$end

$rem
JOBTYPE                   OPT
METHOD                    B3LYP
DFT_D                     d3_op
BASIS                     STO-3G
GEOM_OPT_MAX_CYCLES       100
GEOM_OPT_TOL_GRADIENT     300
GEOM_OPT_TOL_DISPLACEMENT 1200
GEOM_OPT_TOL_ENERGY       100
SYMMETRY                  False
THRESH                    12
SCF_CONVERGENCE           8
MAX_SUB_FILE_NUM          128
MEM_STATIC                400
MEM_TOTAL                 4000
$end
--------------------------------------------------------------

   20   -1509.5480352266      4.16E-09 Convergence criterion met
 Total energy in the final basis set = -1509.54803523
   18   -1509.6777178419      2.01E-09 Convergence criterion met
 Total energy in the final basis set = -1509.67771784
   17   -1509.7703823653      1.73E-09 Convergence criterion met
 Total energy in the final basis set = -1509.77038237
   16   -1509.8432322784      7.71E-09 Convergence criterion met
 Total energy in the final basis set = -1509.84323228
   16   -1509.8945710801      7.86E-09 Convergence criterion met
 Total energy in the final basis set = -1509.89457108
   15   -1509.9320136879      7.38E-09 Convergence criterion met
 Total energy in the final basis set = -1509.93201369
   15   -1509.9618363285      4.69E-09 Convergence criterion met
 Total energy in the final basis set = -1509.96183633
   15   -1509.9873941969      6.23E-09 Convergence criterion met
   11   -1510.2230019350      6.38E-09 Convergence criterion met
 Total energy in the final basis set = -1510.22300194
   11   -1510.2230109547      3.31E-09 Convergence criterion met
 Total energy in the final basis set = -1510.22301095
   10   -1510.2230190109      9.84E-09 Convergence criterion met
 Total energy in the final basis set = -1510.22301901
    9   -1510.2230251957      6.33E-09 Convergence criterion met
 Total energy in the final basis set = -1510.22302520
    9   -1510.2230294165      6.57E-09 Convergence criterion met
 Total energy in the final basis set = -1510.22302942
    9   -1510.2230311064      4.58E-09 Convergence criterion met
 Total energy in the final basis set = -1510.22303111

             Standard Nuclear Orientation (Angstroms)
    I     Atom           X                Y                Z
 ----------------------------------------------------------------
    1      O      -6.2883804191     0.9577363320     0.5773903592
    2      C      -5.1497970465     0.5340977101     0.2823749795
    3      C      -4.8236965567    -0.6148094282    -0.7481027793
    4      C      -3.2801902605    -0.9316019550    -0.9109738641
    5      C      -2.4292627017     0.4144028237    -0.8375704587
    6      O      -1.1501261754     0.4956028622    -0.1881724285
    7      C      -0.3494754009    -0.7484698354    -0.1563865568
    8      C       1.1353838165    -0.2878261711    -0.3660498211
    9      O       1.9666006132    -1.5064231387    -0.3401310803
   10      C       3.2673182036    -1.3395239853    -0.9323598752
   11      C       4.3898285361    -0.3923174745    -0.3084814365
   12      C       4.4276679035     1.1997537190    -0.1450107147
   13      C       3.1509007245     2.0950585134    -0.2600144275
   14      O       2.1575427048     2.1283665008     0.5030072772
   15      O      -3.9693543360     0.8631484046     1.0207817371
   16      O       3.2955189153     2.9458252163    -1.3984162339
   17      O       3.6113205260    -2.1712603526    -1.8057472248
   18      C       2.1041333081     3.8194637261    -1.5326915068
   19      C       4.6929871374    -0.8537384240     1.1995740183
   20      C       6.2492413143    -0.7497374686     1.4320063895
   21      C       6.4329496009     0.8115168526     1.4655107949
   22      C       4.9345026815     1.3025224782     1.3659325420
   23      O       4.1530148451     0.2396475732     2.0336141373
   24      H       5.2615355946    -0.6507767096    -0.9367698266
   25      H       5.1668565981     1.6117563765    -0.8549557056
   26      H       4.2315847190    -1.8193329070     1.4839236412
   27      H       6.5225034058    -1.2079579763     2.3961851424
   28      H       6.8285506104    -1.2356609337     0.6310011917
   29      H       6.8865584557     1.1488151891     2.4107454099
   30      H       7.0434086959     1.1855509665     0.6282076456
   31      H       4.7316240491     2.2830327448     1.8384887898
   32      O      -2.8475683748     1.4622809702    -1.3796993324
   33      C      -4.2660748471     1.8824636340     2.0501808424
   34      C      -5.3051007998    -1.9461100854    -0.0313761491
   35      C      -5.0553362292    -3.2050020552    -0.9547165153
   36      C      -3.5150513764    -3.4510851705    -0.7371674256
   37      C      -3.1360971787    -2.1672914124     0.1002571856
   38      O      -4.2789325772    -2.0603055491     1.0340556800
   39      H      -5.3314106428    -0.4171609786    -1.7086358084
   40      H      -3.1140249091    -1.3128588845    -1.9368691738
   41      H      -5.0366011912     1.5250651187     2.7637224131
   42      H      -6.3191006268    -1.8770699471     0.4085137504
   43      H      -5.6584232404    -4.0619626191    -0.6160435839
   44      H      -5.3043594245    -2.9934570044    -2.0071939413
   45      H      -3.3361727453    -4.3599870734    -0.1399857714
   46      H      -2.9529105710    -3.5304006069    -1.6814074809
   47      H      -2.1969182678    -2.2381402147     0.6733912934
   48      H      -4.6171277984     2.8302388008     1.5934577675
   49      H      -3.3143809023     2.0588661186     2.5842960879
   50      H       2.2664941424     4.4153180864    -2.4495008999
   51      H       1.9971434398     4.4971529286    -0.6614895203
   52      H       1.1731832602     3.2246516875    -1.6319162983
   53      H       1.2057810341     0.2198447138    -1.3533217434
   54      H       1.4301407043     0.4549481410     0.4133479298
   55      H      -0.6389286589    -1.4677784686    -0.9500466140
   56      H      -0.4378704811    -1.2506948636     0.8318272868
 ----------------------------------------------------------------

    9   -1510.2230316413      3.62E-09 Convergence criterion met
 Total energy in the final basis set = -1510.22303164
 Final energy is   -1510.22303164134
 **  OPTIMIZATION CONVERGED  **

                    Orbital Energies (a.u.)
 --------------------------------------------------------------

 Alpha MOs
 -- Occupied --
-18.948 -18.934 -18.923 -18.916 -18.897 -18.888 -18.888 -18.887
-18.869 -18.863 -10.110 -10.106 -10.099 -10.096 -10.074 -10.070
-10.067 -10.065 -10.061 -10.060 -10.060 -10.060 -10.047 -10.040
-10.037 -10.035 -10.026 -10.025 -10.022 -10.021  -1.023  -1.010
 -1.006  -0.997  -0.979  -0.972  -0.947  -0.939  -0.932  -0.927
 -0.766  -0.762  -0.727  -0.723  -0.712  -0.703  -0.702  -0.670
 -0.657  -0.607  -0.598  -0.589  -0.548  -0.546  -0.543  -0.539
 -0.525  -0.513  -0.491  -0.480  -0.470  -0.460  -0.450  -0.444
 -0.438  -0.437  -0.430  -0.420  -0.416  -0.410  -0.406  -0.402
 -0.395  -0.383  -0.382  -0.372  -0.367  -0.360  -0.354  -0.349
 -0.343  -0.337  -0.336  -0.331  -0.330  -0.322  -0.319  -0.316
 -0.312  -0.310  -0.308  -0.307  -0.295  -0.290  -0.280  -0.279
 -0.273  -0.264  -0.248  -0.244  -0.240  -0.235  -0.229  -0.190
 -0.175  -0.169  -0.166  -0.158  -0.153  -0.152  -0.149  -0.148
 -0.137

          Ground-State Mulliken Net Atomic Charges

     Atom                 Charge (a.u.)
  ----------------------------------------
      1 O                    -0.215455
      2 C                     0.215568
      3 C                    -0.074011
      4 C                    -0.086002
      5 C                     0.219690
      6 O                    -0.174566
      7 C                    -0.042403
      8 C                    -0.055093
      9 O                    -0.189063
     10 C                     0.209017
     11 C                    -0.086531
     12 C                    -0.082137
     13 C                     0.210068
     14 O                    -0.209112
     15 O                    -0.165197
     16 O                    -0.165712
     17 O                    -0.190528
     18 C                    -0.129515
     19 C                     0.024090
     20 C                    -0.142542
     21 C                    -0.145133
     22 C                     0.026728
     23 O                    -0.185866
     24 H                     0.086891
     25 H                     0.088317
     26 H                     0.086077
     27 H                     0.079453
     28 H                     0.076358
     29 H                     0.079604
     30 H                     0.075009
     31 H                     0.084121
     32 O                    -0.210846
     33 C                    -0.125130
     34 C                     0.022925
     35 C                    -0.145569
     36 C                    -0.141800
     37 C                     0.020710
     38 O                    -0.191526
     39 H                     0.087982
     40 H                     0.078793
     41 H                     0.090863
     42 H                     0.086422
     43 H                     0.079050
     44 H                     0.074559
     45 H                     0.078396
     46 H                     0.072347
     47 H                     0.084415
     48 H                     0.090640
     49 H                     0.094038
     50 H                     0.093220
     51 H                     0.091743
     52 H                     0.095775
     53 H                     0.072519
     54 H                     0.111107
     55 H                     0.083145
     56 H                     0.084094
  ----------------------------------------
  Sum of atomic charges =     0.000000

                    Cartesian Multipole Moments
 -----------------------------------------------------------------
    Charge (ESU x 10^10)
                 0.0000
    Dipole Moment (Debye)
         X       2.7244      Y       0.0841      Z      -0.6392
       Tot       2.7997
    Quadrupole Moments (Debye-Ang)
        XX    -154.5224     XY      15.6200     YY    -155.8238
        XZ       6.4156     YZ       0.7329     ZZ    -161.9937

 Total job time:  167.49s(wall), 7985.57s(cpu)
        *  Thank you very much for using Q-Chem.  Have a nice day.  *
