 Q-Chem 5.0, Q-Chem, Inc., Pleasanton, CA (2017)
 Q-Chem 5.0.1 for Intel X86 EM64T Linux

User input:
--------------------------------------------------------------
$molecule
0  1
O -6.2883804191 0.957736332 0.5773903592
C -5.1497970465 0.5340977101 0.2823749795
C -4.8236965567 -0.6148094282 -0.7481027793
C -3.2801902605 -0.931601955 -0.9109738641
C -2.4292627017 0.4144028237 -0.8375704587
O -1.1501261754 0.4956028622 -0.1881724285
C -0.3494754009 -0.7484698354 -0.1563865568
C 1.1353838165 -0.2878261711 -0.3660498211
O 1.9666006132 -1.5064231387 -0.3401310803
C 3.2673182036 -1.3395239853 -0.9323598752
C 4.3898285361 -0.3923174745 -0.3084814365
C 4.4276679035 1.199753719 -0.1450107147
C 3.1509007245 2.0950585134 -0.2600144275
O 2.1575427048 2.1283665008 0.5030072772
O -3.969354336 0.8631484046 1.0207817371
O 3.2955189153 2.9458252163 -1.3984162339
O 3.611320526 -2.1712603526 -1.8057472248
C 2.1041333081 3.8194637261 -1.5326915068
C 4.6929871374 -0.853738424 1.1995740183
C 6.2492413143 -0.7497374686 1.4320063895
C 6.4329496009 0.8115168526 1.4655107949
C 4.9345026815 1.3025224782 1.365932542
O 4.1530148451 0.2396475732 2.0336141373
H 5.2615355946 -0.6507767096 -0.9367698266
H 5.1668565981 1.6117563765 -0.8549557056
H 4.231584719 -1.819332907 1.4839236412
H 6.5225034058 -1.2079579763 2.3961851424
H 6.8285506104 -1.2356609337 0.6310011917
H 6.8865584557 1.1488151891 2.4107454099
H 7.0434086959 1.1855509665 0.6282076456
H 4.7316240491 2.2830327448 1.8384887898
O -2.8475683748 1.4622809702 -1.3796993324
C -4.2660748471 1.882463634 2.0501808424
C -5.3051007998 -1.9461100854 -0.0313761491
C -5.0553362292 -3.2050020552 -0.9547165153
C -3.5150513764 -3.4510851705 -0.7371674256
C -3.1360971787 -2.1672914124 0.1002571856
O -4.2789325772 -2.0603055491 1.03405568
H -5.3314106428 -0.4171609786 -1.7086358084
H -3.1140249091 -1.3128588845 -1.9368691738
H -5.0366011912 1.5250651187 2.7637224131
H -6.3191006268 -1.8770699471 0.4085137504
H -5.6584232404 -4.0619626191 -0.6160435839
H -5.3043594245 -2.9934570044 -2.0071939413
H -3.3361727453 -4.3599870734 -0.1399857714
H -2.952910571 -3.5304006069 -1.6814074809
H -2.1969182678 -2.2381402147 0.6733912934
H -4.6171277984 2.8302388008 1.5934577675
H -3.3143809023 2.0588661186 2.5842960879
H 2.2664941424 4.4153180864 -2.4495008999
H 1.9971434398 4.4971529286 -0.6614895203
H 1.1731832602 3.2246516875 -1.6319162983
H 1.2057810341 0.2198447138 -1.3533217434
H 1.4301407043 0.454948141 0.4133479298
H -0.6389286589 -1.4677784686 -0.950046614
H -0.4378704811 -1.2506948636 0.8318272868
$end

$rem
JOBTYPE                   OPT
METHOD                    B3LYP
DFT_D                     d3_op
BASIS                     STO-3G
GEOM_OPT_MAX_CYCLES       100
GEOM_OPT_TOL_GRADIENT     300
GEOM_OPT_TOL_DISPLACEMENT 1200
GEOM_OPT_TOL_ENERGY       100
SYMMETRY                  False
THRESH                    12
SCF_CONVERGENCE           8
MAX_SUB_FILE_NUM          128
MEM_STATIC                400
MEM_TOTAL                 4000
$end
--------------------------------------------------------------

   16   -1510.2230274545      4.56E-09 Convergence criterion met
 Total energy in the final basis set = -1510.22302745
   13   -1510.2246811128      7.26E-09 Convergence criterion met
 Total energy in the final basis set = -1510.22468111
   13   -1510.2272159623      6.81E-09 Convergence criterion met
 Total energy in the final basis set = -1510.22721596
   13   -1510.2301941074      9.79E-09 Convergence criterion met
 Total energy in the final basis set = -1510.23019411
   14   -1510.2231486419      7.40E-09 Convergence criterion met
 Total energy in the final basis set = -1510.22314864
   14   -1510.2330745400      3.66E-09 Convergence criterion met
 Total energy in the final basis set = -1510.23307454
   13   -1510.2382938865      6.84E-09 Convergence criterion met
 Total energy in the final basis set = -1510.23829389
   14   -1510.2423379706      3.33E-09 Convergence criterion met
   12   -1510.2686914179      4.87E-09 Convergence criterion met
 Total energy in the final basis set = -1510.26869142
   11   -1510.2687449371      6.43E-09 Convergence criterion met
 Total energy in the final basis set = -1510.26874494
   10   -1510.2687296894      8.69E-09 Convergence criterion met
 Total energy in the final basis set = -1510.26872969
    9   -1510.2687363704      9.20E-09 Convergence criterion met
 Total energy in the final basis set = -1510.26873637
   10   -1510.2687386071      5.60E-09 Convergence criterion met
 Total energy in the final basis set = -1510.26873861
   10   -1510.2687398144      4.59E-09 Convergence criterion met
 Total energy in the final basis set = -1510.26873981

             Standard Nuclear Orientation (Angstroms)
    I     Atom           X                Y                Z
 ----------------------------------------------------------------
    1      O       5.5685193023    -1.6939548135     0.5514634851
    2      C       4.8768482032    -0.7837128317     1.0584276812
    3      C       4.2033108000     0.4104461993     0.2766268676
    4      C       2.6903083679     0.1619275160    -0.1293413086
    5      C       2.1544725441    -1.2471656223     0.3218346282
    6      O       0.8539065231    -1.6691663531    -0.1123042876
    7      C       0.2557507279    -0.8742994550    -1.2109128926
    8      C      -1.2351031897    -1.3573171648    -1.3277186597
    9      O      -1.8881626902    -0.6548254323    -2.4567146050
   10      C      -2.4276638339     0.6428556727    -2.1495202495
   11      C      -3.1911306903     0.9235449204    -0.7821755780
   12      C      -4.3104891523    -0.1415536881    -0.4057194658
   13      C      -4.3509369421    -1.3793109353    -1.3725213175
   14      O      -4.1013965149    -2.5716267714    -1.0960257750
   15      O       4.7041769363    -0.5835440542     2.4671909147
   16      O      -4.7479402572    -0.9004242290    -2.6600525538
   17      O      -2.4163569690     1.5002168619    -3.0622332401
   18      C      -4.6491298282    -1.9878457021    -3.6606919303
   19      C      -2.3491217252     0.9518652594     0.5650817028
   20      C      -3.1841054579     1.7235271751     1.6581103672
   21      C      -4.2788377186     0.6528212824     2.0301788514
   22      C      -3.8895886758    -0.5320019579     1.0685229521
   23      O      -2.4040825988    -0.4535830406     1.0451652135
   24      H      -3.6542705031     1.9125756543    -0.9451244511
   25      H      -5.3065907550     0.3361460133    -0.4215862913
   26      H      -1.2983417137     1.2819656744     0.4562703863
   27      H      -2.5479123450     1.9667574773     2.5240873832
   28      H      -3.6177912488     2.6563247329     1.2637218616
   29      H      -4.1936940822     0.3395477074     3.0828562487
   30      H      -5.3042349991     1.0119319852     1.8482855713
   31      H      -4.2098110729    -1.5446219322     1.3828071511
   32      O       2.7677542300    -2.0153725355     1.0986316086
   33      C       5.2618396641    -1.7390284557     3.2027499231
   34      C       4.0621019530     1.7205371118     1.1578970178
   35      C       3.7427051566     2.9423591359     0.2051215225
   36      C       2.2263562615     2.6858659171    -0.1299408724
   37      C       1.9700549144     1.3459274317     0.6650829756
   38      O       2.7886618963     1.5026613863     1.8833965505
   39      H       4.8115388981     0.5891599965    -0.6281000733
   40      H       2.5640764772     0.2801282959    -1.2189048346
   41      H       6.3345333159    -1.8980338736     2.9683434474
   42      H       4.8904703966     1.8820004446     1.8733631102
   43      H       3.8829579327     3.8959819589     0.7383344525
   44      H       4.3809677524     2.9418981603    -0.6927528211
   45      H       1.5845572756     3.4925325223     0.2589890559
   46      H       2.0392807941     2.5744780439    -1.2100525622
   47      H       0.9163999120     1.1482377568     0.9419462611
   48      H       4.7052731106    -2.6684131498     2.9637082822
   49      H       5.1462687793    -1.5037411688     4.2767517512
   50      H      -5.0877470157    -1.5881872772    -4.5932306324
   51      H      -5.2045363560    -2.8920755611    -3.3395360976
   52      H      -3.5878833584    -2.2599615295    -3.8360115947
   53      H      -1.2585184703    -2.4337975699    -1.5893350454
   54      H      -1.7496210481    -1.1883834916    -0.3418412700
   55      H       0.8006029517    -1.0461899831    -2.1657815782
   56      H       0.2650993848     0.2146406700    -0.9992854435
 ----------------------------------------------------------------

    9   -1510.2687400760      8.69E-09 Convergence criterion met
 Total energy in the final basis set = -1510.26874008
 Final energy is   -1510.26874007601
 **  OPTIMIZATION CONVERGED  **

                    Orbital Energies (a.u.)
 --------------------------------------------------------------

 Alpha MOs
 -- Occupied --
-18.940 -18.937 -18.927 -18.927 -18.915 -18.892 -18.884 -18.884
-18.883 -18.851 -10.108 -10.106 -10.105 -10.086 -10.083 -10.079
-10.076 -10.068 -10.065 -10.060 -10.052 -10.051 -10.049 -10.048
-10.042 -10.038 -10.036 -10.033 -10.026 -10.023  -1.020  -1.011
 -1.006  -0.998  -0.992  -0.974  -0.944  -0.943  -0.937  -0.918
 -0.780  -0.764  -0.737  -0.724  -0.722  -0.709  -0.706  -0.667
 -0.647  -0.611  -0.600  -0.594  -0.566  -0.556  -0.550  -0.541
 -0.525  -0.516  -0.493  -0.482  -0.472  -0.463  -0.454  -0.451
 -0.444  -0.439  -0.433  -0.420  -0.416  -0.412  -0.406  -0.402
 -0.396  -0.386  -0.377  -0.372  -0.364  -0.362  -0.360  -0.355
 -0.346  -0.342  -0.338  -0.332  -0.331  -0.328  -0.325  -0.322
 -0.317  -0.317  -0.312  -0.308  -0.300  -0.294  -0.288  -0.281
 -0.271  -0.265  -0.260  -0.249  -0.241  -0.238  -0.235  -0.184
 -0.183  -0.176  -0.164  -0.163  -0.158  -0.152  -0.151  -0.147
 -0.134

          Ground-State Mulliken Net Atomic Charges

     Atom                 Charge (a.u.)
  ----------------------------------------
      1 O                    -0.223108
      2 C                     0.215012
      3 C                    -0.080180
      4 C                    -0.085487
      5 C                     0.213554
      6 O                    -0.167157
      7 C                    -0.049822
      8 C                    -0.073906
      9 O                    -0.181711
     10 C                     0.205114
     11 C                    -0.086068
     12 C                    -0.082765
     13 C                     0.209452
     14 O                    -0.210568
     15 O                    -0.170108
     16 O                    -0.169566
     17 O                    -0.196967
     18 C                    -0.128397
     19 C                     0.023373
     20 C                    -0.142065
     21 C                    -0.142318
     22 C                     0.025442
     23 O                    -0.179942
     24 H                     0.090768
     25 H                     0.089944
     26 H                     0.081511
     27 H                     0.083736
     28 H                     0.078976
     29 H                     0.083801
     30 H                     0.078301
     31 H                     0.097006
     32 O                    -0.192149
     33 C                    -0.127154
     34 C                     0.026702
     35 C                    -0.144493
     36 C                    -0.144818
     37 C                     0.023136
     38 O                    -0.184290
     39 H                     0.082228
     40 H                     0.081014
     41 H                     0.085211
     42 H                     0.089449
     43 H                     0.078445
     44 H                     0.074622
     45 H                     0.077252
     46 H                     0.072971
     47 H                     0.076033
     48 H                     0.093731
     49 H                     0.086376
     50 H                     0.092753
     51 H                     0.090932
     52 H                     0.094843
     53 H                     0.088916
     54 H                     0.117777
     55 H                     0.082253
     56 H                     0.072403
  ----------------------------------------
  Sum of atomic charges =     0.000000

                    Cartesian Multipole Moments
 -----------------------------------------------------------------
    Charge (ESU x 10^10)
                 0.0000
    Dipole Moment (Debye)
         X      -2.9523      Y       3.2052      Z       0.1544
       Tot       4.3604
    Quadrupole Moments (Debye-Ang)
        XX    -152.3343     XY       8.4542     YY    -165.8713
        XZ      -6.0016     YZ       5.8747     ZZ    -163.4602

 Total job time:  155.44s(wall), 7410.82s(cpu)
        *  Thank you very much for using Q-Chem.  Have a nice day.  *
