 Q-Chem 5.0, Q-Chem, Inc., Pleasanton, CA (2017)
 Q-Chem 5.0.1 for Intel X86 EM64T Linux

User input:
--------------------------------------------------------------
$molecule
0  1
O 5.2601428319 -1.7374504683 -0.097690115
C 5.2654360945 -0.554465735 -0.4960678273
C 4.0731291722 0.4507580565 -0.6776638953
C 2.6265285313 -0.0614418986 -0.3047534482
C 2.5449112371 -1.1792112564 0.812059225
O 1.1930231697 -1.6955396177 1.0135175362
C 0.8145496984 -2.5790677658 -0.1152251929
C -0.4197703589 -2.0343670495 -0.9386735468
O -1.6317645726 -2.5589800413 -0.2794691401
C -2.8527507024 -1.7917800372 -0.3744699365
C -2.7490008109 -0.2179381058 -0.3323420836
C -4.087795581 0.5953532921 -0.5610483313
C -5.4401601105 -0.1038078057 -0.1658680447
O -5.6612448896 -0.9844767458 0.6888854991
O 6.4543339347 0.1476836345 -0.886928783
O -6.4649674105 0.5056186382 -0.968822214
O -3.9094608559 -2.4556045048 -0.4241525311
C -7.7856848731 -0.0592234748 -0.6099079399
C -2.1982649457 0.4354668861 1.0150233335
C -1.4387768753 1.7538499177 0.5934938884
C -2.6451451467 2.6546670075 0.139288394
C -3.8762560296 1.7442685042 0.5256544777
O -3.4019994624 0.9617372322 1.6936116925
H -2.0700842543 0.0691038562 -1.1545871894
H -4.1703343059 0.9855318322 -1.5901388506
H -1.6368572299 -0.2528288796 1.6770772863
H -0.9163720961 2.1901428295 1.4600171374
H -0.7109313348 1.582723872 -0.2135025406
H -2.6762888251 3.6046007615 0.6954661865
H -2.6245354015 2.8789810904 -0.939286789
H -4.8011403863 2.2971336764 0.7812598969
O 3.4090940619 -1.3888671549 1.6848133344
C 7.6339065314 -0.7342356162 -0.7332389991
C 4.1671967223 1.8019374256 0.1641431575
C 3.4480754676 2.920116084 -0.685433507
C 1.9508419088 2.4448887261 -0.5795142343
C 2.0773363373 1.2409250954 0.438116633
O 3.2310274128 1.6039988544 1.2922306011
H 4.0822282858 0.7134609904 -1.7525655254
H 2.0325052072 -0.3353932067 -1.1928393142
H 7.5636711305 -1.628012008 -1.3865318186
H 5.1824890939 2.0510181812 0.5281785872
H 3.5891079352 3.9067197872 -0.2152828359
H 3.8139148324 2.9648689409 -1.7235426437
H 1.3008829748 3.2325270574 -0.1669915505
H 1.5391840042 2.1228366407 -1.5498245925
H 1.1832388185 1.0519360787 1.0615269325
H 7.755421179 -1.0752816936 0.3151566877
H 8.509329033 -0.1277872795 -1.0298633741
H -8.5214345628 0.4420509069 -1.2654460825
H -8.0408344684 0.1375309995 0.4516448362
H -7.8215137028 -1.1546599385 -0.7804962894
H -0.3747109454 -0.9269041713 -0.9756179871
H -0.3712075423 -2.4239550429 -1.9814524721
H 0.5213831317 -3.5637907545 0.3113256388
H 1.6617020992 -2.7488792355 -0.8122174261
$end

$rem
JOBTYPE                   OPT
METHOD                    B3LYP
DFT_D                     d3_op
BASIS                     STO-3G
GEOM_OPT_MAX_CYCLES       100
GEOM_OPT_TOL_GRADIENT     300
GEOM_OPT_TOL_DISPLACEMENT 1200
GEOM_OPT_TOL_ENERGY       100
SYMMETRY                  False
THRESH                    12
SCF_CONVERGENCE           8
MAX_SUB_FILE_NUM          128
MEM_STATIC                400
MEM_TOTAL                 4000
$end
--------------------------------------------------------------

   16   -1510.2306806302      5.32E-09 Convergence criterion met
 Total energy in the final basis set = -1510.23068063
   13   -1510.2345808196      9.17E-09 Convergence criterion met
 Total energy in the final basis set = -1510.23458082
   14   -1510.2379824319      1.78E-09 Convergence criterion met
 Total energy in the final basis set = -1510.23798243
   13   -1510.2403880422      5.63E-09 Convergence criterion met
 Total energy in the final basis set = -1510.24038804
   13   -1510.2426397248      4.67E-09 Convergence criterion met
 Total energy in the final basis set = -1510.24263972
   13   -1510.2446935449      3.12E-09 Convergence criterion met
 Total energy in the final basis set = -1510.24469354
   13   -1510.2467033994      3.94E-09 Convergence criterion met
 Total energy in the final basis set = -1510.24670340
   13   -1510.2485958870      3.11E-09 Convergence criterion met
   11   -1510.2689248448      7.80E-09 Convergence criterion met
 Total energy in the final basis set = -1510.26892484
    9   -1510.2689303544      9.05E-09 Convergence criterion met
 Total energy in the final basis set = -1510.26893035
    9   -1510.2689306760      9.82E-09 Convergence criterion met
 Total energy in the final basis set = -1510.26893068
    9   -1510.2689322397      4.30E-09 Convergence criterion met
 Total energy in the final basis set = -1510.26893224
    9   -1510.2689327433      3.60E-09 Convergence criterion met
 Total energy in the final basis set = -1510.26893274
   10   -1510.2689325874      4.77E-09 Convergence criterion met
 Total energy in the final basis set = -1510.26893259

             Standard Nuclear Orientation (Angstroms)
    I     Atom           X                Y                Z
 ----------------------------------------------------------------
    1      O       3.5926308466    -0.7655275594     1.2983869440
    2      C       4.1906712184    -0.6233330581     0.2064606964
    3      C       3.7272734248     0.2729394949    -0.9897270507
    4      C       2.3308885865     0.9574808364    -0.7032881470
    5      C       1.6217223293     0.5443640472     0.6566504720
    6      O       0.8789676625    -0.7055191823     0.7234949121
    7      C       0.8422022780    -1.5050139286    -0.5152121787
    8      C      -0.3082595706    -1.0635103356    -1.5189066718
    9      O      -1.5093512425    -1.9037446999    -1.3464457059
   10      C      -2.6258020173    -1.3550268734    -0.6241918082
   11      C      -2.6400218916     0.1514745316    -0.1698319733
   12      C      -4.0738253422     0.5951392253     0.3387104354
   13      C      -5.2148345486    -0.4768501128     0.1679356844
   14      O      -5.8271055581    -1.0805118009     1.0736834259
   15      O       5.4223448457    -1.2551677776    -0.1293210431
   16      O      -5.5801622224    -0.5063749872    -1.2236804411
   17      O      -3.5669216428    -2.1531306059    -0.4054961734
   18      C      -6.6237323351    -1.5308358138    -1.4423317006
   19      C      -1.7828430253     0.3530524924     1.1589921036
   20      C      -1.6225966186     1.9052021750     1.4105600489
   21      C      -3.0424283206     2.2780379219     1.9762718969
   22      C      -3.7792733151     0.8869682979     1.8692417029
   23      O      -2.7181862397    -0.0880807057     2.2133988624
   24      H      -2.3014512968     0.8049941446    -0.9923381588
   25      H      -4.3927748949     1.5091499327    -0.1940930895
   26      H      -0.8256206772    -0.2181167294     1.1833007123
   27      H      -0.8194454527     2.0866605453     2.1427700076
   28      H      -1.3797142624     2.4495159253     0.4837305773
   29      H      -2.9846481693     2.6022285474     3.0276776525
   30      H      -3.5449292426     3.0646709718     1.3909214713
   31      H      -4.6588484891     0.7494022723     2.5276638064
   32      O       1.5303687067     1.2976004092     1.6471399446
   33      C       5.8909499513    -2.0904070533     1.0032305915
   34      C       4.6634727663     1.5514767536    -1.1309755802
   35      C       4.3174521658     2.2824714116    -2.4889070539
   36      C       2.9652152361     2.9971448739    -2.1165688054
   37      C       2.7557845922     2.4883967327    -0.6384586680
   38      O       4.1304886649     2.4558821676    -0.0892099556
   39      H       3.7246976141    -0.3287951406    -1.9166534428
   40      H       1.6374840488     0.7888859086    -1.5436726633
   41      H       5.1889181265    -2.9244757191     1.2079771576
   42      H       5.7382538767     1.3437859284    -0.9629183504
   43      H       5.1039232437     3.0095751341    -2.7457187001
   44      H       4.2073509624     1.5717637638    -3.3234567438
   45      H       3.0714199676     4.0934781754    -2.1338154183
   46      H       2.1328495804     2.7116388536    -2.7795827769
   47      H       2.1002356110     3.1072042508     0.0045091981
   48      H       6.0082276515    -1.4911733748     1.9287392505
   49      H       6.8709414657    -2.4980376109     0.6943260181
   50      H      -6.9004166057    -1.4672922384    -2.5109779931
   51      H      -7.5198899101    -1.3462152767    -0.8149351786
   52      H      -6.2409735445    -2.5478546117    -1.2185469791
   53      H      -0.5092910747     0.0206016749    -1.4165798402
   54      H       0.0412107487    -1.2548994776    -2.5561643824
   55      H       0.6268569663    -2.5448574249    -0.1909072432
   56      H       1.8177842350    -1.5033403601    -1.0395769115
 ----------------------------------------------------------------

    9   -1510.2689329487      9.76E-09 Convergence criterion met
 Total energy in the final basis set = -1510.26893295
 Final energy is   -1510.26893294868
 **  OPTIMIZATION CONVERGED  **

                    Orbital Energies (a.u.)
 --------------------------------------------------------------

 Alpha MOs
 -- Occupied --
-18.957 -18.944 -18.940 -18.909 -18.901 -18.901 -18.883 -18.883
-18.875 -18.851 -10.119 -10.111 -10.105 -10.091 -10.088 -10.082
-10.079 -10.075 -10.070 -10.057 -10.051 -10.047 -10.046 -10.038
-10.035 -10.033 -10.032 -10.025 -10.009 -10.007  -1.033  -1.015
 -1.010  -0.988  -0.984  -0.958  -0.957  -0.948  -0.939  -0.915
 -0.778  -0.754  -0.736  -0.723  -0.719  -0.712  -0.694  -0.677
 -0.647  -0.623  -0.608  -0.593  -0.563  -0.551  -0.535  -0.529
 -0.525  -0.511  -0.496  -0.484  -0.476  -0.469  -0.454  -0.447
 -0.445  -0.436  -0.426  -0.425  -0.421  -0.417  -0.406  -0.399
 -0.397  -0.395  -0.387  -0.384  -0.371  -0.361  -0.356  -0.352
 -0.344  -0.340  -0.337  -0.329  -0.327  -0.323  -0.321  -0.318
 -0.315  -0.311  -0.307  -0.300  -0.294  -0.294  -0.290  -0.272
 -0.269  -0.266  -0.249  -0.247  -0.245  -0.236  -0.222  -0.198
 -0.191  -0.172  -0.167  -0.158  -0.156  -0.155  -0.151  -0.134
 -0.132

          Ground-State Mulliken Net Atomic Charges

     Atom                 Charge (a.u.)
  ----------------------------------------
      1 O                    -0.197292
      2 C                     0.210900
      3 C                    -0.081443
      4 C                    -0.088139
      5 C                     0.219028
      6 O                    -0.168489
      7 C                    -0.052421
      8 C                    -0.051536
      9 O                    -0.170169
     10 C                     0.215980
     11 C                    -0.085602
     12 C                    -0.080349
     13 C                     0.216981
     14 O                    -0.218099
     15 O                    -0.166963
     16 O                    -0.180638
     17 O                    -0.191076
     18 C                    -0.128802
     19 C                     0.004531
     20 C                    -0.147795
     21 C                    -0.144278
     22 C                     0.024828
     23 O                    -0.188894
     24 H                     0.073859
     25 H                     0.080447
     26 H                     0.103906
     27 H                     0.087050
     28 H                     0.062326
     29 H                     0.077632
     30 H                     0.069742
     31 H                     0.088702
     32 O                    -0.196136
     33 C                    -0.128139
     34 C                     0.026149
     35 C                    -0.144146
     36 C                    -0.144138
     37 C                     0.025987
     38 O                    -0.186001
     39 H                     0.084074
     40 H                     0.075138
     41 H                     0.092318
     42 H                     0.088476
     43 H                     0.081193
     44 H                     0.073617
     45 H                     0.081223
     46 H                     0.071815
     47 H                     0.093343
     48 H                     0.096151
     49 H                     0.094694
     50 H                     0.083724
     51 H                     0.085618
     52 H                     0.091544
     53 H                     0.085238
     54 H                     0.088029
     55 H                     0.103494
     56 H                     0.082809
  ----------------------------------------
  Sum of atomic charges =     0.000000

                    Cartesian Multipole Moments
 -----------------------------------------------------------------
    Charge (ESU x 10^10)
                -0.0000
    Dipole Moment (Debye)
         X       4.7350      Y       1.4833      Z      -5.5263
       Tot       7.4270
    Quadrupole Moments (Debye-Ang)
        XX    -156.8634     XY     -18.1611     YY    -160.6408
        XZ       0.7841     YZ      -2.0463     ZZ    -164.0851

 Total job time:  141.06s(wall), 6727.37s(cpu)
        *  Thank you very much for using Q-Chem.  Have a nice day.  *
