 Q-Chem 5.0, Q-Chem, Inc., Pleasanton, CA (2017)
 Q-Chem 5.0.1 for Intel X86 EM64T Linux

User input:
--------------------------------------------------------------
$molecule
0  1
O -3.94934 -3.66094 2.70899
C -3.26408 -4.56952 2.26188
C -3.36658 -6.02376 2.66595
C -4.42651 -6.38749 3.71861
C -5.38459 -5.28755 4.11901
O -6.18191 -5.71622 5.14173
C -5.4986 -5.78467 6.39777
C -5.46502 -7.22435 6.9001
O -6.64551 -7.50181 7.66974
C -7.05349 -8.79513 7.66589
C -6.8472 -9.47319 6.33235
C -7.18089 -10.97199 6.30975
C -7.99149 -11.48623 7.48243
O -8.77002 -10.82226 8.15145
O -2.31971 -4.27381 1.32931
O -7.72361 -12.76115 7.86882
O -7.00086 -9.36522 8.74417
C -8.32493 -13.39145 8.93798
C -7.81772 -8.99467 5.21974
C -7.35733 -9.54047 3.85453
C -7.87482 -10.931 3.85783
C -8.34644 -10.98634 5.27448
O -8.97653 -9.738 5.45684
H -5.79259 -9.56966 6.04213
H -6.38609 -11.69531 6.01202
H -7.92585 -7.88964 5.19858
H -7.79027 -9.00962 2.97727
H -6.27141 -9.59062 3.87369
H -8.78733 -10.98051 3.21914
H -7.15571 -11.71823 3.54284
H -9.02933 -11.86985 5.34274
O -5.99043 -4.6726 3.25206
C -2.0824 -3.00758 0.83711
C -3.77285 -6.84357 1.44465
C -3.34465 -8.28833 1.64106
C -4.35024 -8.71526 2.67455
C -5.17063 -7.41746 2.8464
O -5.16516 -6.87631 1.55048
H -2.34537 -6.3057 3.01043
H -3.92431 -6.83906 4.59222
H -1.77895 -2.32708 1.66123
H -3.36529 -6.4582 0.48381
H -3.53351 -8.84283 0.69346
H -2.27929 -8.40666 1.93544
H -4.97389 -9.49581 2.18437
H -3.92355 -9.09994 3.62632
H -6.17431 -7.54108 3.25039
H -2.99461 -2.6132 0.34039
H -1.26195 -3.05479 0.09207
H -7.92369 -14.42186 9.02556
H -9.42332 -13.44721 8.7803
H -8.10761 -12.84159 9.87861
H -5.11438 -7.79874 6.05246
H -4.63956 -7.26328 7.64407
H -5.97812 -5.11718 7.14529
H -4.44192 -5.42865 6.31309
$end

$opt
CONSTRAINT
tors           1           2           3           4      +0.425
tors           3           4           5           6    -174.441
tors           4           5           6           7     +73.990
tors           5           6           7           8    -117.198
tors           6           7           8           9     -88.029
tors           7           8           9          10    +151.528
tors           8           9          10          11     -36.752
tors           9          10          11          12    +174.983
tors          11          12          13          14     +27.132
ENDCONSTRAINT
$end

$rem
JOBTYPE                   OPT
METHOD                    B3LYP
DFT_D                     d3_op
BASIS                     STO-3G
GEOM_OPT_MAX_CYCLES       100
GEOM_OPT_TOL_GRADIENT     300
GEOM_OPT_TOL_DISPLACEMENT 1200
GEOM_OPT_TOL_ENERGY       100
SYMMETRY                  False
THRESH                    12
SCF_CONVERGENCE           8
MAX_SUB_FILE_NUM          128
MEM_STATIC                400
MEM_TOTAL                 4000
$end
--------------------------------------------------------------

   16   -1510.0164224873      3.31E-09 Convergence criterion met
 Total energy in the final basis set = -1510.01642249
   14   -1510.0984097389      6.85E-09 Convergence criterion met
 Total energy in the final basis set = -1510.09840974
   14   -1510.1533532091      9.23E-09 Convergence criterion met
 Total energy in the final basis set = -1510.15335321
   14   -1510.1833893184      6.47E-09 Convergence criterion met
 Total energy in the final basis set = -1510.18338932
   14   -1510.2006228152      5.69E-09 Convergence criterion met
 Total energy in the final basis set = -1510.20062282
   13   -1510.2112466958      6.01E-09 Convergence criterion met
 Total energy in the final basis set = -1510.21124670
   13   -1510.2178709118      6.15E-09 Convergence criterion met
 Total energy in the final basis set = -1510.21787091
   13   -1510.2222742594      7.23E-09 Convergence criterion met
   10   -1510.2306395972      7.50E-09 Convergence criterion met
 Total energy in the final basis set = -1510.23063960
   10   -1510.2306497755      7.65E-09 Convergence criterion met
 Total energy in the final basis set = -1510.23064978
    9   -1510.2306465034      9.36E-09 Convergence criterion met
 Total energy in the final basis set = -1510.23064650
    9   -1510.2306507290      6.18E-09 Convergence criterion met
 Total energy in the final basis set = -1510.23065073
    9   -1510.2306546855      6.25E-09 Convergence criterion met
 Total energy in the final basis set = -1510.23065469
    9   -1510.2306565073      3.46E-09 Convergence criterion met
 Total energy in the final basis set = -1510.23065651

             Standard Nuclear Orientation (Angstroms)
    I     Atom           X                Y                Z
 ----------------------------------------------------------------
    1      O       5.2601428319    -1.7374504683    -0.0976901150
    2      C       5.2654360945    -0.5544657350    -0.4960678273
    3      C       4.0731291722     0.4507580565    -0.6776638953
    4      C       2.6265285313    -0.0614418986    -0.3047534482
    5      C       2.5449112371    -1.1792112564     0.8120592250
    6      O       1.1930231697    -1.6955396177     1.0135175362
    7      C       0.8145496984    -2.5790677658    -0.1152251929
    8      C      -0.4197703589    -2.0343670495    -0.9386735468
    9      O      -1.6317645726    -2.5589800413    -0.2794691401
   10      C      -2.8527507024    -1.7917800372    -0.3744699365
   11      C      -2.7490008109    -0.2179381058    -0.3323420836
   12      C      -4.0877955810     0.5953532921    -0.5610483313
   13      C      -5.4401601105    -0.1038078057    -0.1658680447
   14      O      -5.6612448896    -0.9844767458     0.6888854991
   15      O       6.4543339347     0.1476836345    -0.8869287830
   16      O      -6.4649674105     0.5056186382    -0.9688222140
   17      O      -3.9094608559    -2.4556045048    -0.4241525311
   18      C      -7.7856848731    -0.0592234748    -0.6099079399
   19      C      -2.1982649457     0.4354668861     1.0150233335
   20      C      -1.4387768753     1.7538499177     0.5934938884
   21      C      -2.6451451467     2.6546670075     0.1392883940
   22      C      -3.8762560296     1.7442685042     0.5256544777
   23      O      -3.4019994624     0.9617372322     1.6936116925
   24      H      -2.0700842543     0.0691038562    -1.1545871894
   25      H      -4.1703343059     0.9855318322    -1.5901388506
   26      H      -1.6368572299    -0.2528288796     1.6770772863
   27      H      -0.9163720961     2.1901428295     1.4600171374
   28      H      -0.7109313348     1.5827238720    -0.2135025406
   29      H      -2.6762888251     3.6046007615     0.6954661865
   30      H      -2.6245354015     2.8789810904    -0.9392867890
   31      H      -4.8011403863     2.2971336764     0.7812598969
   32      O       3.4090940619    -1.3888671549     1.6848133344
   33      C       7.6339065314    -0.7342356162    -0.7332389991
   34      C       4.1671967223     1.8019374256     0.1641431575
   35      C       3.4480754676     2.9201160840    -0.6854335070
   36      C       1.9508419088     2.4448887261    -0.5795142343
   37      C       2.0773363373     1.2409250954     0.4381166330
   38      O       3.2310274128     1.6039988544     1.2922306011
   39      H       4.0822282858     0.7134609904    -1.7525655254
   40      H       2.0325052072    -0.3353932067    -1.1928393142
   41      H       7.5636711305    -1.6280120080    -1.3865318186
   42      H       5.1824890939     2.0510181812     0.5281785872
   43      H       3.5891079352     3.9067197872    -0.2152828359
   44      H       3.8139148324     2.9648689409    -1.7235426437
   45      H       1.3008829748     3.2325270574    -0.1669915505
   46      H       1.5391840042     2.1228366407    -1.5498245925
   47      H       1.1832388185     1.0519360787     1.0615269325
   48      H       7.7554211790    -1.0752816936     0.3151566877
   49      H       8.5093290330    -0.1277872795    -1.0298633741
   50      H      -8.5214345628     0.4420509069    -1.2654460825
   51      H      -8.0408344684     0.1375309995     0.4516448362
   52      H      -7.8215137028    -1.1546599385    -0.7804962894
   53      H      -0.3747109454    -0.9269041713    -0.9756179871
   54      H      -0.3712075423    -2.4239550429    -1.9814524721
   55      H       0.5213831317    -3.5637907545     0.3113256388
   56      H       1.6617020992    -2.7488792355    -0.8122174261
 ----------------------------------------------------------------

    9   -1510.2306569700      3.59E-09 Convergence criterion met
 Total energy in the final basis set = -1510.23065697
 Final energy is   -1510.23065697000
 **  OPTIMIZATION CONVERGED  **

                    Orbital Energies (a.u.)
 --------------------------------------------------------------

 Alpha MOs
 -- Occupied --
-18.935 -18.925 -18.921 -18.909 -18.902 -18.898 -18.894 -18.883
-18.882 -18.872 -10.106 -10.104 -10.103 -10.092 -10.082 -10.077
-10.070 -10.068 -10.067 -10.067 -10.065 -10.058 -10.047 -10.045
-10.042 -10.040 -10.032 -10.028 -10.028 -10.027  -1.015  -1.007
 -1.005  -1.001  -0.980  -0.976  -0.944  -0.938  -0.933  -0.927
 -0.771  -0.768  -0.731  -0.728  -0.718  -0.712  -0.709  -0.666
 -0.659  -0.612  -0.604  -0.593  -0.554  -0.551  -0.548  -0.544
 -0.523  -0.520  -0.483  -0.479  -0.467  -0.464  -0.460  -0.454
 -0.445  -0.442  -0.426  -0.418  -0.414  -0.412  -0.408  -0.405
 -0.395  -0.391  -0.384  -0.379  -0.366  -0.361  -0.360  -0.351
 -0.346  -0.343  -0.336  -0.336  -0.331  -0.326  -0.322  -0.321
 -0.317  -0.315  -0.310  -0.305  -0.304  -0.296  -0.287  -0.280
 -0.273  -0.258  -0.250  -0.246  -0.242  -0.240  -0.235  -0.181
 -0.176  -0.173  -0.168  -0.163  -0.156  -0.152  -0.148  -0.146
 -0.134

          Ground-State Mulliken Net Atomic Charges

     Atom                 Charge (a.u.)
  ----------------------------------------
      1 O                    -0.205328
      2 C                     0.209714
      3 C                    -0.080507
      4 C                    -0.083054
      5 C                     0.218992
      6 O                    -0.190649
      7 C                    -0.049013
      8 C                    -0.048401
      9 O                    -0.180185
     10 C                     0.211057
     11 C                    -0.085168
     12 C                    -0.077166
     13 C                     0.212335
     14 O                    -0.197246
     15 O                    -0.174369
     16 O                    -0.175791
     17 O                    -0.183303
     18 C                    -0.129351
     19 C                     0.023645
     20 C                    -0.143463
     21 C                    -0.145810
     22 C                     0.025342
     23 O                    -0.184432
     24 H                     0.074022
     25 H                     0.085676
     26 H                     0.092162
     27 H                     0.079452
     28 H                     0.068632
     29 H                     0.079746
     30 H                     0.073220
     31 H                     0.084464
     32 O                    -0.166368
     33 C                    -0.128881
     34 C                     0.027130
     35 C                    -0.141419
     36 C                    -0.146447
     37 C                     0.021678
     38 O                    -0.186494
     39 H                     0.083139
     40 H                     0.074585
     41 H                     0.087906
     42 H                     0.090688
     43 H                     0.079988
     44 H                     0.075063
     45 H                     0.080135
     46 H                     0.070113
     47 H                     0.087571
     48 H                     0.091968
     49 H                     0.090167
     50 H                     0.087753
     51 H                     0.087541
     52 H                     0.091154
     53 H                     0.076981
     54 H                     0.080581
     55 H                     0.097902
     56 H                     0.082344
  ----------------------------------------
  Sum of atomic charges =    -0.000000

                    Cartesian Multipole Moments
 -----------------------------------------------------------------
    Charge (ESU x 10^10)
                -0.0000
    Dipole Moment (Debye)
         X       1.9020      Y       3.9236      Z      -5.3414
       Tot       6.8952
    Quadrupole Moments (Debye-Ang)
        XX    -154.4847     XY      -8.2163     YY    -164.9500
        XZ      -4.5350     YZ       4.2999     ZZ    -164.9594

 Total job time:  80.43s(wall), 3832.24s(cpu)
        *  Thank you very much for using Q-Chem.  Have a nice day.  *
