 Q-Chem 5.0, Q-Chem, Inc., Pleasanton, CA (2017)
 Q-Chem 5.0.1 for Intel X86 EM64T Linux

User input:
--------------------------------------------------------------
$molecule
0  1
O 1.506149306 0.6945304693 -0.0458111397
C 2.5521363147 1.1554411596 0.4601334195
C 3.8601574806 0.3513598927 0.7814180492
C 3.9643612777 -0.9459865139 -0.116287349
C 2.6128776323 -1.5536774736 -0.6525474892
O 2.0720294473 -2.3924588753 0.3975782234
C 0.5969172904 -2.4039393679 0.4479356792
C -0.0317073643 -1.2391116629 1.3106657952
O -0.7355452333 -0.2753468604 0.4346674124
C -2.1223142216 -0.2036769109 0.7965255557
C -2.8146686394 0.8277692089 -0.1604819864
C -4.0866491434 0.2466407992 -0.903705389
C -4.27259631 -1.3075361766 -0.8104290945
O -5.3476182109 -1.9415098087 -0.8585507379
O 2.6975984989 2.5142901687 0.8780447389
O -2.9778486605 -1.9230888643 -0.7890299066
O -2.629073213 -0.8001797977 1.7734099622
C -3.106462838 -3.3923908253 -0.663305888
C -3.5035570654 1.9679741423 0.7100863571
C -3.9913623769 3.1270343947 -0.2481743543
C -5.2989480825 2.4952159479 -0.85740678
C -5.2617491264 1.0568359802 -0.2110280539
O -4.7569373097 1.3180813282 1.1567748762
H -2.0608012901 1.2198040134 -0.865017603
H -4.0358664861 0.4942513826 -1.9811494658
H -2.9082948975 2.2980558887 1.5833936581
H -4.2109392764 4.0401427726 0.3274283721
H -3.2394440532 3.3652927837 -1.0172880758
H -6.198901912 3.0392758962 -0.5290134175
H -5.286192133 2.4628513722 -1.9585412902
H -6.2266243948 0.5138957954 -0.1781092094
O 2.1257941334 -1.4574916104 -1.7976454681
C 1.4529823968 3.2605793383 0.5777780746
C 5.083115238 1.1778175841 0.2009600785
C 6.4467970537 0.4272771198 0.4772404648
C 6.435255345 -0.6712606314 -0.6516160028
C 4.9859042224 -0.4639842744 -1.2365533639
O 4.8588826746 1.01301167 -1.2568168935
H 3.9287053439 0.1342777892 1.8629045328
H 4.4273297762 -1.7494812197 0.4856504547
H 0.5733365346 2.8010062634 1.0733718426
H 5.0625489928 2.249230001 0.4786139058
H 7.2985443428 1.116607414 0.3677131422
H 6.4741091077 -0.0080459678 1.4892485189
H 7.1938457187 -0.4601726521 -1.4224636872
H 6.5951837804 -1.6896831374 -0.2631330447
H 4.798425375 -0.8849416706 -2.2433592015
H 1.2588189616 3.302155094 -0.5134382023
H 1.6094751246 4.2836654781 0.9660985817
H -2.0773597539 -3.7933071108 -0.7090435007
H -3.7117065159 -3.8207537949 -1.4878295841
H -3.5722397137 -3.6745540347 0.3030311567
H -0.7774106519 -1.6405078642 2.0326985058
H 0.767341094 -0.7042966484 1.8645262211
H 0.3255777763 -3.3816498437 0.8972808223
H 0.1641948166 -2.3503591616 -0.5764932825
$end

$rem
JOBTYPE                   OPT
METHOD                    B3LYP
DFT_D                     d3_op
BASIS                     STO-3G
GEOM_OPT_MAX_CYCLES       100
GEOM_OPT_TOL_GRADIENT     300
GEOM_OPT_TOL_DISPLACEMENT 1200
GEOM_OPT_TOL_ENERGY       100
SYMMETRY                  False
THRESH                    12
SCF_CONVERGENCE           8
MAX_SUB_FILE_NUM          128
MEM_STATIC                400
MEM_TOTAL                 4000
$end
--------------------------------------------------------------

   16   -1510.2720996390      5.26E-09 Convergence criterion met
 Total energy in the final basis set = -1510.27209964
   14   -1510.2751538823      1.91E-09 Convergence criterion met
 Total energy in the final basis set = -1510.27515388
   14   -1510.2796479498      2.34E-09 Convergence criterion met
 Total energy in the final basis set = -1510.27964795
   15   -1510.2828599133      3.71E-09 Convergence criterion met
 Total energy in the final basis set = -1510.28285991
   13   -1510.2842580226      6.66E-09 Convergence criterion met
 Total energy in the final basis set = -1510.28425802
   13   -1510.2851837702      5.15E-09 Convergence criterion met
 Total energy in the final basis set = -1510.28518377
   13   -1510.2858195343      4.79E-09 Convergence criterion met
 Total energy in the final basis set = -1510.28581953
   13   -1510.2863060031      5.47E-09 Convergence criterion met
   11   -1510.3013244357      4.38E-09 Convergence criterion met
 Total energy in the final basis set = -1510.30132444
   11   -1510.3013319283      2.58E-09 Convergence criterion met
 Total energy in the final basis set = -1510.30133193
   11   -1510.3013413956      4.53E-09 Convergence criterion met
 Total energy in the final basis set = -1510.30134140
   10   -1510.3013489778      8.93E-09 Convergence criterion met
 Total energy in the final basis set = -1510.30134898
   11   -1510.3013533241      1.99E-09 Convergence criterion met
 Total energy in the final basis set = -1510.30135332
    9   -1510.3013552633      8.40E-09 Convergence criterion met
 Total energy in the final basis set = -1510.30135526

             Standard Nuclear Orientation (Angstroms)
    I     Atom           X                Y                Z
 ----------------------------------------------------------------
    1      O      -0.7804686377     1.8944209837     0.4689724879
    2      C      -1.7510881374     1.7674305842    -0.3154698206
    3      C      -3.1105846005     1.0452834422    -0.0301741431
    4      C      -3.0698905652    -0.5094428857    -0.3799529312
    5      C      -1.6691830835    -1.0198933039    -0.8635665636
    6      O      -1.7453287837    -1.2928001889    -2.2712517128
    7      C      -0.4683607130    -1.8668263396    -2.7617839986
    8      C       0.5358002461    -0.7568113915    -3.2503871947
    9      O       0.8585943029     0.2089954986    -2.1785228480
   10      C       1.6913020286    -0.3901963563    -1.1638687016
   11      C       1.8227820508     0.6197126095     0.0131612552
   12      C       2.4813985631    -0.0100934200     1.3059277204
   13      C       2.8745257234    -1.5249193911     1.1636297552
   14      O       4.0193344171    -2.0065526434     1.0290250173
   15      O      -1.7926466826     2.2695056198    -1.6460193195
   16      O       1.6802346153    -2.3035729238     1.3321657790
   17      O       2.2063960422    -1.5216983221    -1.2881057172
   18      C       1.9824257435    -3.7348295875     1.1161007041
   19      C       2.8563757758     1.7847894076    -0.3125456197
   20      C       2.6187471693     2.9349574533     0.7435429495
   21      C       3.2919457760     2.3127727781     2.0231296741
   22      C       3.7608742574     0.9099975302     1.4692195904
   23      O       4.1617071864     1.2067701500     0.0731797856
   24      H       0.8161829403     1.0435253885     0.2267513562
   25      H       1.7935656362     0.0865235078     2.1646439709
   26      H       2.8688189160     2.1100125162    -1.3711654624
   27      H       3.1228485077     3.8627182226     0.4295151059
   28      H       1.5445414854     3.1385261338     0.8839603835
   29      H       4.1584356309     2.9082480597     2.3521448680
   30      H       2.5892940552     2.2116357689     2.8654827327
   31      H       4.5981844513     0.4316656992     2.0133006429
   32      O      -0.6499926704    -1.2120300157    -0.1645223207
   33      C      -0.4641037586     2.8039923899    -2.0436826048
   34      C      -3.4492085065     0.9962808132     1.5184391236
   35      C      -4.9786150212     0.6370079490     1.6760862455
   36      C      -4.9680439782    -0.8941929327     1.3115316577
   37      C      -3.4308477863    -1.1332420434     1.0371477572
   38      O      -2.7555207700    -0.2238709315     1.9886988548
   39      H      -3.9004469927     1.5492492816    -0.6147095423
   40      H      -3.8170689872    -0.7589734626    -1.1536161702
   41      H       0.2378568519     1.9480416276    -2.1847741389
   42      H      -3.1026148459     1.8794785780     2.0886974592
   43      H      -5.3073032202     0.8020447180     2.7144826727
   44      H      -5.6180975253     1.2311256147     1.0038525403
   45      H      -5.3083223075    -1.5140127324     2.1561476260
   46      H      -5.5874045512    -1.1264398737     0.4304747049
   47      H      -3.0780533956    -2.1727610876     1.1810887350
   48      H      -0.0637530708     3.5010787366    -1.2814550197
   49      H      -0.6246180079     3.3399474189    -2.9963457459
   50      H       1.0364116764    -4.2787446411     1.2939551464
   51      H       2.7603855877    -4.1035110106     1.8159414137
   52      H       2.3271217091    -3.9189590908     0.0776828013
   53      H       1.4552969405    -1.2542056709    -3.6299466951
   54      H       0.0775641087    -0.1562781522    -4.0615016045
   55      H      -0.7295204572    -2.5196256544    -3.6194788100
   56      H       0.0201412934    -2.4656556828    -1.9646624695
 ----------------------------------------------------------------

    8   -1510.3013561666      9.32E-09 Convergence criterion met
 Total energy in the final basis set = -1510.30135617
 Final energy is   -1510.30135616656
 **  OPTIMIZATION CONVERGED  **

                    Orbital Energies (a.u.)
 --------------------------------------------------------------

 Alpha MOs
 -- Occupied --
-18.940 -18.939 -18.939 -18.909 -18.891 -18.883 -18.882 -18.881
-18.875 -18.848 -10.106 -10.104 -10.103 -10.081 -10.077 -10.076
-10.064 -10.063 -10.049 -10.049 -10.045 -10.044 -10.043 -10.042
-10.024 -10.023 -10.018 -10.015 -10.008 -10.007  -1.023  -1.015
 -1.010  -0.986  -0.973  -0.958  -0.945  -0.940  -0.938  -0.912
 -0.767  -0.750  -0.729  -0.720  -0.709  -0.703  -0.690  -0.661
 -0.645  -0.622  -0.597  -0.575  -0.550  -0.541  -0.533  -0.525
 -0.516  -0.499  -0.487  -0.465  -0.464  -0.457  -0.445  -0.441
 -0.435  -0.433  -0.423  -0.417  -0.413  -0.409  -0.399  -0.394
 -0.390  -0.380  -0.373  -0.365  -0.362  -0.353  -0.352  -0.346
 -0.343  -0.336  -0.333  -0.332  -0.327  -0.321  -0.313  -0.313
 -0.309  -0.305  -0.301  -0.293  -0.290  -0.280  -0.277  -0.267
 -0.263  -0.259  -0.253  -0.247  -0.237  -0.231  -0.222  -0.197
 -0.178  -0.171  -0.164  -0.155  -0.153  -0.152  -0.147  -0.133
 -0.129

          Ground-State Mulliken Net Atomic Charges

     Atom                 Charge (a.u.)
  ----------------------------------------
      1 O                    -0.215885
      2 C                     0.213650
      3 C                    -0.078339
      4 C                    -0.077963
      5 C                     0.205230
      6 O                    -0.171501
      7 C                    -0.055810
      8 C                    -0.048887
      9 O                    -0.181334
     10 C                     0.224972
     11 C                    -0.091322
     12 C                    -0.079971
     13 C                     0.214531
     14 O                    -0.219591
     15 O                    -0.167962
     16 O                    -0.168581
     17 O                    -0.208128
     18 C                    -0.127783
     19 C                     0.023317
     20 C                    -0.145131
     21 C                    -0.143675
     22 C                     0.024555
     23 O                    -0.191605
     24 H                     0.113850
     25 H                     0.088728
     26 H                     0.076826
     27 H                     0.072811
     28 H                     0.079948
     29 H                     0.074710
     30 H                     0.074472
     31 H                     0.086038
     32 O                    -0.202448
     33 C                    -0.147851
     34 C                     0.025889
     35 C                    -0.143757
     36 C                    -0.144150
     37 C                     0.026832
     38 O                    -0.182846
     39 H                     0.087108
     40 H                     0.087362
     41 H                     0.111519
     42 H                     0.086583
     43 H                     0.078879
     44 H                     0.073684
     45 H                     0.078984
     46 H                     0.073791
     47 H                     0.085677
     48 H                     0.084587
     49 H                     0.084089
     50 H                     0.083638
     51 H                     0.084731
     52 H                     0.088304
     53 H                     0.094904
     54 H                     0.091274
     55 H                     0.089955
     56 H                     0.103094
  ----------------------------------------
  Sum of atomic charges =    -0.000000

                    Cartesian Multipole Moments
 -----------------------------------------------------------------
    Charge (ESU x 10^10)
                -0.0000
    Dipole Moment (Debye)
         X      -4.6487      Y       0.7937      Z      -1.8950
       Tot       5.0825
    Quadrupole Moments (Debye-Ang)
        XX    -165.7496     XY       5.4938     YY    -151.2670
        XZ      -0.3591     YZ       2.5215     ZZ    -152.5769

 Total job time:  234.58s(wall), 11199.98s(cpu)
        *  Thank you very much for using Q-Chem.  Have a nice day.  *
