 Q-Chem 5.0, Q-Chem, Inc., Pleasanton, CA (2017)
 Q-Chem 5.0.1 for Intel X86 EM64T Linux

User input:
--------------------------------------------------------------
$molecule
0  1
O -3.94934 -3.66094 2.70899
C -3.26408 -4.56952 2.26188
C -3.36658 -6.02376 2.66595
C -4.70433 -6.49564 3.25891
C -5.84711 -5.50547 3.21741
O -5.76375 -4.65575 4.28345
C -6.22747 -3.3341 3.98772
C -5.09431 -2.49835 3.40155
O -5.35518 -2.22312 2.01625
C -5.45047 -0.91013 1.69049
C -5.72508 -0.68659 0.2224
C -6.9451 0.19533 -0.08098
C -7.48459 1.00043 1.08413
O -8.07808 2.06552 0.99529
O -2.21107 -4.24151 1.46668
O -7.73581 0.28675 2.21682
O -5.1237 0.01601 2.42808
C -8.36422 0.7788 3.3426
C -4.61015 0.09676 -0.4955
C -4.64694 -0.21476 -1.99
C -5.92788 0.48848 -2.39184
C -6.28812 1.18042 -1.07054
O -5.04348 1.43374 -0.46442
H -5.82692 -1.68494 -0.26378
H -7.79694 -0.37051 -0.5178
H -3.59698 -0.10108 -0.08197
H -3.78625 0.32164 -2.4505
H -4.59205 -1.29119 -2.26059
H -5.68439 1.23397 -3.18105
H -6.74918 -0.17786 -2.73414
H -6.92143 2.07269 -1.26945
O -6.76057 -5.50103 2.39998
C -1.94191 -2.96269 1.02416
C -3.29025 -6.93959 1.42001
C -2.84223 -8.34249 1.82751
C -4.08951 -8.8425 2.51819
C -5.02523 -7.65196 2.2868
O -4.62671 -7.13909 1.0429
H -2.4869 -6.24125 3.31152
H -4.63093 -6.89585 4.29497
H -1.76888 -2.28539 1.8877
H -2.61676 -6.55818 0.62204
H -2.69677 -8.93039 0.89277
H -1.9122 -8.38175 2.43445
H -4.46158 -9.73575 1.96836
H -3.97364 -9.08235 3.59727
H -6.08372 -7.9877 2.3591
H -2.79065 -2.58389 0.41511
H -1.02958 -2.97985 0.39364
H -8.4198 -0.02392 4.10632
H -9.39561 1.10877 3.09496
H -7.78544 1.63031 3.75984
H -5.49583 -1.59545 3.91766
H -4.18866 -2.08139 3.98144
H -6.55461 -2.9379 4.98228
H -7.15596 -3.30802 3.37104
$end

$opt
CONSTRAINT
tors           1           2           3           4     +23.537
tors           3           4           5           6     -83.555
tors           4           5           6           7    +146.506
tors           5           6           7           8     -86.726
tors           6           7           8           9    +111.090
tors           7           8           9          10    +119.979
tors           8           9          10          11    -180.000
tors           9          10          11          12    +126.354
tors          11          12          13          14    +152.028
ENDCONSTRAINT
$end

$rem
JOBTYPE                   OPT
METHOD                    B3LYP
DFT_D                     d3_op
BASIS                     STO-3G
GEOM_OPT_MAX_CYCLES       100
GEOM_OPT_TOL_GRADIENT     300
GEOM_OPT_TOL_DISPLACEMENT 1200
GEOM_OPT_TOL_ENERGY       100
SYMMETRY                  False
THRESH                    12
SCF_CONVERGENCE           8
MAX_SUB_FILE_NUM          128
MEM_STATIC                400
MEM_TOTAL                 4000
$end
--------------------------------------------------------------

   15   -1509.9975575866      8.18E-09 Convergence criterion met
 Total energy in the final basis set = -1509.99755759
   13   -1510.0809953551      8.77E-09 Convergence criterion met
 Total energy in the final basis set = -1510.08099536
   14   -1510.1361327704      6.03E-09 Convergence criterion met
 Total energy in the final basis set = -1510.13613277
   14   -1510.1726898351      5.36E-09 Convergence criterion met
 Total energy in the final basis set = -1510.17268984
   14   -1510.1965222406      4.38E-09 Convergence criterion met
 Total energy in the final basis set = -1510.19652224
   13   -1510.2128209425      5.40E-09 Convergence criterion met
 Total energy in the final basis set = -1510.21282094
   13   -1510.2247169532      4.40E-09 Convergence criterion met
 Total energy in the final basis set = -1510.22471695
   12   -1510.2338361036      8.52E-09 Convergence criterion met
   11   -1510.2721265402      3.36E-09 Convergence criterion met
 Total energy in the final basis set = -1510.27212654
   11   -1510.2721371391      1.74E-09 Convergence criterion met
 Total energy in the final basis set = -1510.27213714
   11   -1510.2721482851      1.88E-09 Convergence criterion met
 Total energy in the final basis set = -1510.27214829
    9   -1510.2721574037      9.10E-09 Convergence criterion met
 Total energy in the final basis set = -1510.27215740
    9   -1510.2721626022      5.99E-09 Convergence criterion met
 Total energy in the final basis set = -1510.27216260
    9   -1510.2721649924      7.00E-09 Convergence criterion met
 Total energy in the final basis set = -1510.27216499

             Standard Nuclear Orientation (Angstroms)
    I     Atom           X                Y                Z
 ----------------------------------------------------------------
    1      O       1.5061493060     0.6945304693    -0.0458111397
    2      C       2.5521363147     1.1554411596     0.4601334195
    3      C       3.8601574806     0.3513598927     0.7814180492
    4      C       3.9643612777    -0.9459865139    -0.1162873490
    5      C       2.6128776323    -1.5536774736    -0.6525474892
    6      O       2.0720294473    -2.3924588753     0.3975782234
    7      C       0.5969172904    -2.4039393679     0.4479356792
    8      C      -0.0317073643    -1.2391116629     1.3106657952
    9      O      -0.7355452333    -0.2753468604     0.4346674124
   10      C      -2.1223142216    -0.2036769109     0.7965255557
   11      C      -2.8146686394     0.8277692089    -0.1604819864
   12      C      -4.0866491434     0.2466407992    -0.9037053890
   13      C      -4.2725963100    -1.3075361766    -0.8104290945
   14      O      -5.3476182109    -1.9415098087    -0.8585507379
   15      O       2.6975984989     2.5142901687     0.8780447389
   16      O      -2.9778486605    -1.9230888643    -0.7890299066
   17      O      -2.6290732130    -0.8001797977     1.7734099622
   18      C      -3.1064628380    -3.3923908253    -0.6633058880
   19      C      -3.5035570654     1.9679741423     0.7100863571
   20      C      -3.9913623769     3.1270343947    -0.2481743543
   21      C      -5.2989480825     2.4952159479    -0.8574067800
   22      C      -5.2617491264     1.0568359802    -0.2110280539
   23      O      -4.7569373097     1.3180813282     1.1567748762
   24      H      -2.0608012901     1.2198040134    -0.8650176030
   25      H      -4.0358664861     0.4942513826    -1.9811494658
   26      H      -2.9082948975     2.2980558887     1.5833936581
   27      H      -4.2109392764     4.0401427726     0.3274283721
   28      H      -3.2394440532     3.3652927837    -1.0172880758
   29      H      -6.1989019120     3.0392758962    -0.5290134175
   30      H      -5.2861921330     2.4628513722    -1.9585412902
   31      H      -6.2266243948     0.5138957954    -0.1781092094
   32      O       2.1257941334    -1.4574916104    -1.7976454681
   33      C       1.4529823968     3.2605793383     0.5777780746
   34      C       5.0831152380     1.1778175841     0.2009600785
   35      C       6.4467970537     0.4272771198     0.4772404648
   36      C       6.4352553450    -0.6712606314    -0.6516160028
   37      C       4.9859042224    -0.4639842744    -1.2365533639
   38      O       4.8588826746     1.0130116700    -1.2568168935
   39      H       3.9287053439     0.1342777892     1.8629045328
   40      H       4.4273297762    -1.7494812197     0.4856504547
   41      H       0.5733365346     2.8010062634     1.0733718426
   42      H       5.0625489928     2.2492300010     0.4786139058
   43      H       7.2985443428     1.1166074140     0.3677131422
   44      H       6.4741091077    -0.0080459678     1.4892485189
   45      H       7.1938457187    -0.4601726521    -1.4224636872
   46      H       6.5951837804    -1.6896831374    -0.2631330447
   47      H       4.7984253750    -0.8849416706    -2.2433592015
   48      H       1.2588189616     3.3021550940    -0.5134382023
   49      H       1.6094751246     4.2836654781     0.9660985817
   50      H      -2.0773597539    -3.7933071108    -0.7090435007
   51      H      -3.7117065159    -3.8207537949    -1.4878295841
   52      H      -3.5722397137    -3.6745540347     0.3030311567
   53      H      -0.7774106519    -1.6405078642     2.0326985058
   54      H       0.7673410940    -0.7042966484     1.8645262211
   55      H       0.3255777763    -3.3816498437     0.8972808223
   56      H       0.1641948166    -2.3503591616    -0.5764932825
 ----------------------------------------------------------------

    9   -1510.2721658095      3.59E-09 Convergence criterion met
 Total energy in the final basis set = -1510.27216581
 Final energy is   -1510.27216580954
 **  OPTIMIZATION CONVERGED  **

                    Orbital Energies (a.u.)
 --------------------------------------------------------------

 Alpha MOs
 -- Occupied --
-18.941 -18.938 -18.924 -18.910 -18.886 -18.885 -18.884 -18.878
-18.874 -18.862 -10.103 -10.101 -10.096 -10.092 -10.069 -10.066
-10.065 -10.060 -10.059 -10.057 -10.057 -10.056 -10.043 -10.037
-10.034 -10.033 -10.021 -10.020 -10.019 -10.019  -1.019  -1.014
 -1.001  -0.996  -0.970  -0.969  -0.942  -0.938  -0.930  -0.924
 -0.763  -0.762  -0.725  -0.723  -0.710  -0.704  -0.691  -0.665
 -0.663  -0.616  -0.597  -0.578  -0.546  -0.542  -0.537  -0.534
 -0.511  -0.508  -0.481  -0.476  -0.462  -0.456  -0.453  -0.449
 -0.432  -0.430  -0.423  -0.416  -0.412  -0.412  -0.408  -0.400
 -0.383  -0.380  -0.375  -0.369  -0.360  -0.356  -0.352  -0.350
 -0.346  -0.336  -0.332  -0.329  -0.329  -0.326  -0.322  -0.311
 -0.310  -0.306  -0.304  -0.301  -0.293  -0.289  -0.281  -0.271
 -0.270  -0.259  -0.251  -0.238  -0.234  -0.234  -0.232  -0.183
 -0.180  -0.171  -0.157  -0.157  -0.155  -0.147  -0.146  -0.144
 -0.141

          Ground-State Mulliken Net Atomic Charges

     Atom                 Charge (a.u.)
  ----------------------------------------
      1 O                    -0.201888
      2 C                     0.211415
      3 C                    -0.076901
      4 C                    -0.082171
      5 C                     0.218334
      6 O                    -0.189625
      7 C                    -0.048928
      8 C                    -0.056507
      9 O                    -0.163967
     10 C                     0.213899
     11 C                    -0.078459
     12 C                    -0.078882
     13 C                     0.214425
     14 O                    -0.210361
     15 O                    -0.169530
     16 O                    -0.168967
     17 O                    -0.223050
     18 C                    -0.127868
     19 C                     0.025395
     20 C                    -0.144934
     21 C                    -0.142845
     22 C                     0.024524
     23 O                    -0.186708
     24 H                     0.089784
     25 H                     0.085701
     26 H                     0.080725
     27 H                     0.077277
     28 H                     0.073474
     29 H                     0.078180
     30 H                     0.073524
     31 H                     0.090222
     32 O                    -0.201768
     33 C                    -0.127488
     34 C                     0.023278
     35 C                    -0.145632
     36 C                    -0.141834
     37 C                     0.022622
     38 O                    -0.192478
     39 H                     0.086627
     40 H                     0.083456
     41 H                     0.090121
     42 H                     0.089643
     43 H                     0.078226
     44 H                     0.073270
     45 H                     0.077780
     46 H                     0.073558
     47 H                     0.088388
     48 H                     0.092053
     49 H                     0.091088
     50 H                     0.090218
     51 H                     0.091697
     52 H                     0.092327
     53 H                     0.097843
     54 H                     0.082450
     55 H                     0.082973
     56 H                     0.096293
  ----------------------------------------
  Sum of atomic charges =    -0.000000

                    Cartesian Multipole Moments
 -----------------------------------------------------------------
    Charge (ESU x 10^10)
                 0.0000
    Dipole Moment (Debye)
         X       2.2144      Y       1.1246      Z       0.5374
       Tot       2.5411
    Quadrupole Moments (Debye-Ang)
        XX    -161.6348     XY      -7.8095     YY    -148.5771
        XZ      14.6793     YZ       0.1595     ZZ    -164.3839

 Total job time:  113.96s(wall), 5434.57s(cpu)
        *  Thank you very much for using Q-Chem.  Have a nice day.  *
