 Q-Chem 5.0, Q-Chem, Inc., Pleasanton, CA (2017)
 Q-Chem 5.0.1 for Intel X86 EM64T Linux

User input:
--------------------------------------------------------------
$molecule
0  1
O -3.94934 -3.66094 2.70899
C -3.26408 -4.56952 2.26188
C -3.36658 -6.02376 2.66595
C -2.42323 -7.01568 1.96593
C -1.36108 -6.41841 1.06971
O -1.45995 -6.94965 -0.18465
C -0.52648 -6.38403 -1.11092
C -1.10996 -5.12402 -1.74185
O -0.061 -4.34362 -2.33645
C 0.67047 -4.97742 -3.28639
C 0.89813 -4.13069 -4.51598
C 2.08441 -4.56388 -5.38969
C 2.63336 -5.95016 -5.11843
O 3.2649 -6.63059 -5.91388
O -2.37831 -4.13603 1.32805
O 2.98325 -6.16173 -3.81538
O 0.53772 -6.17245 -3.50648
C 3.62674 -7.27251 -3.29788
C -0.25592 -4.19688 -5.53474
C -0.24068 -2.94302 -6.4064
C 1.0046 -3.19081 -7.23367
C 1.37442 -4.60177 -6.75885
O 0.13661 -5.19352 -6.4451
H 1.01937 -3.07829 -4.1701
H 2.93879 -3.85258 -5.358
H -1.25306 -4.32936 -5.06055
H -1.12982 -3.00398 -7.0744
H -0.26131 -1.97637 -5.85866
H 0.71527 -3.19575 -8.30804
H 1.83836 -2.47525 -7.06492
H 1.97598 -5.11997 -7.5377
O -0.44337 -5.70543 1.4686
C -2.15841 -2.80132 1.01566
C -2.95426 -6.23735 4.13346
C -3.56727 -7.53303 4.66464
C -2.72109 -8.56256 3.94405
C -1.74656 -7.64861 3.1946
O -1.58459 -6.55217 4.06276
H -4.4328 -6.3074 2.51818
H -3.00255 -7.77129 1.38612
H -1.84828 -2.24417 1.9257
H -3.22812 -5.3842 4.79232
H -3.34174 -7.59079 5.75357
H -4.66384 -7.62511 4.50973
H -2.16934 -9.15838 4.70506
H -3.27593 -9.24211 3.26164
H -0.82043 -8.20447 2.92771
H -3.08077 -2.34768 0.59407
H -1.33962 -2.70699 0.27596
H 2.99008 -7.72204 -2.50808
H 4.58889 -6.95799 -2.84414
H 3.82732 -8.05036 -4.06497
H -1.90845 -5.38214 -2.47151
H -1.56544 -4.49879 -0.96843
H -0.32866 -7.20801 -1.81559
H 0.45489 -6.16886 -0.62818
$end

$opt
CONSTRAINT
tors           1           2           3           4    +179.103
tors           3           4           5           6    -124.201
tors           4           5           6           7    +177.134
tors           5           6           7           8     -86.726
tors           6           7           8           9    +162.424
tors           7           8           9          10     +58.049
tors           8           9          10          11    +134.643
tors           9          10          11          12    +159.602
tors          11          12          13          14    +156.702
ENDCONSTRAINT
$end

$rem
JOBTYPE                   OPT
METHOD                    B3LYP
DFT_D                     d3_op
BASIS                     STO-3G
GEOM_OPT_MAX_CYCLES       100
GEOM_OPT_TOL_GRADIENT     300
GEOM_OPT_TOL_DISPLACEMENT 1200
GEOM_OPT_TOL_ENERGY       100
SYMMETRY                  False
THRESH                    12
SCF_CONVERGENCE           8
MAX_SUB_FILE_NUM          128
MEM_STATIC                400
MEM_TOTAL                 4000
$end
--------------------------------------------------------------

   15   -1510.1024614645      8.12E-09 Convergence criterion met
 Total energy in the final basis set = -1510.10246146
   14   -1510.1789491467      7.82E-09 Convergence criterion met
 Total energy in the final basis set = -1510.17894915
   14   -1510.2212560639      8.30E-09 Convergence criterion met
 Total energy in the final basis set = -1510.22125606
   14   -1510.2424027996      9.27E-09 Convergence criterion met
 Total energy in the final basis set = -1510.24240280
   14   -1510.2522779567      4.44E-09 Convergence criterion met
 Total energy in the final basis set = -1510.25227796
   13   -1510.2561482329      6.43E-09 Convergence criterion met
 Total energy in the final basis set = -1510.25614823
   13   -1510.2588577571      4.42E-09 Convergence criterion met
 Total energy in the final basis set = -1510.25885776
   13   -1510.2603636882      3.13E-09 Convergence criterion met
   11   -1510.2646736994      8.17E-09 Convergence criterion met
 Total energy in the final basis set = -1510.26467370
   11   -1510.2647166721      6.55E-09 Convergence criterion met
 Total energy in the final basis set = -1510.26471667
   10   -1510.2647487148      9.64E-09 Convergence criterion met
 Total energy in the final basis set = -1510.26474871
   10   -1510.2647625696      6.81E-09 Convergence criterion met
 Total energy in the final basis set = -1510.26476257
    9   -1510.2647661857      9.07E-09 Convergence criterion met
 Total energy in the final basis set = -1510.26476619
    9   -1510.2647672613      5.28E-09 Convergence criterion met
 Total energy in the final basis set = -1510.26476726

             Standard Nuclear Orientation (Angstroms)
    I     Atom           X                Y                Z
 ----------------------------------------------------------------
    1      O       4.9038111906    -2.7394128205     1.0221820195
    2      C       4.2721582164    -1.7706802432     0.5435723119
    3      C       4.9139504229    -0.6833603489    -0.3904658360
    4      C       4.0437304637     0.5048518762    -0.9760126975
    5      C       2.6588713965     0.7591768993    -0.2868381291
    6      O       1.6523964251     0.6924886458    -1.3128684271
    7      C       0.3034363540     0.8566808475    -0.7183014654
    8      C      -0.2151529408    -0.5585603142    -0.2487144326
    9      O      -1.3397048874    -0.5576115266     0.7156093728
   10      C      -2.4978314853     0.1353019741     0.2014813443
   11      C      -3.7678795081    -0.7429508100     0.4993998810
   12      C      -5.1280104171     0.0572266360     0.4734313623
   13      C      -5.0347047385     1.6037345946     0.7177495960
   14      O      -5.8681183606     2.4616663331     0.3515786425
   15      O       2.8611968134    -1.6036917407     0.7209098225
   16      O      -3.9594949962     1.8631306476     1.6292345352
   17      O      -2.4616697302     1.1563706838    -0.5172286032
   18      C      -3.8518475226     3.3127541682     1.9084684201
   19      C      -3.9714798328    -1.6539457834    -0.7932259910
   20      C      -5.1492055778    -2.6803738688    -0.5446483098
   21      C      -6.4115114161    -1.7645949022    -0.7627898576
   22      C      -5.7230738195    -0.3569917974    -0.9399900981
   23      O      -4.5317324588    -0.6821238293    -1.7607064041
   24      H      -3.6222137449    -1.3280077589     1.4239177892
   25      H      -5.7883099804    -0.3287585462     1.2737778591
   26      H      -3.0386373795    -2.1019994495    -1.1874324919
   27      H      -5.1092863180    -3.5012937063    -1.2781148983
   28      H      -5.1088943357    -3.1110585646     0.4689247055
   29      H      -6.9540058095    -2.0424393982    -1.6806682272
   30      H      -7.1131372157    -1.7896459701     0.0861591038
   31      H      -6.3356378611     0.4275317128    -1.4255865601
   32      O       2.4339828778     1.0927211655     0.8957574767
   33      C       2.3512801976    -2.6703985610     1.6178522500
   34      C       6.0950137038     0.1179379152     0.3257888248
   35      C       7.1222471548     0.5437529161    -0.7938721558
   36      C       6.2969468706     1.6565479505    -1.5406321843
   37      C       4.9982634166     1.7345465022    -0.6436492138
   38      O       5.4768597935     1.4026369925     0.7180928701
   39      H       5.3397005062    -1.2560430501    -1.2358741948
   40      H       3.8720564817     0.3790581243    -2.0591107288
   41      H       2.9197389617    -2.7068213825     2.5684469670
   42      H       6.5306915636    -0.3970124713     1.2040710721
   43      H       8.0354702315     0.9581735416    -0.3372505987
   44      H       7.4028123077    -0.2968511688    -1.4482460521
   45      H       6.8246855106     2.6231994483    -1.5411212797
   46      H       6.0611069687     1.3832416359    -2.5817171606
   47      H       4.4866962522     2.7165358847    -0.6431270626
   48      H       2.4081478103    -3.6669466844     1.1337810205
   49      H       1.2952645109    -2.4200127210     1.8271084438
   50      H      -2.9259124384     3.7066414556     1.4436348487
   51      H      -3.8012893175     3.4537202215     3.0053393906
   52      H      -4.7350711426     3.8373732065     1.4910662114
   53      H      -0.4868905786    -1.1626647896    -1.1428589168
   54      H       0.6197393685    -1.0664903531     0.2746267762
   55      H      -0.3536799860     1.2846797299    -1.4989329617
   56      H       0.3512395306     1.5402838394     0.1561260131
 ----------------------------------------------------------------

    9   -1510.2647677186      4.60E-09 Convergence criterion met
 Total energy in the final basis set = -1510.26476772
 Final energy is   -1510.26476771858
 **  OPTIMIZATION CONVERGED  **

                    Orbital Energies (a.u.)
 --------------------------------------------------------------

 Alpha MOs
 -- Occupied --
-18.942 -18.931 -18.925 -18.920 -18.890 -18.890 -18.883 -18.875
-18.874 -18.868 -10.103 -10.102 -10.100 -10.095 -10.068 -10.067
-10.064 -10.061 -10.061 -10.060 -10.060 -10.055 -10.041 -10.039
-10.038 -10.037 -10.024 -10.022 -10.021 -10.020  -1.016  -1.011
 -1.005  -1.002  -0.973  -0.972  -0.939  -0.938  -0.933  -0.929
 -0.765  -0.763  -0.727  -0.723  -0.711  -0.707  -0.693  -0.666
 -0.657  -0.619  -0.599  -0.583  -0.546  -0.545  -0.540  -0.538
 -0.514  -0.512  -0.480  -0.475  -0.462  -0.458  -0.452  -0.447
 -0.439  -0.432  -0.431  -0.415  -0.413  -0.412  -0.407  -0.392
 -0.391  -0.379  -0.375  -0.366  -0.364  -0.356  -0.353  -0.349
 -0.343  -0.342  -0.334  -0.333  -0.331  -0.326  -0.324  -0.315
 -0.314  -0.307  -0.307  -0.298  -0.295  -0.291  -0.291  -0.272
 -0.272  -0.261  -0.247  -0.246  -0.238  -0.235  -0.234  -0.185
 -0.179  -0.170  -0.160  -0.157  -0.157  -0.151  -0.149  -0.146
 -0.143

          Ground-State Mulliken Net Atomic Charges

     Atom                 Charge (a.u.)
  ----------------------------------------
      1 O                    -0.216125
      2 C                     0.209145
      3 C                    -0.079542
      4 C                    -0.079927
      5 C                     0.213538
      6 O                    -0.176311
      7 C                    -0.055662
      8 C                    -0.053014
      9 O                    -0.182792
     10 C                     0.220622
     11 C                    -0.075812
     12 C                    -0.079547
     13 C                     0.216002
     14 O                    -0.215609
     15 O                    -0.168819
     16 O                    -0.171451
     17 O                    -0.202510
     18 C                    -0.134874
     19 C                     0.023972
     20 C                    -0.144710
     21 C                    -0.142054
     22 C                     0.024739
     23 O                    -0.189401
     24 H                     0.087790
     25 H                     0.084636
     26 H                     0.079697
     27 H                     0.078470
     28 H                     0.074321
     29 H                     0.078740
     30 H                     0.074181
     31 H                     0.091307
     32 O                    -0.209962
     33 C                    -0.128016
     34 C                     0.026249
     35 C                    -0.142453
     36 C                    -0.145200
     37 C                     0.026598
     38 O                    -0.185418
     39 H                     0.085431
     40 H                     0.086415
     41 H                     0.095095
     42 H                     0.087381
     43 H                     0.078629
     44 H                     0.074117
     45 H                     0.078718
     46 H                     0.074020
     47 H                     0.084034
     48 H                     0.088529
     49 H                     0.093219
     50 H                     0.088212
     51 H                     0.085875
     52 H                     0.101631
     53 H                     0.075850
     54 H                     0.095679
     55 H                     0.099085
     56 H                     0.097283
  ----------------------------------------
  Sum of atomic charges =    -0.000000

                    Cartesian Multipole Moments
 -----------------------------------------------------------------
    Charge (ESU x 10^10)
                -0.0000
    Dipole Moment (Debye)
         X      -0.1230      Y      -2.2168      Z      -0.5786
       Tot       2.2944
    Quadrupole Moments (Debye-Ang)
        XX    -154.7516     XY      12.3860     YY    -157.3399
        XZ     -17.4705     YZ       0.5911     ZZ    -161.1603

 Total job time:  61.01s(wall), 2899.17s(cpu)
        *  Thank you very much for using Q-Chem.  Have a nice day.  *
