 Q-Chem 5.0, Q-Chem, Inc., Pleasanton, CA (2017)
 Q-Chem 5.0.1 for Intel X86 EM64T Linux

User input:
--------------------------------------------------------------
$molecule
0  1
O 4.9038111906 -2.7394128205 1.0221820195
C 4.2721582164 -1.7706802432 0.5435723119
C 4.9139504229 -0.6833603489 -0.390465836
C 4.0437304637 0.5048518762 -0.9760126975
C 2.6588713965 0.7591768993 -0.2868381291
O 1.6523964251 0.6924886458 -1.3128684271
C 0.303436354 0.8566808475 -0.7183014654
C -0.2151529408 -0.5585603142 -0.2487144326
O -1.3397048874 -0.5576115266 0.7156093728
C -2.4978314853 0.1353019741 0.2014813443
C -3.7678795081 -0.74295081 0.499399881
C -5.1280104171 0.057226636 0.4734313623
C -5.0347047385 1.6037345946 0.717749596
O -5.8681183606 2.4616663331 0.3515786425
O 2.8611968134 -1.6036917407 0.7209098225
O -3.9594949962 1.8631306476 1.6292345352
O -2.4616697302 1.1563706838 -0.5172286032
C -3.8518475226 3.3127541682 1.9084684201
C -3.9714798328 -1.6539457834 -0.793225991
C -5.1492055778 -2.6803738688 -0.5446483098
C -6.4115114161 -1.7645949022 -0.7627898576
C -5.7230738195 -0.3569917974 -0.9399900981
O -4.5317324588 -0.6821238293 -1.7607064041
H -3.6222137449 -1.3280077589 1.4239177892
H -5.7883099804 -0.3287585462 1.2737778591
H -3.0386373795 -2.1019994495 -1.1874324919
H -5.109286318 -3.5012937063 -1.2781148983
H -5.1088943357 -3.1110585646 0.4689247055
H -6.9540058095 -2.0424393982 -1.6806682272
H -7.1131372157 -1.7896459701 0.0861591038
H -6.3356378611 0.4275317128 -1.4255865601
O 2.4339828778 1.0927211655 0.8957574767
C 2.3512801976 -2.670398561 1.61785225
C 6.0950137038 0.1179379152 0.3257888248
C 7.1222471548 0.5437529161 -0.7938721558
C 6.2969468706 1.6565479505 -1.5406321843
C 4.9982634166 1.7345465022 -0.6436492138
O 5.4768597935 1.4026369925 0.7180928701
H 5.3397005062 -1.2560430501 -1.2358741948
H 3.8720564817 0.3790581243 -2.0591107288
H 2.9197389617 -2.7068213825 2.568446967
H 6.5306915636 -0.3970124713 1.2040710721
H 8.0354702315 0.9581735416 -0.3372505987
H 7.4028123077 -0.2968511688 -1.4482460521
H 6.8246855106 2.6231994483 -1.5411212797
H 6.0611069687 1.3832416359 -2.5817171606
H 4.4866962522 2.7165358847 -0.6431270626
H 2.4081478103 -3.6669466844 1.1337810205
H 1.2952645109 -2.420012721 1.8271084438
H -2.9259124384 3.7066414556 1.4436348487
H -3.8012893175 3.4537202215 3.0053393906
H -4.7350711426 3.8373732065 1.4910662114
H -0.4868905786 -1.1626647896 -1.1428589168
H 0.6197393685 -1.0664903531 0.2746267762
H -0.353679986 1.2846797299 -1.4989329617
H 0.3512395306 1.5402838394 0.1561260131
$end

$rem
JOBTYPE                   OPT
METHOD                    B3LYP
DFT_D                     d3_op
BASIS                     STO-3G
GEOM_OPT_MAX_CYCLES       100
GEOM_OPT_TOL_GRADIENT     300
GEOM_OPT_TOL_DISPLACEMENT 1200
GEOM_OPT_TOL_ENERGY       100
SYMMETRY                  False
THRESH                    12
SCF_CONVERGENCE           8
MAX_SUB_FILE_NUM          128
MEM_STATIC                400
MEM_TOTAL                 4000
$end
--------------------------------------------------------------

   16   -1510.2647877411      6.48E-09 Convergence criterion met
 Total energy in the final basis set = -1510.26478774
   14   -1510.2696571349      3.82E-09 Convergence criterion met
 Total energy in the final basis set = -1510.26965713
   14   -1510.2738473555      4.97E-09 Convergence criterion met
 Total energy in the final basis set = -1510.27384736
   14   -1510.2769432894      5.53E-09 Convergence criterion met
 Total energy in the final basis set = -1510.27694329
   13   -1510.2795040634      9.60E-09 Convergence criterion met
 Total energy in the final basis set = -1510.27950406
   13   -1510.2804048963      4.33E-09 Convergence criterion met
 Total energy in the final basis set = -1510.28040490
   13   -1510.2820467100      4.87E-09 Convergence criterion met
 Total energy in the final basis set = -1510.28204671
   13   -1510.2832001631      3.37E-09 Convergence criterion met
   13   -1510.2987148257      4.65E-09 Convergence criterion met
 Total energy in the final basis set = -1510.29871483
   12   -1510.2987319634      2.29E-09 Convergence criterion met
 Total energy in the final basis set = -1510.29873196
   11   -1510.2987397387      3.14E-09 Convergence criterion met
 Total energy in the final basis set = -1510.29873974
   11   -1510.2987479217      4.99E-09 Convergence criterion met
 Total energy in the final basis set = -1510.29874792
   11   -1510.2987526674      4.74E-09 Convergence criterion met
 Total energy in the final basis set = -1510.29875267
   11   -1510.2987606538      3.17E-09 Convergence criterion met
 Total energy in the final basis set = -1510.29876065

             Standard Nuclear Orientation (Angstroms)
    I     Atom           X                Y                Z
 ----------------------------------------------------------------
    1      O       2.3951595621    -0.5963742648     2.6537757131
    2      C       2.5400371862    -0.6323919660     1.4126201133
    3      C       3.8511733151    -0.3346098419     0.6050939357
    4      C       3.6395374768     0.5768203289    -0.6753183408
    5      C       2.1659446904     1.0749513207    -0.8692493233
    6      O       1.6753641123     0.5337504047    -2.0997315089
    7      C       0.3253416841     1.0543773752    -2.4223852940
    8      C      -0.5594708451    -0.1026391178    -3.0055035087
    9      O      -1.1486196176    -0.9712387876    -1.9592326727
   10      C      -2.3748879534    -0.3983088120    -1.4796809080
   11      C      -3.0311762488    -1.4057485153    -0.4774290153
   12      C      -3.4691248790    -0.7437905630     0.8960258501
   13      C      -3.0824107697     0.7717636728     1.0318742626
   14      O      -3.8257162537     1.7270908719     1.3334934654
   15      O       1.5243206106    -1.0030842431     0.4796264193
   16      O      -1.6777202241     0.8960808059     0.7763377894
   17      O      -2.8370332614     0.6950939448    -1.8723668466
   18      C      -1.2222252321     2.3003515923     0.9020629339
   19      C      -4.4453440043    -1.8882894953    -1.0262575382
   20      C      -4.9121287720    -3.1396243633    -0.1817066079
   21      C      -5.3624605304    -2.4513651306     1.1608713369
   22      C      -5.0410506023    -0.9390243417     0.8476771775
   23      O      -5.3591737616    -0.8084098813    -0.5939612314
   24      H      -2.3367132782    -2.2492305633    -0.3247977878
   25      H      -3.0181759106    -1.2886789672     1.7462751191
   26      H      -4.4906488858    -2.0183260306    -2.1250037559
   27      H      -5.7543587658    -3.6466549096    -0.6789750777
   28      H      -4.0983909626    -3.8678093482    -0.0349232302
   29      H      -6.4408537217    -2.5864950300     1.3409738560
   30      H      -4.8083909006    -2.8227832141     2.0375890362
   31      H      -5.6031121652    -0.1887795490     1.4372602044
   32      O       1.5408956089     1.8765385553    -0.1375302095
   33      C       0.2432490515    -1.2864071941     1.1731763788
   34      C       4.8605991515     0.5458242758     1.4508470496
   35      C       6.2910648902     0.4366487294     0.7942536327
   36      C       6.0965277326     1.3146495171    -0.4983029253
   37      C       4.6008009305     1.7933806919    -0.3221017021
   38      O       4.4444040548     1.9343155884     1.1422960787
   39      H       4.3009623766    -1.3031998321     0.3173179994
   40      H       3.9493749178     0.0552523605    -1.5972242695
   41      H      -0.4737178817    -0.4465131226     1.0005948275
   42      H       4.8076181204     0.3576581250     2.5410018741
   43      H       7.0548457058     0.8659966578     1.4619351384
   44      H       6.5666671304    -0.6051111008     0.5647984898
   45      H       6.7788346781     2.1793354502    -0.5062812312
   46      H       6.2403919576     0.7414772649    -1.4282291625
   47      H       4.3451421865     2.7426862766    -0.8315260601
   48      H       0.4290520636    -1.4077034892     2.2584830802
   49      H      -0.1621241916    -2.2226459546     0.7459748230
   50      H      -1.8224146222     2.9673955691     0.2517667337
   51      H      -0.1576649299     2.2910331142     0.5772890241
   52      H      -1.3063715737     2.6527504674     1.9496172255
   53      H      -1.3665956359     0.3524963800    -3.6191943426
   54      H       0.0655668581    -0.7654943864    -3.6381039890
   55      H       0.4264185620     1.8503880595    -3.1928272041
   56      H      -0.1425604478     1.4962029500    -1.5191584058
 ----------------------------------------------------------------

    9   -1510.2987612213      6.67E-09 Convergence criterion met
 Total energy in the final basis set = -1510.29876122
 Final energy is   -1510.29876122134
 **  OPTIMIZATION CONVERGED  **

                    Orbital Energies (a.u.)
 --------------------------------------------------------------

 Alpha MOs
 -- Occupied --
-18.939 -18.937 -18.936 -18.930 -18.889 -18.888 -18.882 -18.878
-18.874 -18.874 -10.107 -10.104 -10.101 -10.097 -10.076 -10.073
-10.063 -10.061 -10.059 -10.057 -10.047 -10.041 -10.040 -10.039
-10.038 -10.036 -10.022 -10.021 -10.021 -10.020  -1.018  -1.014
 -1.009  -1.005  -0.972  -0.970  -0.943  -0.939  -0.935  -0.932
 -0.766  -0.764  -0.729  -0.724  -0.715  -0.706  -0.699  -0.657
 -0.651  -0.621  -0.599  -0.581  -0.548  -0.545  -0.539  -0.538
 -0.512  -0.512  -0.481  -0.477  -0.462  -0.460  -0.455  -0.453
 -0.435  -0.431  -0.427  -0.421  -0.412  -0.409  -0.404  -0.400
 -0.395  -0.383  -0.373  -0.372  -0.366  -0.356  -0.353  -0.349
 -0.346  -0.343  -0.333  -0.333  -0.330  -0.328  -0.323  -0.312
 -0.311  -0.306  -0.305  -0.301  -0.295  -0.289  -0.286  -0.277
 -0.271  -0.256  -0.251  -0.249  -0.242  -0.236  -0.234  -0.187
 -0.182  -0.171  -0.168  -0.161  -0.158  -0.152  -0.151  -0.145
 -0.144

          Ground-State Mulliken Net Atomic Charges

     Atom                 Charge (a.u.)
  ----------------------------------------
      1 O                    -0.213148
      2 C                     0.212503
      3 C                    -0.078207
      4 C                    -0.078055
      5 C                     0.223307
      6 O                    -0.169932
      7 C                    -0.053341
      8 C                    -0.049373
      9 O                    -0.169797
     10 C                     0.209797
     11 C                    -0.079122
     12 C                    -0.079473
     13 C                     0.218235
     14 O                    -0.202675
     15 O                    -0.173355
     16 O                    -0.177429
     17 O                    -0.216109
     18 C                    -0.143985
     19 C                     0.025977
     20 C                    -0.143976
     21 C                    -0.143832
     22 C                     0.024579
     23 O                    -0.185936
     24 H                     0.085939
     25 H                     0.084903
     26 H                     0.082675
     27 H                     0.078654
     28 H                     0.073593
     29 H                     0.078982
     30 H                     0.073478
     31 H                     0.091759
     32 O                    -0.221907
     33 C                    -0.153712
     34 C                     0.023982
     35 C                    -0.143825
     36 C                    -0.144078
     37 C                     0.025725
     38 O                    -0.186754
     39 H                     0.084907
     40 H                     0.086645
     41 H                     0.109894
     42 H                     0.091342
     43 H                     0.078529
     44 H                     0.073142
     45 H                     0.078229
     46 H                     0.073288
     47 H                     0.082828
     48 H                     0.090398
     49 H                     0.076064
     50 H                     0.088610
     51 H                     0.118145
     52 H                     0.085137
     53 H                     0.094933
     54 H                     0.093735
     55 H                     0.084485
     56 H                     0.103618
  ----------------------------------------
  Sum of atomic charges =     0.000000

                    Cartesian Multipole Moments
 -----------------------------------------------------------------
    Charge (ESU x 10^10)
                 0.0000
    Dipole Moment (Debye)
         X       2.0047      Y      -2.9928      Z      -1.8974
       Tot       4.0714
    Quadrupole Moments (Debye-Ang)
        XX    -158.0068     XY       9.3761     YY    -158.5619
        XZ      -9.6651     YZ      -4.8876     ZZ    -158.8101

 Total job time:  230.02s(wall), 10979.69s(cpu)
        *  Thank you very much for using Q-Chem.  Have a nice day.  *
