 Q-Chem 5.0, Q-Chem, Inc., Pleasanton, CA (2017)
 Q-Chem 5.0.1 for Intel X86 EM64T Linux

User input:
--------------------------------------------------------------
$molecule
0  1
O -3.94934 -3.66094 2.70899
C -3.26408 -4.56952 2.26188
C -3.36658 -6.02376 2.66595
C -3.29396 -7.07174 1.54331
C -2.94899 -6.55846 0.16286
O -1.59416 -6.44 0.03703
C -1.13608 -6.61498 -1.30788
C 0.08665 -7.52627 -1.33233
O -0.24913 -8.77936 -1.94869
C 0.79057 -9.62575 -2.15313
C 0.50421 -11.03305 -1.68608
C 0.72871 -12.12418 -2.74311
C 1.52813 -11.70904 -3.96184
O 2.32054 -12.41816 -4.565
O -2.19887 -4.23034 1.48783
O 1.04778 -10.62776 -4.63523
O 1.91516 -9.24132 -2.45164
C 1.5445 -10.16361 -5.83591
C 1.44473 -11.51662 -0.5659
C 0.7603 -12.62428 0.23218
C 0.76155 -13.7468 -0.78661
C 1.58415 -13.09944 -1.90884
O 2.45846 -12.22578 -1.2352
H -0.5434 -11.06103 -1.30459
H -0.22622 -12.55864 -3.11203
H 1.77971 -10.69995 0.11057
H 1.45321 -12.8946 1.06131
H -0.23476 -12.37205 0.6579
H 1.29555 -14.61782 -0.34617
H -0.241 -14.05681 -1.15344
H 2.06506 -13.88624 -2.53023
O -3.74312 -6.59264 -0.76973
C -1.90569 -2.94787 1.07404
C -2.17078 -6.48216 3.53157
C -2.58413 -7.67418 4.39416
C -2.69481 -8.75952 3.3421
C -2.19642 -7.9988 2.10781
O -1.27019 -7.07678 2.62919
H -4.2897 -6.1162 3.2824
H -4.26869 -7.60015 1.44361
H -1.7297 -2.29187 1.95313
H -1.75815 -5.67082 4.17069
H -1.71903 -7.90941 5.05514
H -3.48985 -7.52512 5.02043
H -1.99425 -9.58138 3.60999
H -3.71725 -9.16607 3.18466
H -1.81072 -8.70649 1.34073
H -2.74106 -2.54381 0.46321
H -0.98664 -2.9684 0.45319
H 0.96776 -9.26811 -6.14556
H 1.44327 -10.94297 -6.62108
H 2.61256 -9.87979 -5.72206
H 0.83011 -7.03149 -1.99988
H 0.5565 -7.64148 -0.32988
H -0.76934 -5.60365 -1.59155
H -1.87131 -6.88602 -2.09906
$end

$opt
CONSTRAINT
tors           1           2           3           4    +137.582
tors           3           4           5           6     +83.420
tors           4           5           6           7    +150.860
tors           5           6           7           8    -134.913
tors           6           7           8           9    +111.090
tors           7           8           9          10    +173.554
tors           8           9          10          11    +132.068
tors           9          10          11          12    +126.354
tors          11          12          13          14    +144.066
ENDCONSTRAINT
$end

$rem
JOBTYPE                   OPT
METHOD                    B3LYP
DFT_D                     d3_op
BASIS                     STO-3G
GEOM_OPT_MAX_CYCLES       100
GEOM_OPT_TOL_GRADIENT     300
GEOM_OPT_TOL_DISPLACEMENT 1200
GEOM_OPT_TOL_ENERGY       100
SYMMETRY                  False
THRESH                    12
SCF_CONVERGENCE           8
MAX_SUB_FILE_NUM          128
MEM_STATIC                400
MEM_TOTAL                 4000
$end
--------------------------------------------------------------

   15   -1510.1257416062      7.39E-09 Convergence criterion met
 Total energy in the final basis set = -1510.12574161
   13   -1510.1956901120      7.96E-09 Convergence criterion met
 Total energy in the final basis set = -1510.19569011
   13   -1510.2327359838      8.72E-09 Convergence criterion met
 Total energy in the final basis set = -1510.23273598
   13   -1510.2491273199      9.10E-09 Convergence criterion met
 Total energy in the final basis set = -1510.24912732
   13   -1510.2554603013      7.17E-09 Convergence criterion met
 Total energy in the final basis set = -1510.25546030
   13   -1510.2584290256      3.34E-09 Convergence criterion met
 Total energy in the final basis set = -1510.25842903
   12   -1510.2599491445      7.97E-09 Convergence criterion met
 Total energy in the final basis set = -1510.25994914
   12   -1510.2606274627      8.98E-09 Convergence criterion met
   12   -1510.2621227971      2.71E-09 Convergence criterion met
 Total energy in the final basis set = -1510.26212280
   11   -1510.2621607034      5.00E-09 Convergence criterion met
 Total energy in the final basis set = -1510.26216070
   11   -1510.2621967173      5.82E-09 Convergence criterion met
 Total energy in the final basis set = -1510.26219672
   11   -1510.2622171730      2.57E-09 Convergence criterion met
 Total energy in the final basis set = -1510.26221717
   11   -1510.2622269128      2.82E-09 Convergence criterion met
 Total energy in the final basis set = -1510.26222691
    9   -1510.2622304094      5.74E-09 Convergence criterion met
 Total energy in the final basis set = -1510.26223041

             Standard Nuclear Orientation (Angstroms)
    I     Atom           X                Y                Z
 ----------------------------------------------------------------
    1      O      -6.7533365781    -0.8517987889     0.0937477072
    2      C      -5.5308682383    -0.6253552345    -0.0480347448
    3      C      -4.7662202041     0.6447033155     0.4517987841
    4      C      -3.3462674966     0.4071975082     1.1241963208
    5      C      -2.7291001918    -1.0349242830     0.9733059196
    6      O      -2.0600530281    -1.1532783021    -0.2898618396
    7      C      -0.9413148950    -2.1221904419    -0.2119717122
    8      C       0.2927700374    -1.4681037093    -0.9328104069
    9      O       1.3047791266    -1.1612727613     0.1050398826
   10      C       2.5267002079    -0.6950172950    -0.5228722708
   11      C       3.0146061764     0.6141673639     0.2027709681
   12      C       4.5127017573     0.5564701561     0.7132084260
   13      C       5.1735361299    -0.8588606085     0.5766440895
   14      O       6.3593415668    -1.1253077638     0.2915292646
   15      O      -4.6309401592    -1.5057956188    -0.7226116106
   16      O       4.1845842403    -1.8391613033     0.9230389756
   17      O       2.9964551960    -1.1781754915    -1.5752008755
   18      C       4.7139323994    -3.2061035531     0.7175425096
   19      C       3.1261506790     1.7938767661    -0.8599611767
   20      C       3.3070871363     3.1578751279    -0.0804084467
   21      C       4.8200333472     3.0690357792     0.3475376102
   22      C       5.2053573452     1.6432947837    -0.2080286135
   23      O       4.4487982953     1.5576984323    -1.4792248881
   24      H       2.3088465642     0.8467005347     1.0184799936
   25      H       4.5689424554     0.8481113872     1.7787853328
   26      H       2.3328210194     1.7953649885    -1.6329112429
   27      H       3.1234963511     4.0129006757    -0.7501928252
   28      H       2.6253710525     3.2310928126     0.7818478091
   29      H       5.4234983779     3.8488698531    -0.1437008224
   30      H       4.9602389303     3.1459048491     1.4375816933
   31      H       6.2843986562     1.4648190710    -0.3829477918
   32      O      -2.6983985860    -1.9123044312     1.8646585428
   33      C      -5.3446133021    -2.7205975255    -1.1778100680
   34      C      -4.3827392985     1.6681429219    -0.7137353098
   35      C      -4.2453004978     3.0980171089    -0.0586397214
   36      C      -2.9039834218     2.9244108287     0.7459371078
   37      C      -2.4736609672     1.4628280838     0.3228966972
   38      O      -2.9877452053     1.3241444024    -1.0595370295
   39      H      -5.4446651293     1.1383894743     1.1703124888
   40      H      -3.3900899022     0.6245572977     2.2062933982
   41      H      -6.1477418317    -2.4737856512    -1.9019695038
   42      H      -5.0317995585     1.6158302774    -1.6092930404
   43      H      -4.1485196188     3.8677722452    -0.8410634722
   44      H      -5.1032353978     3.3512215939     0.5843384442
   45      H      -2.1445761953     3.6580709499     0.4320555017
   46      H      -3.0490568723     3.0110332043     1.8347386570
   47      H      -1.3848096245     1.2660186085     0.3506639876
   48      H      -5.7932236472    -3.2732809972    -0.3272222992
   49      H      -4.5823408406    -3.3515911048    -1.6705099533
   50      H       3.9388107000    -3.8952290888     1.1001341135
   51      H       5.6627977578    -3.3624579502     1.2696530321
   52      H       4.8904916671    -3.4078004534    -0.3589662977
   53      H       0.7092321516    -2.1520300113    -1.7047049380
   54      H      -0.0461992028    -0.5355834062    -1.4390955208
   55      H      -1.2319569515    -3.0650147065    -0.7243049532
   56      H      -0.6972715312    -2.3634259628     0.8449665454
 ----------------------------------------------------------------

   10   -1510.2622312999      4.49E-09 Convergence criterion met
 Total energy in the final basis set = -1510.26223130
 Final energy is   -1510.26223129989
 **  OPTIMIZATION CONVERGED  **

                    Orbital Energies (a.u.)
 --------------------------------------------------------------

 Alpha MOs
 -- Occupied --
-18.939 -18.939 -18.923 -18.909 -18.891 -18.889 -18.881 -18.875
-18.874 -18.872 -10.103 -10.100 -10.098 -10.098 -10.069 -10.067
-10.065 -10.065 -10.063 -10.062 -10.062 -10.059 -10.040 -10.039
-10.039 -10.035 -10.024 -10.023 -10.022 -10.021  -1.015  -1.014
 -1.005  -0.999  -0.973  -0.971  -0.940  -0.937  -0.935  -0.927
 -0.765  -0.764  -0.727  -0.724  -0.713  -0.707  -0.696  -0.663
 -0.662  -0.612  -0.599  -0.578  -0.548  -0.546  -0.540  -0.539
 -0.517  -0.512  -0.488  -0.478  -0.471  -0.461  -0.452  -0.436
 -0.432  -0.428  -0.424  -0.413  -0.413  -0.412  -0.410  -0.405
 -0.390  -0.380  -0.375  -0.370  -0.365  -0.356  -0.351  -0.348
 -0.343  -0.341  -0.337  -0.335  -0.332  -0.329  -0.325  -0.312
 -0.311  -0.310  -0.307  -0.300  -0.294  -0.287  -0.287  -0.279
 -0.275  -0.256  -0.248  -0.243  -0.240  -0.237  -0.235  -0.179
 -0.179  -0.169  -0.162  -0.159  -0.154  -0.148  -0.148  -0.146
 -0.143

          Ground-State Mulliken Net Atomic Charges

     Atom                 Charge (a.u.)
  ----------------------------------------
      1 O                    -0.213746
      2 C                     0.206406
      3 C                    -0.080341
      4 C                    -0.078420
      5 C                     0.214645
      6 O                    -0.168703
      7 C                    -0.049148
      8 C                    -0.050741
      9 O                    -0.188418
     10 C                     0.216896
     11 C                    -0.079342
     12 C                    -0.079374
     13 C                     0.215038
     14 O                    -0.207573
     15 O                    -0.163519
     16 O                    -0.168253
     17 O                    -0.207789
     18 C                    -0.127877
     19 C                     0.025228
     20 C                    -0.144335
     21 C                    -0.143271
     22 C                     0.024299
     23 O                    -0.185879
     24 H                     0.084402
     25 H                     0.084994
     26 H                     0.082319
     27 H                     0.078312
     28 H                     0.072778
     29 H                     0.078804
     30 H                     0.073333
     31 H                     0.090880
     32 O                    -0.215832
     33 C                    -0.126744
     34 C                     0.026398
     35 C                    -0.142643
     36 C                    -0.145498
     37 C                     0.027289
     38 O                    -0.184387
     39 H                     0.085188
     40 H                     0.085069
     41 H                     0.089595
     42 H                     0.083742
     43 H                     0.078148
     44 H                     0.074851
     45 H                     0.076847
     46 H                     0.073748
     47 H                     0.082566
     48 H                     0.090785
     49 H                     0.092181
     50 H                     0.092612
     51 H                     0.091663
     52 H                     0.093205
     53 H                     0.088910
     54 H                     0.087227
     55 H                     0.083448
     56 H                     0.100030
  ----------------------------------------
  Sum of atomic charges =    -0.000000

                    Cartesian Multipole Moments
 -----------------------------------------------------------------
    Charge (ESU x 10^10)
                 0.0000
    Dipole Moment (Debye)
         X      -0.7775      Y       1.6648      Z       1.5097
       Tot       2.3781
    Quadrupole Moments (Debye-Ang)
        XX    -178.1325     XY      -1.4045     YY    -145.6274
        XZ      13.6649     YZ       6.7573     ZZ    -163.9751

 Total job time:  51.38s(wall), 2443.88s(cpu)
        *  Thank you very much for using Q-Chem.  Have a nice day.  *
