 Q-Chem 5.0, Q-Chem, Inc., Pleasanton, CA (2017)
 Q-Chem 5.0.1 for Intel X86 EM64T Linux

User input:
--------------------------------------------------------------
$molecule
0  1
O -6.7533365781 -0.8517987889 0.0937477072
C -5.5308682383 -0.6253552345 -0.0480347448
C -4.7662202041 0.6447033155 0.4517987841
C -3.3462674966 0.4071975082 1.1241963208
C -2.7291001918 -1.034924283 0.9733059196
O -2.0600530281 -1.1532783021 -0.2898618396
C -0.941314895 -2.1221904419 -0.2119717122
C 0.2927700374 -1.4681037093 -0.9328104069
O 1.3047791266 -1.1612727613 0.1050398826
C 2.5267002079 -0.695017295 -0.5228722708
C 3.0146061764 0.6141673639 0.2027709681
C 4.5127017573 0.5564701561 0.713208426
C 5.1735361299 -0.8588606085 0.5766440895
O 6.3593415668 -1.1253077638 0.2915292646
O -4.6309401592 -1.5057956188 -0.7226116106
O 4.1845842403 -1.8391613033 0.9230389756
O 2.996455196 -1.1781754915 -1.5752008755
C 4.7139323994 -3.2061035531 0.7175425096
C 3.126150679 1.7938767661 -0.8599611767
C 3.3070871363 3.1578751279 -0.0804084467
C 4.8200333472 3.0690357792 0.3475376102
C 5.2053573452 1.6432947837 -0.2080286135
O 4.4487982953 1.5576984323 -1.4792248881
H 2.3088465642 0.8467005347 1.0184799936
H 4.5689424554 0.8481113872 1.7787853328
H 2.3328210194 1.7953649885 -1.6329112429
H 3.1234963511 4.0129006757 -0.7501928252
H 2.6253710525 3.2310928126 0.7818478091
H 5.4234983779 3.8488698531 -0.1437008224
H 4.9602389303 3.1459048491 1.4375816933
H 6.2843986562 1.464819071 -0.3829477918
O -2.698398586 -1.9123044312 1.8646585428
C -5.3446133021 -2.7205975255 -1.177810068
C -4.3827392985 1.6681429219 -0.7137353098
C -4.2453004978 3.0980171089 -0.0586397214
C -2.9039834218 2.9244108287 0.7459371078
C -2.4736609672 1.4628280838 0.3228966972
O -2.9877452053 1.3241444024 -1.0595370295
H -5.4446651293 1.1383894743 1.1703124888
H -3.3900899022 0.6245572977 2.2062933982
H -6.1477418317 -2.4737856512 -1.9019695038
H -5.0317995585 1.6158302774 -1.6092930404
H -4.1485196188 3.8677722452 -0.8410634722
H -5.1032353978 3.3512215939 0.5843384442
H -2.1445761953 3.6580709499 0.4320555017
H -3.0490568723 3.0110332043 1.834738657
H -1.3848096245 1.2660186085 0.3506639876
H -5.7932236472 -3.2732809972 -0.3272222992
H -4.5823408406 -3.3515911048 -1.6705099533
H 3.9388107 -3.8952290888 1.1001341135
H 5.6627977578 -3.3624579502 1.2696530321
H 4.8904916671 -3.4078004534 -0.3589662977
H 0.7092321516 -2.1520300113 -1.704704938
H -0.0461992028 -0.5355834062 -1.4390955208
H -1.2319569515 -3.0650147065 -0.7243049532
H -0.6972715312 -2.3634259628 0.8449665454
$end

$rem
JOBTYPE                   OPT
METHOD                    B3LYP
DFT_D                     d3_op
BASIS                     STO-3G
GEOM_OPT_MAX_CYCLES       100
GEOM_OPT_TOL_GRADIENT     300
GEOM_OPT_TOL_DISPLACEMENT 1200
GEOM_OPT_TOL_ENERGY       100
SYMMETRY                  False
THRESH                    12
SCF_CONVERGENCE           8
MAX_SUB_FILE_NUM          128
MEM_STATIC                400
MEM_TOTAL                 4000
$end
--------------------------------------------------------------

   16   -1510.2622831538      6.85E-09 Convergence criterion met
 Total energy in the final basis set = -1510.26228315
   14   -1510.2673750185      4.96E-09 Convergence criterion met
 Total energy in the final basis set = -1510.26737502
   14   -1510.2722151306      6.45E-09 Convergence criterion met
 Total energy in the final basis set = -1510.27221513
   14   -1510.2759160750      9.40E-09 Convergence criterion met
 Total energy in the final basis set = -1510.27591607
   14   -1510.2788672788      9.71E-09 Convergence criterion met
 Total energy in the final basis set = -1510.27886728
   13   -1510.2800233597      7.44E-09 Convergence criterion met
 Total energy in the final basis set = -1510.28002336
   13   -1510.2810687696      6.13E-09 Convergence criterion met
 Total energy in the final basis set = -1510.28106877
   13   -1510.2819904138      9.28E-09 Convergence criterion met
   13   -1510.2852995622      2.79E-09 Convergence criterion met
 Total energy in the final basis set = -1510.28529956
   13   -1510.2853193541      4.45E-09 Convergence criterion met
 Total energy in the final basis set = -1510.28531935
   13   -1510.2853884845      3.55E-09 Convergence criterion met
 Total energy in the final basis set = -1510.28538848
   11   -1510.2853916009      9.07E-09 Convergence criterion met
 Total energy in the final basis set = -1510.28539160
   11   -1510.2854054422      8.31E-09 Convergence criterion met
 Total energy in the final basis set = -1510.28540544
   10   -1510.2854066687      6.22E-09 Convergence criterion met
 Total energy in the final basis set = -1510.28540667

             Standard Nuclear Orientation (Angstroms)
    I     Atom           X                Y                Z
 ----------------------------------------------------------------
    1      O      -4.4754774812    -1.1356456068     2.5694977611
    2      C      -4.2477684157    -0.6585070327     1.4375410855
    3      C      -4.0990031779     0.8492947273     1.0485255203
    4      C      -2.7845688383     1.1613069270     0.2102126066
    5      C      -1.8905387993    -0.1167916681     0.0005127696
    6      O      -1.7614697047    -0.3926711902    -1.3996828067
    7      C      -0.8793859470    -1.5629462986    -1.6107174337
    8      C       0.5684743910    -1.0896191874    -1.9686130607
    9      O       1.0686287356    -0.3498916351    -0.7848513421
   10      C       2.4414229094     0.0134641753    -0.9706934575
   11      C       2.9311263484     0.7360999822     0.3314855392
   12      C       4.1008824015    -0.0455235022     1.0665773192
   13      C       4.5133081077    -1.3754696652     0.3422698739
   14      O       5.6567304548    -1.7293814974    -0.0121431807
   15      O      -4.0947573382    -1.4428841309     0.2459856624
   16      O       3.3280121192    -2.1612413919     0.1521326665
   17      O       3.0894113337    -0.2091576845    -2.0164562236
   18      C       3.6416247806    -3.3782828849    -0.6299975020
   19      C       3.6652730840     2.1056909150    -0.0023088323
   20      C       3.8072930994     2.9334344836     1.3375033243
   21      C       4.9732675040     2.1547280110     2.0547974359
   22      C       5.2711594736     1.0182740257     1.0013395077
   23      O       5.0516075366     1.6853518776    -0.3034128110
   24      H       2.0616293596     0.8800974801     0.9961466837
   25      H       3.8163019895    -0.2862289566     2.1076077999
   26      H       3.2344616879     2.6608661297    -0.8580234269
   27      H       4.0911701163     3.9750277749     1.1182578580
   28      H       2.8737181882     2.9362499855     1.9226139997
   29      H       5.8594789215     2.7939785732     2.1946870401
   30      H       4.6734205360     1.7469300454     3.0334679096
   31      H       6.2835823606     0.5711469940     1.0402673128
   32      O      -1.3571657551    -0.7964930445     0.9050243736
   33      C      -4.1200596594    -2.8850468073     0.5757208154
   34      C      -5.2196157505     1.3071496316     0.0146379270
   35      C      -5.2477599874     2.8861952728    -0.0097340340
   36      C      -3.9448297851     3.1993358689    -0.8347932056
   37      C      -3.4091316077     1.7415760179    -1.1267243477
   38      O      -4.6472259470     0.9461558571    -1.3000186602
   39      H      -4.1395471307     1.4428362043     1.9783084601
   40      H      -2.1672601190     1.9165500317     0.7307671041
   41      H      -5.0368927175    -3.1628622944     1.1338833763
   42      H      -6.2033203135     0.8193508447     0.1577597786
   43      H      -6.1507301832     3.2468670194    -0.5274733761
   44      H      -5.2253641714     3.3161570109     1.0042421694
   45      H      -4.1793506817     3.7181220028    -1.7778368641
   46      H      -3.2184178739     3.8049973635    -0.2700033865
   47      H      -2.7557538102     1.6387886950    -2.0134724791
   48      H      -3.2354981722    -3.1720384743     1.1811891743
   49      H      -4.0955858637    -3.4201884788    -0.3913340123
   50      H       2.7197070054    -3.9884417743    -0.6315411349
   51      H       4.4719594500    -3.9552499472    -0.1753265112
   52      H       3.9185556349    -3.1206584287    -1.6733526801
   53      H       1.2151582993    -1.9665695633    -2.1924151467
   54      H       0.5524818715    -0.4339785879    -2.8670423901
   55      H      -1.3050656513    -2.1470784840    -2.4522673875
   56      H      -0.8515691342    -2.1761538419    -0.6846178441
 ----------------------------------------------------------------

    9   -1510.2854080204      5.64E-09 Convergence criterion met
 Total energy in the final basis set = -1510.28540802
 Final energy is   -1510.28540802036
 **  OPTIMIZATION CONVERGED  **

                    Orbital Energies (a.u.)
 --------------------------------------------------------------

 Alpha MOs
 -- Occupied --
-18.935 -18.934 -18.933 -18.930 -18.888 -18.886 -18.879 -18.876
-18.869 -18.867 -10.100 -10.099 -10.098 -10.096 -10.074 -10.073
-10.065 -10.063 -10.061 -10.059 -10.057 -10.056 -10.038 -10.037
-10.037 -10.035 -10.021 -10.020 -10.020 -10.018  -1.016  -1.013
 -1.008  -1.002  -0.969  -0.968  -0.938  -0.937  -0.935  -0.930
 -0.763  -0.762  -0.728  -0.723  -0.715  -0.704  -0.696  -0.663
 -0.660  -0.616  -0.598  -0.577  -0.547  -0.545  -0.537  -0.536
 -0.513  -0.510  -0.486  -0.480  -0.470  -0.461  -0.451  -0.438
 -0.433  -0.429  -0.422  -0.416  -0.413  -0.413  -0.408  -0.403
 -0.395  -0.378  -0.374  -0.365  -0.361  -0.359  -0.351  -0.351
 -0.345  -0.343  -0.339  -0.331  -0.330  -0.326  -0.321  -0.309
 -0.308  -0.304  -0.304  -0.295  -0.293  -0.292  -0.284  -0.275
 -0.273  -0.254  -0.252  -0.250  -0.246  -0.233  -0.232  -0.179
 -0.177  -0.174  -0.171  -0.157  -0.156  -0.149  -0.146  -0.142
 -0.142

          Ground-State Mulliken Net Atomic Charges

     Atom                 Charge (a.u.)
  ----------------------------------------
      1 O                    -0.209992
      2 C                     0.210418
      3 C                    -0.079597
      4 C                    -0.077512
      5 C                     0.218091
      6 O                    -0.169498
      7 C                    -0.050150
      8 C                    -0.047226
      9 O                    -0.172070
     10 C                     0.211173
     11 C                    -0.079157
     12 C                    -0.078265
     13 C                     0.214000
     14 O                    -0.206646
     15 O                    -0.167727
     16 O                    -0.171710
     17 O                    -0.219055
     18 C                    -0.129601
     19 C                     0.025292
     20 C                    -0.143919
     21 C                    -0.143985
     22 C                     0.024292
     23 O                    -0.186591
     24 H                     0.087568
     25 H                     0.086093
     26 H                     0.082518
     27 H                     0.077571
     28 H                     0.073141
     29 H                     0.078157
     30 H                     0.073280
     31 H                     0.090486
     32 O                    -0.219685
     33 C                    -0.128786
     34 C                     0.026141
     35 C                    -0.143813
     36 C                    -0.144484
     37 C                     0.024642
     38 O                    -0.185961
     39 H                     0.084932
     40 H                     0.083552
     41 H                     0.090615
     42 H                     0.082546
     43 H                     0.077845
     44 H                     0.073736
     45 H                     0.077699
     46 H                     0.072605
     47 H                     0.091780
     48 H                     0.090020
     49 H                     0.089876
     50 H                     0.088428
     51 H                     0.091989
     52 H                     0.091595
     53 H                     0.088094
     54 H                     0.087338
     55 H                     0.088632
     56 H                     0.101286
  ----------------------------------------
  Sum of atomic charges =     0.000000

                    Cartesian Multipole Moments
 -----------------------------------------------------------------
    Charge (ESU x 10^10)
                 0.0000
    Dipole Moment (Debye)
         X      -1.7734      Y       0.5214      Z       0.6300
       Tot       1.9528
    Quadrupole Moments (Debye-Ang)
        XX    -176.4628     XY      -3.3089     YY    -142.9772
        XZ      11.4866     YZ       7.7457     ZZ    -164.9776

 Total job time:  69.34s(wall), 3302.50s(cpu)
        *  Thank you very much for using Q-Chem.  Have a nice day.  *
