 Q-Chem 5.0, Q-Chem, Inc., Pleasanton, CA (2017)
 Q-Chem 5.0.1 for Intel X86 EM64T Linux

User input:
--------------------------------------------------------------
$molecule
0  1
O 0.46598027 -1.4339716679 0.4486628364
C -0.4629426451 -0.5472588885 0.799784527
C -2.0301265748 -0.9117285433 0.8670008515
C -3.0636332674 0.2610778821 0.9388117964
C -2.3634697572 1.6361600028 0.6459610594
O -1.3396509583 1.5886350812 -0.3823789716
C -1.8540913059 1.3236157827 -1.7456070356
C -0.7154075088 0.7434965882 -2.6736964838
O 0.5477329326 0.6279155713 -1.9154461163
C 1.0998567333 -0.7079850357 -1.8969065148
C 2.461647918 -0.6757065577 -1.0424093917
C 2.7775723827 0.5393279472 -0.063490552
C 1.5064521216 1.446503865 0.2908494223
O 1.4131200732 2.0115576031 1.4596337755
O -0.340889667 0.1260217241 2.0739800595
O 1.4105208643 2.4061940832 -0.8319331455
O 0.6979924488 -1.6615981529 -2.5932761902
C 0.831601186 3.6705202994 -0.3462067269
C 3.0824594788 -1.9048041453 -0.2534172321
C 4.6417180754 -1.8637452326 -0.5040328537
C 5.045064688 -0.5872291825 0.3278436059
C 3.6630528719 -0.2080525635 1.0108398196
O 3.0068399898 -1.5294917044 1.1807081567
H 3.120141935 -0.5410820589 -1.9299375283
H 3.4402043499 1.2156813937 -0.6361051298
H 2.6008299258 -2.878472626 -0.466873905
H 5.0907103348 -2.7595180557 -0.0445233837
H 4.9281756669 -1.8338822564 -1.5672507075
H 5.7786139947 -0.8607983739 1.1027966948
H 5.4605929947 0.2353440029 -0.275382385
H 3.7670187189 0.34629173 1.9631866543
O -2.3893045082 2.6205109236 1.415357897
C 0.9560693322 0.0478177716 2.6160247921
C -2.6549758269 -1.8328499183 -0.2637217439
C -3.8505067748 -2.6329897443 0.3911735618
C -4.9090511629 -1.4820550779 0.5976748718
C -4.1662815287 -0.2649209463 -0.0882184397
O -3.385601989 -0.913178422 -1.1687505954
H -2.0853297651 -1.4912226085 1.8079700571
H -3.5196403961 0.3455650007 1.9406593638
H 0.8402060347 0.0331805694 -0.1343726403
H -1.9160721883 -2.4661131216 -0.7934830008
H -4.2325458774 -3.3584789809 -0.3456747017
H -3.5766683157 -3.1761755951 1.3092648449
H -5.8372260094 -1.7169041081 0.05296436
H -5.1550977818 -1.2790843847 1.6517564944
H -4.8405447523 0.526983359 -0.4688337003
H 1.1904124135 -0.9937129386 2.9342914931
H 1.0323707045 0.7419310859 3.4755424106
H 0.7749089734 4.3303092453 -1.2322306709
H -0.1883323161 3.5192794449 0.0673102117
H 1.4628363924 4.1487755803 0.4334235249
H -0.9848968695 -0.2945133092 -2.9805518272
H -0.5868512446 1.3476965439 -3.5941012334
H -2.0230838247 2.3564115761 -2.1442424847
H -2.8289326352 0.8217517996 -1.8835731605
$end

$rem
JOBTYPE                   OPT
METHOD                    B3LYP
DFT_D                     d3_op
BASIS                     STO-3G
GEOM_OPT_MAX_CYCLES       100
GEOM_OPT_TOL_GRADIENT     300
GEOM_OPT_TOL_DISPLACEMENT 1200
GEOM_OPT_TOL_ENERGY       100
SYMMETRY                  False
THRESH                    12
SCF_CONVERGENCE           8
MAX_SUB_FILE_NUM          128
MEM_STATIC                400
MEM_TOTAL                 4000
$end
--------------------------------------------------------------

   21   -1509.9053227033      8.76E-09 Convergence criterion met
 Total energy in the final basis set = -1509.90532270
   17   -1509.9464017071      4.11E-09 Convergence criterion met
 Total energy in the final basis set = -1509.94640171
   16   -1510.0116932523      3.55E-09 Convergence criterion met
 Total energy in the final basis set = -1510.01169325
   15   -1509.9725319415      6.47E-09 Convergence criterion met
 Total energy in the final basis set = -1509.97253194
   14   -1510.0641154010      7.59E-09 Convergence criterion met
 Total energy in the final basis set = -1510.06411540
   14   -1510.0824147358      3.81E-09 Convergence criterion met
 Total energy in the final basis set = -1510.08241474
   14   -1510.1088482952      4.76E-09 Convergence criterion met
 Total energy in the final basis set = -1510.10884830
   14   -1510.1443137161      5.14E-09 Convergence criterion met
   10   -1510.2955959384      7.63E-09 Convergence criterion met
 Total energy in the final basis set = -1510.29559594
   11   -1510.2956022941      5.73E-09 Convergence criterion met
 Total energy in the final basis set = -1510.29560229
   11   -1510.2956085322      4.55E-09 Convergence criterion met
 Total energy in the final basis set = -1510.29560853
   11   -1510.2956137549      4.81E-09 Convergence criterion met
 Total energy in the final basis set = -1510.29561375
    9   -1510.2956181519      9.59E-09 Convergence criterion met
 Total energy in the final basis set = -1510.29561815
    9   -1510.2956207425      6.32E-09 Convergence criterion met
 Total energy in the final basis set = -1510.29562074

             Standard Nuclear Orientation (Angstroms)
    I     Atom           X                Y                Z
 ----------------------------------------------------------------
    1      O       0.1308473776     1.0045044803     0.3324617345
    2      C       0.8503402848     0.5049264069     1.2286616433
    3      C       2.3975084360     0.7112612056     1.3857252148
    4      C       3.2968874504    -0.3825345977     0.6555143826
    5      C       2.4976836883    -1.6646654222     0.1680791290
    6      O       1.5305161074    -1.6284427387    -0.8927540481
    7      C       1.7086338106    -0.5695009893    -1.9154553065
    8      C       0.4719072524    -0.6398608904    -2.8774722583
    9      O      -0.8201146728    -0.6980367755    -2.1602222408
   10      C      -1.3378039421     0.6134161744    -1.9043163621
   11      C      -2.7654443644     0.4871929386    -1.2575490419
   12      C      -3.0640717192    -0.6593537095    -0.1963800139
   13      C      -1.7933469876    -1.4575715378     0.3422198619
   14      O      -1.7186316718    -1.5385835514     1.8349772143
   15      O       0.3782135810    -0.3093298821     2.2947020588
   16      O      -1.9619183463    -2.8173634811    -0.1517969894
   17      O      -0.7800210967     1.6720677707    -2.2628406213
   18      C      -0.6738833213    -3.5227706983     0.0210752594
   19      C      -3.1570146912     1.7896254755    -0.4345230283
   20      C      -4.7230693339     1.9446922650    -0.4993910673
   21      C      -5.1730676150     0.7252043864     0.3906946814
   22      C      -3.7858259060     0.1913664088     0.9238979259
   23      O      -2.9419150009     1.4150729743     0.9856174600
   24      H      -3.4624375845     0.3714547776    -2.1094001520
   25      H      -3.7482668833    -1.4134649290    -0.6250609972
   26      H      -2.5617947794     2.6851090638    -0.7006858338
   27      H      -5.0332275238     2.9032062416    -0.0531123846
   28      H      -5.1086270978     1.8907137086    -1.5298975741
   29      H      -5.8131136953     1.0471495267     1.2271721096
   30      H      -5.7093403087    -0.0441666585    -0.1873382747
   31      H      -3.8170019942    -0.3094639133     1.9101778039
   32      O       2.5997005459    -2.7492196701     0.7867620586
   33      C      -1.1252322433    -0.3127809186     2.3511735669
   34      C       2.8626807960     2.0324701415     0.6448085125
   35      C       4.3102671822     2.4098293457     1.1401769679
   36      C       5.1808091636     1.3323175528     0.3910058378
   37      C       4.0735743114     0.5272966349    -0.3926600005
   38      O       3.0887190849     1.5800888862    -0.7507000322
   39      H       2.6310608230     0.7372131753     2.4645655437
   40      H       4.0166029927    -0.7981328557     1.3828104856
   41      H      -0.8592867788    -0.9889319336    -0.0506288114
   42      H       2.1171077790     2.8508687804     0.6605910105
   43      H       4.5732227743     3.4321080991     0.8248826616
   44      H       4.4006247137     2.3424420314     2.2360032879
   45      H       5.8822826369     1.8027936916    -0.3162441347
   46      H       5.7504906313     0.6889456226     1.0801491990
   47      H       4.4324752923     0.0033786662    -1.2983019403
   48      H      -1.5293900727     0.5983770164     1.8233615889
   49      H      -1.3602345400    -0.2969161037     3.4400423681
   50      H      -0.7987334025    -4.5164437248    -0.4469998578
   51      H       0.1597938836    -2.9720183058    -0.4723181214
   52      H      -0.4204871312    -3.6599918212     1.0933638668
   53      H       0.5052761433     0.2410976749    -3.5545742927
   54      H       0.5153031945    -1.5742938167    -3.4731842301
   55      H       2.6120489539    -0.7900407512    -2.5265850304
   56      H       1.8477909649     0.4426514650    -1.4549400456
 ----------------------------------------------------------------

    9   -1510.2956216058      3.09E-09 Convergence criterion met
 Total energy in the final basis set = -1510.29562161
 Final energy is   -1510.29562160581
 **  OPTIMIZATION CONVERGED  **

                    Orbital Energies (a.u.)
 --------------------------------------------------------------

 Alpha MOs
 -- Occupied --
-18.934 -18.931 -18.926 -18.914 -18.894 -18.884 -18.878 -18.877
-18.876 -18.871 -10.104 -10.102 -10.098 -10.076 -10.075 -10.074
-10.073 -10.071 -10.060 -10.057 -10.054 -10.047 -10.046 -10.033
-10.032 -10.031 -10.023 -10.019 -10.018 -10.016  -1.016  -1.010
 -1.005  -0.990  -0.975  -0.965  -0.941  -0.936  -0.931  -0.905
 -0.774  -0.759  -0.731  -0.722  -0.717  -0.707  -0.697  -0.647
 -0.626  -0.605  -0.598  -0.582  -0.560  -0.555  -0.546  -0.537
 -0.524  -0.519  -0.494  -0.484  -0.467  -0.459  -0.453  -0.447
 -0.438  -0.436  -0.430  -0.419  -0.416  -0.411  -0.398  -0.389
 -0.381  -0.380  -0.373  -0.370  -0.362  -0.359  -0.353  -0.348
 -0.341  -0.338  -0.336  -0.331  -0.325  -0.323  -0.323  -0.317
 -0.313  -0.310  -0.303  -0.301  -0.289  -0.286  -0.277  -0.266
 -0.258  -0.256  -0.250  -0.240  -0.238  -0.225  -0.212  -0.182
 -0.178  -0.174  -0.160  -0.158  -0.154  -0.151  -0.147  -0.137
 -0.127

          Ground-State Mulliken Net Atomic Charges

     Atom                 Charge (a.u.)
  ----------------------------------------
      1 O                    -0.219965
      2 C                     0.203678
      3 C                    -0.082046
      4 C                    -0.085359
      5 C                     0.204166
      6 O                    -0.175854
      7 C                    -0.065965
      8 C                    -0.048274
      9 O                    -0.168760
     10 C                     0.217373
     11 C                    -0.081282
     12 C                    -0.070490
     13 C                     0.104427
     14 O                    -0.197972
     15 O                    -0.176549
     16 O                    -0.190801
     17 O                    -0.212975
     18 C                    -0.142674
     19 C                     0.025539
     20 C                    -0.142039
     21 C                    -0.144592
     22 C                     0.019593
     23 O                    -0.193972
     24 H                     0.082979
     25 H                     0.086281
     26 H                     0.092240
     27 H                     0.077421
     28 H                     0.074020
     29 H                     0.077482
     30 H                     0.075659
     31 H                     0.089224
     32 O                    -0.195899
     33 C                     0.008967
     34 C                     0.026295
     35 C                    -0.143214
     36 C                    -0.142087
     37 C                     0.021852
     38 O                    -0.184317
     39 H                     0.090331
     40 H                     0.091003
     41 H                     0.083767
     42 H                     0.093282
     43 H                     0.081657
     44 H                     0.077774
     45 H                     0.081211
     46 H                     0.078213
     47 H                     0.084638
     48 H                     0.113280
     49 H                     0.082649
     50 H                     0.074945
     51 H                     0.093144
     52 H                     0.076394
     53 H                     0.095802
     54 H                     0.089660
     55 H                     0.072815
     56 H                     0.117323
  ----------------------------------------
  Sum of atomic charges =    -0.000000

                    Cartesian Multipole Moments
 -----------------------------------------------------------------
    Charge (ESU x 10^10)
                -0.0000
    Dipole Moment (Debye)
         X       1.8863      Y       2.8353      Z      -0.6770
       Tot       3.4721
    Quadrupole Moments (Debye-Ang)
        XX    -138.5681     XY       1.0107     YY    -172.5515
        XZ       1.8553     YZ       8.2288     ZZ    -156.3658

 Total job time:  203.22s(wall), 9348.35s(cpu)
        *  Thank you very much for using Q-Chem.  Have a nice day.  *
