 Q-Chem 5.0, Q-Chem, Inc., Pleasanton, CA (2017)
 Q-Chem 5.0.1 for Intel X86 EM64T Linux

User input:
--------------------------------------------------------------
$molecule
0  1
O -3.94934 -3.66094 2.70899
C -3.26408 -4.56952 2.26188
C -3.36658 -6.02376 2.66595
C -3.52018 -6.32724 4.16534
C -3.73269 -5.13813 5.0758
O -2.65162 -4.98259 5.89588
C -1.55053 -5.82626 5.54223
C -0.36067 -5.54774 6.4548
O 0.37555 -6.75972 6.68274
C 1.67913 -6.59569 7.01875
C 2.39763 -7.90461 7.24489
C 3.6846 -8.08632 6.42699
C 4.24866 -6.82983 5.79472
O 5.39109 -6.41758 5.93422
O -2.24857 -4.26056 1.41304
O 3.45955 -6.23096 4.86243
O 2.19191 -5.50576 7.24807
C 3.81882 -5.11557 4.13532
C 2.94857 -8.07542 8.67533
C 3.08779 -9.56312 8.992
C 4.2382 -9.93917 8.07857
C 4.63255 -8.55375 7.54857
O 4.29525 -7.6744 8.59469
H 1.6757 -8.73163 7.04825
H 3.55212 -8.82616 5.60724
H 2.33081 -7.56937 9.44914
H 3.43464 -9.63062 10.0484
H 2.16903 -10.17668 8.87263
H 5.04736 -10.38294 8.69984
H 3.97639 -10.62363 7.24262
H 5.69895 -8.55355 7.23321
O -4.74958 -4.46745 5.1874
C -1.967 -2.98564 0.96885
C -4.68567 -6.56843 2.08786
C -4.66427 -8.09831 2.04783
C -4.92614 -8.40579 3.49998
C -4.94391 -6.98611 4.08673
O -5.61639 -6.26358 3.08816
H -2.50388 -6.55893 2.20894
H -3.02811 -7.26403 4.4752
H -1.72398 -2.32544 1.82878
H -4.90659 -6.16653 1.07354
H -5.51655 -8.48436 1.44517
H -3.70708 -8.49288 1.64336
H -5.96052 -8.80935 3.59093
H -4.22021 -9.1215 3.97345
H -5.4584 -7.02552 5.07476
H -2.83611 -2.57395 0.41246
H -1.09179 -3.02252 0.28831
H 2.98634 -4.84187 3.45516
H 4.72326 -5.32938 3.52666
H 4.01764 -4.26247 4.81868
H 0.23498 -4.70141 6.04227
H -0.74853 -5.24292 7.45249
H -1.18109 -5.76241 4.49008
H -1.79487 -6.84449 5.92187
$end

$opt
CONSTRAINT
tors           1           2           3           4     -43.018
tors           3           4           5           6    -113.266
tors           4           5           6           7      +9.151
tors           5           6           7           8    +177.168
tors           6           7           8           9    +146.382
tors           7           8           9          10    +155.722
tors           8           9          10          11    -180.000
tors           9          10          11          12    +126.354
tors          11          12          13          14    +125.873
ENDCONSTRAINT
$end

$rem
JOBTYPE                   OPT
METHOD                    B3LYP
DFT_D                     d3_op
BASIS                     STO-3G
GEOM_OPT_MAX_CYCLES       100
GEOM_OPT_TOL_GRADIENT     300
GEOM_OPT_TOL_DISPLACEMENT 1200
GEOM_OPT_TOL_ENERGY       100
SYMMETRY                  False
THRESH                    12
SCF_CONVERGENCE           8
MAX_SUB_FILE_NUM          128
MEM_STATIC                400
MEM_TOTAL                 4000
$end
--------------------------------------------------------------

   15   -1510.1014685767      8.37E-09 Convergence criterion met
 Total energy in the final basis set = -1510.10146858
   14   -1510.1767859339      7.71E-09 Convergence criterion met
 Total energy in the final basis set = -1510.17678593
   14   -1510.2196067121      9.16E-09 Convergence criterion met
 Total energy in the final basis set = -1510.21960671
   14   -1510.2432176034      4.37E-09 Convergence criterion met
 Total energy in the final basis set = -1510.24321760
   14   -1510.2541862147      3.79E-09 Convergence criterion met
 Total energy in the final basis set = -1510.25418621
   14   -1510.2595856680      3.25E-09 Convergence criterion met
 Total energy in the final basis set = -1510.25958567
   13   -1510.2622022306      6.87E-09 Convergence criterion met
 Total energy in the final basis set = -1510.26220223
   13   -1510.2632770040      2.25E-09 Convergence criterion met
   11   -1510.2648928829      8.03E-09 Convergence criterion met
 Total energy in the final basis set = -1510.26489288
   12   -1510.2649205761      5.10E-09 Convergence criterion met
 Total energy in the final basis set = -1510.26492058
   11   -1510.2649453605      9.82E-09 Convergence criterion met
 Total energy in the final basis set = -1510.26494536
   11   -1510.2649644847      2.56E-09 Convergence criterion met
 Total energy in the final basis set = -1510.26496448
    9   -1510.2649701466      9.60E-09 Convergence criterion met
 Total energy in the final basis set = -1510.26497015
    9   -1510.2649714592      5.53E-09 Convergence criterion met
 Total energy in the final basis set = -1510.26497146

             Standard Nuclear Orientation (Angstroms)
    I     Atom           X                Y                Z
 ----------------------------------------------------------------
    1      O      -4.5243098931     1.7284873057     1.1613937648
    2      C      -4.3088463997     1.5407616259    -0.0544699760
    3      C      -4.2497060209     0.1951219643    -0.8527982018
    4      C      -3.4672561051    -0.9912019175    -0.1453941572
    5      C      -3.1654424764    -0.7567027233     1.3923370542
    6      O      -1.8011783233    -0.5927547796     1.8380415509
    7      C      -0.7882900417    -0.4493713467     0.7713044928
    8      C       0.5842869342    -0.2136943361     1.4944810644
    9      O       1.6242434148    -0.8584271703     0.6562067514
   10      C       2.9048940822    -0.2560077605     0.8867301919
   11      C       3.9491864435    -0.9826791564    -0.0267096530
   12      C       4.7764006160     0.0213977844    -0.9362903046
   13      C       4.3360586638     1.5183873127    -0.7647045299
   14      O       5.0514832849     2.5010283257    -0.4822692651
   15      O      -4.0866634262     2.6029249973    -0.9953484782
   16      O       2.9251851229     1.5888278548    -1.0225037906
   17      O       3.1105418520     0.6736989259     1.6967263524
   18      C       2.4239378297     2.9533073253    -0.7449672703
   19      C       5.1230230144    -1.6238038087     0.8347597131
   20      C       5.9323835481    -2.6150242089    -0.0923926268
   21      C       6.7558661126    -1.6039440166    -0.9747144232
   22      C       6.2482840354    -0.2217087207    -0.4060843083
   23      O       6.0528369410    -0.4915299138     1.0381568241
   24      H       3.4180765460    -1.7387704441    -0.6305898328
   25      H       4.6755440702    -0.2498861196    -2.0034676535
   26      H       4.8025246891    -2.0428064428     1.8083672799
   27      H       6.5933422557    -3.2558700944     0.5126913063
   28      H       5.2662673373    -3.2584514894    -0.6894197772
   29      H       7.8394420414    -1.7144017672    -0.8095844964
   30      H       6.5491461844    -1.7118403743    -2.0514436736
   31      H       6.9249686937     0.6430689486    -0.5491297434
   32      O      -4.0347908181    -0.8159869333     2.2870487857
   33      C      -4.1668406858     3.9121570043    -0.3072943041
   34      C      -5.6830344723    -0.4690133525    -1.0783152079
   35      C      -5.5724334637    -1.4101687955    -2.3406362324
   36      C      -4.7131875444    -2.5908564839    -1.7533331811
   37      C      -4.5624349911    -2.1432216763    -0.2442441914
   38      O      -5.8224690147    -1.4215635474     0.0421409345
   39      H      -3.7863031273     0.4270210532    -1.8282250817
   40      H      -2.5578763712    -1.2517351411    -0.7067907384
   41      H      -3.3941272705     4.0056207880     0.4830347092
   42      H      -6.5282972200     0.2460095372    -1.0906600347
   43      H      -6.5727378067    -1.7548073195    -2.6485202680
   44      H      -5.0904968421    -0.9115783131    -3.1968240203
   45      H      -5.2472032352    -3.5519672456    -1.8175225213
   46      H      -3.7372954947    -2.6963187724    -2.2540251859
   47      H      -4.4196673344    -2.9686160168     0.4796323070
   48      H      -5.1618599039     4.0708792528     0.1562635071
   49      H      -3.9946517993     4.6778125879    -1.0859206627
   50      H       1.3621847812     2.9594739932    -1.0532625772
   51      H       2.9833325017     3.7214686827    -1.3162180846
   52      H       2.4980227955     3.1912208436     0.3364244871
   53      H       0.8076350304     0.8644881653     1.6354894563
   54      H       0.5476347246    -0.6933639531     2.4980813510
   55      H      -1.0214212974     0.3930076629     0.0848615055
   56      H      -0.6925371343    -1.3792873090     0.1665410681
 ----------------------------------------------------------------

    9   -1510.2649722654      2.42E-09 Convergence criterion met
 Total energy in the final basis set = -1510.26497227
 Final energy is   -1510.26497226543
 **  OPTIMIZATION CONVERGED  **

                    Orbital Energies (a.u.)
 --------------------------------------------------------------

 Alpha MOs
 -- Occupied --
-18.937 -18.936 -18.936 -18.930 -18.894 -18.890 -18.882 -18.881
-18.875 -18.874 -10.103 -10.102 -10.101 -10.097 -10.082 -10.075
-10.067 -10.067 -10.065 -10.064 -10.063 -10.060 -10.043 -10.041
-10.041 -10.040 -10.025 -10.024 -10.023 -10.022  -1.018  -1.015
 -1.010  -1.002  -0.975  -0.972  -0.942  -0.940  -0.938  -0.932
 -0.767  -0.766  -0.728  -0.726  -0.717  -0.710  -0.702  -0.667
 -0.665  -0.614  -0.604  -0.585  -0.552  -0.549  -0.543  -0.540
 -0.519  -0.513  -0.487  -0.478  -0.467  -0.465  -0.456  -0.455
 -0.437  -0.436  -0.432  -0.418  -0.416  -0.415  -0.414  -0.404
 -0.396  -0.388  -0.380  -0.373  -0.363  -0.362  -0.355  -0.352
 -0.346  -0.342  -0.341  -0.334  -0.333  -0.329  -0.317  -0.314
 -0.312  -0.308  -0.306  -0.303  -0.296  -0.288  -0.285  -0.279
 -0.275  -0.260  -0.258  -0.255  -0.245  -0.237  -0.236  -0.182
 -0.181  -0.178  -0.172  -0.161  -0.157  -0.152  -0.149  -0.146
 -0.141

          Ground-State Mulliken Net Atomic Charges

     Atom                 Charge (a.u.)
  ----------------------------------------
      1 O                    -0.202178
      2 C                     0.202242
      3 C                    -0.081155
      4 C                    -0.085903
      5 C                     0.207705
      6 O                    -0.171662
      7 C                    -0.045653
      8 C                    -0.048275
      9 O                    -0.174812
     10 C                     0.212156
     11 C                    -0.078743
     12 C                    -0.078687
     13 C                     0.214582
     14 O                    -0.205185
     15 O                    -0.173054
     16 O                    -0.175586
     17 O                    -0.215021
     18 C                    -0.129825
     19 C                     0.025758
     20 C                    -0.143807
     21 C                    -0.143846
     22 C                     0.024471
     23 O                    -0.185635
     24 H                     0.085393
     25 H                     0.084362
     26 H                     0.083692
     27 H                     0.078727
     28 H                     0.073217
     29 H                     0.078893
     30 H                     0.072875
     31 H                     0.091052
     32 O                    -0.185899
     33 C                    -0.129853
     34 C                     0.027412
     35 C                    -0.142766
     36 C                    -0.145389
     37 C                     0.027753
     38 O                    -0.180471
     39 H                     0.084281
     40 H                     0.078184
     41 H                     0.088887
     42 H                     0.085091
     43 H                     0.079247
     44 H                     0.073803
     45 H                     0.079432
     46 H                     0.071972
     47 H                     0.086206
     48 H                     0.090712
     49 H                     0.089867
     50 H                     0.087015
     51 H                     0.091397
     52 H                     0.092979
     53 H                     0.096076
     54 H                     0.093621
     55 H                     0.080584
     56 H                     0.083764
  ----------------------------------------
  Sum of atomic charges =    -0.000000

                    Cartesian Multipole Moments
 -----------------------------------------------------------------
    Charge (ESU x 10^10)
                 0.0000
    Dipole Moment (Debye)
         X       0.5556      Y      -1.1114      Z      -5.7146
       Tot       5.8481
    Quadrupole Moments (Debye-Ang)
        XX    -178.9234     XY     -15.6528     YY    -149.0688
        XZ       7.8612     YZ      -0.0849     ZZ    -167.9822

 Total job time:  69.69s(wall), 3315.39s(cpu)
        *  Thank you very much for using Q-Chem.  Have a nice day.  *
