 Q-Chem 5.0, Q-Chem, Inc., Pleasanton, CA (2017)
 Q-Chem 5.0.1 for Intel X86 EM64T Linux

User input:
--------------------------------------------------------------
$molecule
0  1
O -4.5243098931 1.7284873057 1.1613937648
C -4.3088463997 1.5407616259 -0.054469976
C -4.2497060209 0.1951219643 -0.8527982018
C -3.4672561051 -0.9912019175 -0.1453941572
C -3.1654424764 -0.7567027233 1.3923370542
O -1.8011783233 -0.5927547796 1.8380415509
C -0.7882900417 -0.4493713467 0.7713044928
C 0.5842869342 -0.2136943361 1.4944810644
O 1.6242434148 -0.8584271703 0.6562067514
C 2.9048940822 -0.2560077605 0.8867301919
C 3.9491864435 -0.9826791564 -0.026709653
C 4.776400616 0.0213977844 -0.9362903046
C 4.3360586638 1.5183873127 -0.7647045299
O 5.0514832849 2.5010283257 -0.4822692651
O -4.0866634262 2.6029249973 -0.9953484782
O 2.9251851229 1.5888278548 -1.0225037906
O 3.110541852 0.6736989259 1.6967263524
C 2.4239378297 2.9533073253 -0.7449672703
C 5.1230230144 -1.6238038087 0.8347597131
C 5.9323835481 -2.6150242089 -0.0923926268
C 6.7558661126 -1.6039440166 -0.9747144232
C 6.2482840354 -0.2217087207 -0.4060843083
O 6.052836941 -0.4915299138 1.0381568241
H 3.418076546 -1.7387704441 -0.6305898328
H 4.6755440702 -0.2498861196 -2.0034676535
H 4.8025246891 -2.0428064428 1.8083672799
H 6.5933422557 -3.2558700944 0.5126913063
H 5.2662673373 -3.2584514894 -0.6894197772
H 7.8394420414 -1.7144017672 -0.8095844964
H 6.5491461844 -1.7118403743 -2.0514436736
H 6.9249686937 0.6430689486 -0.5491297434
O -4.0347908181 -0.8159869333 2.2870487857
C -4.1668406858 3.9121570043 -0.3072943041
C -5.6830344723 -0.4690133525 -1.0783152079
C -5.5724334637 -1.4101687955 -2.3406362324
C -4.7131875444 -2.5908564839 -1.7533331811
C -4.5624349911 -2.1432216763 -0.2442441914
O -5.8224690147 -1.4215635474 0.0421409345
H -3.7863031273 0.4270210532 -1.8282250817
H -2.5578763712 -1.2517351411 -0.7067907384
H -3.3941272705 4.005620788 0.4830347092
H -6.52829722 0.2460095372 -1.0906600347
H -6.5727378067 -1.7548073195 -2.648520268
H -5.0904968421 -0.9115783131 -3.1968240203
H -5.2472032352 -3.5519672456 -1.8175225213
H -3.7372954947 -2.6963187724 -2.2540251859
H -4.4196673344 -2.9686160168 0.479632307
H -5.1618599039 4.0708792528 0.1562635071
H -3.9946517993 4.6778125879 -1.0859206627
H 1.3621847812 2.9594739932 -1.0532625772
H 2.9833325017 3.7214686827 -1.3162180846
H 2.4980227955 3.1912208436 0.3364244871
H 0.8076350304 0.8644881653 1.6354894563
H 0.5476347246 -0.6933639531 2.498081351
H -1.0214212974 0.3930076629 0.0848615055
H -0.6925371343 -1.379287309 0.1665410681
$end

$rem
JOBTYPE                   OPT
METHOD                    B3LYP
DFT_D                     d3_op
BASIS                     STO-3G
GEOM_OPT_MAX_CYCLES       100
GEOM_OPT_TOL_GRADIENT     300
GEOM_OPT_TOL_DISPLACEMENT 1200
GEOM_OPT_TOL_ENERGY       100
SYMMETRY                  False
THRESH                    12
SCF_CONVERGENCE           8
MAX_SUB_FILE_NUM          128
MEM_STATIC                400
MEM_TOTAL                 4000
$end
--------------------------------------------------------------

   16   -1510.2649405674      7.91E-09 Convergence criterion met
 Total energy in the final basis set = -1510.26494057
   14   -1510.2670275600      4.19E-09 Convergence criterion met
 Total energy in the final basis set = -1510.26702756
   14   -1510.2690432936      6.84E-09 Convergence criterion met
 Total energy in the final basis set = -1510.26904329
   14   -1510.2683249417      2.84E-09 Convergence criterion met
 Total energy in the final basis set = -1510.26832494
   15   -1510.2639735845      3.85E-09 Convergence criterion met
 Total energy in the final basis set = -1510.26397358
   14   -1510.2707291782      5.73E-09 Convergence criterion met
 Total energy in the final basis set = -1510.27072918
   14   -1510.2725687382      5.10E-09 Convergence criterion met
 Total energy in the final basis set = -1510.27256874
   14   -1510.2739177743      9.38E-09 Convergence criterion met
   12   -1510.2943252495      2.73E-09 Convergence criterion met
 Total energy in the final basis set = -1510.29432525
   11   -1510.2943270277      5.83E-09 Convergence criterion met
 Total energy in the final basis set = -1510.29432703
   10   -1510.2943318433      9.40E-09 Convergence criterion met
 Total energy in the final basis set = -1510.29433184
   11   -1510.2943348260      2.30E-09 Convergence criterion met
 Total energy in the final basis set = -1510.29433483
    9   -1510.2943353863      7.87E-09 Convergence criterion met
 Total energy in the final basis set = -1510.29433539
    9   -1510.2943350746      7.96E-09 Convergence criterion met
 Total energy in the final basis set = -1510.29433507

             Standard Nuclear Orientation (Angstroms)
    I     Atom           X                Y                Z
 ----------------------------------------------------------------
    1      O      -1.6689034576     0.6587185808     1.6963038612
    2      C      -1.8057687440     0.8434179496     0.4637083334
    3      C      -2.5088127422    -0.1145502956    -0.5570522706
    4      C      -3.2477263309    -1.3263748619     0.1379275681
    5      C      -3.1267328893    -1.4123927053     1.7206363769
    6      O      -2.1053162754    -2.2662005953     2.2848426940
    7      C      -0.8541131374    -2.3821198300     1.5097131232
    8      C       0.2423750173    -1.5046668128     2.2268399963
    9      O       1.5650329787    -1.6087126628     1.5579641260
   10      C       1.6384826697    -0.7269336510     0.4439296808
   11      C       3.0586946628    -0.8263233537    -0.2068790875
   12      C       3.3183979153     0.3189881957    -1.2699915960
   13      C       2.1043288216     1.2987512548    -1.4863200733
   14      O       1.9453188141     2.4139032309    -0.9352952860
   15      O      -1.3653886333     2.0013203457    -0.2395066654
   16      O       1.2925009127     0.7802092381    -2.5396204072
   17      O       0.7014681394     0.0153975058     0.0665239233
   18      C       0.1139022018     1.6538162374    -2.7613233751
   19      C       4.2071461154    -0.5282991568     0.8493773944
   20      C       5.5892775976    -0.9649835413     0.2236041013
   21      C       5.8406111383     0.1986213004    -0.8052368065
   22      C       4.5425858059     1.0735199313    -0.5974075643
   23      O       4.2717218192     0.9502641422     0.8549433351
   24      H       3.1690872573    -1.8321907930    -0.6524517603
   25      H       3.5880539187    -0.1146365701    -2.2490028893
   26      H       3.9959835960    -0.9193034798     1.8636127516
   27      H       6.3697543842    -0.9946936688     1.0006745862
   28      H       5.5320815789    -1.9548074701    -0.2568888065
   29      H       6.7413039525     0.7782908064    -0.5477730061
   30      H       5.9362854777    -0.1620972479    -1.8417885936
   31      H       4.6294119540     2.1397911427    -0.8819660066
   32      O      -4.0053347942    -0.9914364423     2.5024466026
   33      C      -0.5132676855     2.8723600299     0.6109618324
   34      C      -3.7209087486     0.6145748955    -1.2793439880
   35      C      -4.1816427416    -0.2648517074    -2.5085158683
   36      C      -4.9511674301    -1.4276824457    -1.7781006437
   37      C      -4.7552695364    -1.0170518955    -0.2653659752
   38      O      -4.8202252615     0.4616201170    -0.3012015142
   39      H      -1.7472181032    -0.4551155622    -1.2830671210
   40      H      -2.9246371261    -2.2865181469    -0.3003973680
   41      H       0.5073335251     2.8659614675     0.1581002993
   42      H      -3.5321886489     1.6831472260    -1.4996916343
   43      H      -4.8493131280     0.3134208239    -3.1666641479
   44      H      -3.3258880807    -0.6259004872    -3.1013441462
   45      H      -6.0211518354    -1.4295274870    -2.0401282519
   46      H      -4.5313686913    -2.4219828650    -1.9990302300
   47      H      -5.5043748121    -1.4167719617     0.4449460999
   48      H      -0.4987151712     2.4785566405     1.6452955557
   49      H      -0.9411399633     3.8927660074     0.5954980226
   50      H      -0.5078412770     1.7458848418    -1.8359768450
   51      H      -0.4674501205     1.1708584725    -3.5678438926
   52      H       0.4246928936     2.6654882215    -3.0923253220
   53      H      -0.1301637873    -0.4551314343     2.2458063598
   54      H       0.3973666861    -1.8714719957     3.2603854088
   55      H      -0.9531067446    -2.0552173110     0.4565863605
   56      H      -0.5531396973    -3.4512423839     1.5210011325
 ----------------------------------------------------------------

    9   -1510.2943342607      4.27E-09 Convergence criterion met
 Total energy in the final basis set = -1510.29433426
 Final energy is   -1510.29433426072
 **  OPTIMIZATION CONVERGED  **

                    Orbital Energies (a.u.)
 --------------------------------------------------------------

 Alpha MOs
 -- Occupied --
-18.951 -18.948 -18.926 -18.921 -18.893 -18.891 -18.889 -18.889
-18.866 -18.866 -10.117 -10.114 -10.099 -10.095 -10.075 -10.068
-10.065 -10.063 -10.061 -10.059 -10.047 -10.045 -10.044 -10.042
-10.038 -10.037 -10.025 -10.023 -10.023 -10.021  -1.030  -1.020
 -1.003  -0.996  -0.974  -0.972  -0.953  -0.946  -0.929  -0.929
 -0.768  -0.766  -0.729  -0.725  -0.716  -0.707  -0.700  -0.657
 -0.654  -0.617  -0.599  -0.587  -0.551  -0.548  -0.541  -0.540
 -0.518  -0.511  -0.488  -0.483  -0.467  -0.460  -0.459  -0.457
 -0.437  -0.435  -0.428  -0.427  -0.416  -0.407  -0.399  -0.395
 -0.393  -0.391  -0.381  -0.374  -0.368  -0.360  -0.355  -0.350
 -0.346  -0.338  -0.337  -0.332  -0.330  -0.327  -0.322  -0.316
 -0.315  -0.309  -0.307  -0.304  -0.299  -0.288  -0.281  -0.279
 -0.275  -0.262  -0.259  -0.244  -0.238  -0.236  -0.234  -0.198
 -0.182  -0.172  -0.167  -0.165  -0.158  -0.149  -0.148  -0.146
 -0.141

          Ground-State Mulliken Net Atomic Charges

     Atom                 Charge (a.u.)
  ----------------------------------------
      1 O                    -0.211313
      2 C                     0.233240
      3 C                    -0.080963
      4 C                    -0.087672
      5 C                     0.216144
      6 O                    -0.175570
      7 C                    -0.050015
      8 C                    -0.057629
      9 O                    -0.169480
     10 C                     0.216654
     11 C                    -0.078037
     12 C                    -0.081914
     13 C                     0.220474
     14 O                    -0.226936
     15 O                    -0.168282
     16 O                    -0.174769
     17 O                    -0.217357
     18 C                    -0.147561
     19 C                     0.024579
     20 C                    -0.143838
     21 C                    -0.144005
     22 C                     0.025220
     23 O                    -0.188738
     24 H                     0.086725
     25 H                     0.084441
     26 H                     0.089229
     27 H                     0.079262
     28 H                     0.073469
     29 H                     0.078888
     30 H                     0.073602
     31 H                     0.088357
     32 O                    -0.199937
     33 C                    -0.145378
     34 C                     0.024751
     35 C                    -0.144330
     36 C                    -0.144268
     37 C                     0.026752
     38 O                    -0.187027
     39 H                     0.088216
     40 H                     0.077121
     41 H                     0.117382
     42 H                     0.089033
     43 H                     0.078982
     44 H                     0.072456
     45 H                     0.079109
     46 H                     0.072213
     47 H                     0.090984
     48 H                     0.096868
     49 H                     0.084263
     50 H                     0.110878
     51 H                     0.077331
     52 H                     0.079279
     53 H                     0.110001
     54 H                     0.093394
     55 H                     0.081548
     56 H                     0.084172
  ----------------------------------------
  Sum of atomic charges =     0.000000

                    Cartesian Multipole Moments
 -----------------------------------------------------------------
    Charge (ESU x 10^10)
                 0.0000
    Dipole Moment (Debye)
         X       2.8563      Y      -2.4728      Z      -4.1375
       Tot       5.6029
    Quadrupole Moments (Debye-Ang)
        XX    -162.2963     XY      -2.6280     YY    -157.0044
        XZ      10.6948     YZ       1.4495     ZZ    -165.6164

 Total job time:  202.60s(wall), 9668.27s(cpu)
        *  Thank you very much for using Q-Chem.  Have a nice day.  *
