 Q-Chem 5.0, Q-Chem, Inc., Pleasanton, CA (2017)
 Q-Chem 5.0.1 for Intel X86 EM64T Linux

User input:
--------------------------------------------------------------
$molecule
0  1
O 3.3893310034 -2.7815835393 0.7570085113
C 3.0636531557 -1.6483125991 0.3367149417
C 4.1080308474 -0.6193675553 -0.2423292234
C 3.7377370919 0.9116382334 -0.4171226535
C 2.39494789 1.343569841 0.2579594088
O 1.7085605277 2.243052013 -0.6411099217
C 0.252035158 2.1938181976 -0.370403852
C -0.2637044521 0.886796954 -1.0912719354
O -1.6920449156 0.5027283928 -0.9709984097
C -2.6318884427 1.5415655922 -0.746392213
C -4.0757807659 0.9156963671 -0.6515728176
C -4.197813352 -0.6390876576 -0.3524181198
C -2.8564132077 -1.4567436791 -0.3109550754
O -2.0917881213 -1.6387824006 0.664295026
O 1.6963545308 -1.2405057522 0.1933708571
O -2.718807831 -2.0771370679 -1.5954066956
O -2.3844620987 2.7644683235 -0.6720366607
C -1.4747924919 -2.872073892 -1.6767571829
C -4.8279638705 1.5193915527 0.6101210488
C -6.375762158 1.2402639826 0.4700335303
C -6.4456223047 -0.288672198 0.8366770951
C -4.9171209262 -0.6123452709 1.0657066767
O -4.3995065269 0.6189369699 1.7047062574
H -4.6029094113 1.1693984689 -1.5902950427
H -4.8372238697 -1.1145156618 -1.1170150473
H -4.5488656242 2.5683895373 0.830698516
H -6.9452514009 1.8553735331 1.184559469
H -6.7428896429 1.4504587389 -0.5473035561
H -7.0151013493 -0.4550670547 1.7650918322
H -6.8878464004 -0.9016322544 0.035149754
H -4.7057487974 -1.4941045261 1.7012365746
O 1.9878962531 1.0577282663 1.4032637564
C 0.8213129312 -2.2360110041 0.8675021845
C 5.3965374574 -0.5253443682 0.6871522379
C 6.6204543054 -0.1084076927 -0.2175457648
C 6.2755067493 1.399664286 -0.5067636743
C 4.961356686 1.5851421446 0.3515095259
O 5.1552821257 0.6827015654 1.5075628622
H 4.3980581424 -1.0277698686 -1.2295829894
H 3.7032461456 1.2046235992 -1.480408739
H 1.0639631335 -2.2983681817 1.946526409
H 5.5514834835 -1.4156835575 1.3276115905
H 7.5633067147 -0.2061131179 0.3439258769
H 6.6886037425 -0.7152790431 -1.1343089892
H 7.0690255956 2.0747782335 -0.1491863027
H 6.0989189496 1.5970138497 -1.576255092
H 4.7667781686 2.6199327316 0.6944834041
H 0.9547289693 -3.2424895752 0.4229296811
H -0.2350883442 -1.9025055335 0.7407899567
H -1.53319643 -3.435772855 -2.6261531908
H -1.3830439209 -3.5811588347 -0.8295187438
H -0.578636857 -2.2195301192 -1.6940687444
H -0.0310171354 0.9821665497 -2.1754560683
H 0.3155565782 0.0233922163 -0.6871672848
H -0.2010689867 3.1038208851 -0.8047155754
H 0.0461906892 2.1508473522 0.7203571056
$end

$rem
JOBTYPE                   OPT
METHOD                    B3LYP
DFT_D                     d3_op
BASIS                     STO-3G
GEOM_OPT_MAX_CYCLES       100
GEOM_OPT_TOL_GRADIENT     300
GEOM_OPT_TOL_DISPLACEMENT 1200
GEOM_OPT_TOL_ENERGY       100
SYMMETRY                  False
THRESH                    12
SCF_CONVERGENCE           8
MAX_SUB_FILE_NUM          128
MEM_STATIC                400
MEM_TOTAL                 4000
$end
--------------------------------------------------------------

   16   -1510.2759368882      5.61E-09 Convergence criterion met
 Total energy in the final basis set = -1510.27593689
   13   -1510.2753651644      9.45E-09 Convergence criterion met
 Total energy in the final basis set = -1510.27536516
   13   -1510.2764383995      6.71E-09 Convergence criterion met
 Total energy in the final basis set = -1510.27643840
   14   -1510.2682993232      7.87E-09 Convergence criterion met
 Total energy in the final basis set = -1510.26829932
   14   -1510.2774291179      4.04E-09 Convergence criterion met
 Total energy in the final basis set = -1510.27742912
   14   -1510.2794593970      6.97E-09 Convergence criterion met
 Total energy in the final basis set = -1510.27945940
   13   -1510.2815422029      3.89E-09 Convergence criterion met
 Total energy in the final basis set = -1510.28154220
   13   -1510.2831221042      7.59E-09 Convergence criterion met
   11   -1510.3000523608      4.72E-09 Convergence criterion met
 Total energy in the final basis set = -1510.30005236
   11   -1510.3000599676      3.82E-09 Convergence criterion met
 Total energy in the final basis set = -1510.30005997
   10   -1510.3000607489      4.55E-09 Convergence criterion met
 Total energy in the final basis set = -1510.30006075
   10   -1510.3000595636      7.12E-09 Convergence criterion met
 Total energy in the final basis set = -1510.30005956
   11   -1510.3000585420      1.70E-09 Convergence criterion met
 Total energy in the final basis set = -1510.30005854
    9   -1510.3000601417      4.58E-09 Convergence criterion met
 Total energy in the final basis set = -1510.30006014

             Standard Nuclear Orientation (Angstroms)
    I     Atom           X                Y                Z
 ----------------------------------------------------------------
    1      O       3.5249006920    -1.6431579331     2.5999561069
    2      C       3.0676287634    -1.3578701623     1.4744263851
    3      C       3.8443725337    -1.1852657421     0.1192126887
    4      C       3.4156175092     0.1138453836    -0.6905270081
    5      C       2.3986476286     1.0088198619     0.0972953153
    6      O       1.1440130225     1.0441267925    -0.6171850958
    7      C       0.1433405044     1.8184785544     0.1625112945
    8      C      -0.8017470284     2.5848481212    -0.8261761879
    9      O      -1.9452722391     1.7297575597    -1.2342202111
   10      C      -3.0453017151     1.9239119552    -0.3317297063
   11      C      -4.1881263480     0.9145489888    -0.7043504521
   12      C      -3.7401211782    -0.6095506679    -0.6662612451
   13      C      -2.2248087573    -0.8038632710    -0.3139609596
   14      O      -1.6640592408    -0.5086045890     0.7701624329
   15      O       1.6874537438    -1.1399431567     1.1775194307
   16      O      -1.5882091276    -1.3951371964    -1.4368704886
   17      O      -3.0670040319     2.7822278302     0.5760247808
   18      C      -0.1287999670    -1.5526423072    -1.2122282471
   19      C      -5.3173886980     0.9285069229     0.4061772900
   20      C      -6.5997352840     0.2066337292    -0.1640311249
   21      C      -6.1496129022    -1.3007665047    -0.1092663846
   22      C      -4.6911973402    -1.1625215658     0.4826787292
   23      O      -4.8007738685    -0.0222786900     1.4188667495
   24      H      -4.5804587534     1.1803218134    -1.7034014993
   25      H      -3.9314174431    -1.1052186014    -1.6337583175
   26      H      -5.4812199475     1.9243327120     0.8619098074
   27      H      -7.4682258079     0.3927691455     0.4874943448
   28      H      -6.8458705830     0.5404843227    -1.1847267337
   29      H      -6.7862119419    -1.8885524744     0.5711823678
   30      H      -6.1512873340    -1.7830708709    -1.0997496192
   31      H      -4.3051975903    -2.0584408619     1.0063840652
   32      O       2.6160722413     1.6606525269     1.1408587696
   33      C       0.8346837792    -1.1903989946     2.3864394334
   34      C       5.3889428191    -0.9177103308     0.3434534979
   35      C       6.1414871778    -1.2019446178    -1.0143889351
   36      C       5.7010233709     0.0457765596    -1.8675064808
   37      C       4.8221194179     0.8408727319    -0.8222725436
   38      O       5.4695022336     0.5558688308     0.4779759875
   39      H       3.6756623854    -2.0926056970    -0.4906259957
   40      H       2.9787245413    -0.1423719566    -1.6711834127
   41      H       1.1144217073    -0.3935594792     3.1046682217
   42      H       5.8032239584    -1.4132495393     1.2431741670
   43      H       7.2313055968    -1.2160970575    -0.8542376511
   44      H       5.8375570958    -2.1588624376    -1.4678107526
   45      H       6.5680145282     0.6492616190    -2.1794290720
   46      H       5.1243245476    -0.2343038430    -2.7634509976
   47      H       4.7588916268     1.9332451996    -0.9913815043
   48      H       0.9094043027    -2.1729884444     2.8942349299
   49      H      -0.1956150791    -1.0214530840     2.0055180530
   50      H       0.2639303777    -2.0036360136    -2.1414967256
   51      H       0.0768074536    -2.2306954899    -0.3604761467
   52      H       0.3703203012    -0.5700540906    -1.0186026700
   53      H      -1.1876324094     3.5001396050    -0.3283095682
   54      H      -0.2563400759     2.8532812834    -1.7535767006
   55      H       0.6817290076     2.5123765068     0.8420861931
   56      H      -0.4658126416     1.1016641219     0.7619638247
 ----------------------------------------------------------------

    9   -1510.3000605815      4.17E-09 Convergence criterion met
 Total energy in the final basis set = -1510.30006058
 Final energy is   -1510.30006058148
 **  OPTIMIZATION CONVERGED  **

                    Orbital Energies (a.u.)
 --------------------------------------------------------------

 Alpha MOs
 -- Occupied --
-18.938 -18.936 -18.936 -18.932 -18.889 -18.888 -18.883 -18.879
-18.876 -18.874 -10.105 -10.103 -10.102 -10.100 -10.073 -10.062
-10.062 -10.060 -10.059 -10.058 -10.048 -10.042 -10.041 -10.040
-10.039 -10.038 -10.022 -10.022 -10.021 -10.020  -1.019  -1.014
 -1.009  -1.006  -0.972  -0.970  -0.943  -0.938  -0.937  -0.936
 -0.766  -0.764  -0.729  -0.724  -0.712  -0.707  -0.698  -0.657
 -0.655  -0.618  -0.598  -0.580  -0.548  -0.545  -0.539  -0.537
 -0.512  -0.512  -0.486  -0.474  -0.459  -0.459  -0.455  -0.453
 -0.437  -0.432  -0.429  -0.418  -0.415  -0.408  -0.401  -0.398
 -0.391  -0.383  -0.372  -0.368  -0.364  -0.362  -0.355  -0.352
 -0.342  -0.341  -0.338  -0.332  -0.331  -0.327  -0.324  -0.312
 -0.311  -0.307  -0.306  -0.302  -0.292  -0.289  -0.285  -0.275
 -0.273  -0.263  -0.254  -0.245  -0.242  -0.236  -0.234  -0.185
 -0.178  -0.174  -0.171  -0.163  -0.158  -0.154  -0.151  -0.145
 -0.144

          Ground-State Mulliken Net Atomic Charges

     Atom                 Charge (a.u.)
  ----------------------------------------
      1 O                    -0.205965
      2 C                     0.213101
      3 C                    -0.078573
      4 C                    -0.078560
      5 C                     0.216364
      6 O                    -0.175164
      7 C                    -0.064478
      8 C                    -0.053890
      9 O                    -0.174460
     10 C                     0.210825
     11 C                    -0.078119
     12 C                    -0.079165
     13 C                     0.218641
     14 O                    -0.227755
     15 O                    -0.176604
     16 O                    -0.165829
     17 O                    -0.208343
     18 C                    -0.147564
     19 C                     0.024516
     20 C                    -0.144198
     21 C                    -0.143661
     22 C                     0.025519
     23 O                    -0.186633
     24 H                     0.086007
     25 H                     0.087130
     26 H                     0.090975
     27 H                     0.078865
     28 H                     0.073310
     29 H                     0.078393
     30 H                     0.073752
     31 H                     0.083234
     32 O                    -0.211665
     33 C                    -0.141297
     34 C                     0.023969
     35 C                    -0.143605
     36 C                    -0.144346
     37 C                     0.025816
     38 O                    -0.185510
     39 H                     0.083473
     40 H                     0.084630
     41 H                     0.088712
     42 H                     0.091169
     43 H                     0.078807
     44 H                     0.072831
     45 H                     0.078479
     46 H                     0.072969
     47 H                     0.083529
     48 H                     0.083543
     49 H                     0.113053
     50 H                     0.079711
     51 H                     0.083430
     52 H                     0.113958
     53 H                     0.099771
     54 H                     0.092024
     55 H                     0.100184
     56 H                     0.104697
  ----------------------------------------
  Sum of atomic charges =    -0.000000

                    Cartesian Multipole Moments
 -----------------------------------------------------------------
    Charge (ESU x 10^10)
                -0.0000
    Dipole Moment (Debye)
         X      -1.4406      Y      -1.5295      Z      -4.4412
       Tot       4.9131
    Quadrupole Moments (Debye-Ang)
        XX    -152.1245     XY      -1.5085     YY    -156.4557
        XZ      -6.4928     YZ      -3.8294     ZZ    -166.9493

 Total job time:  160.16s(wall), 7643.57s(cpu)
        *  Thank you very much for using Q-Chem.  Have a nice day.  *
