 Q-Chem 5.0, Q-Chem, Inc., Pleasanton, CA (2017)
 Q-Chem 5.0.1 for Intel X86 EM64T Linux

User input:
--------------------------------------------------------------
$molecule
0  1
O -3.94934 -3.66094 2.70899
C -3.26408 -4.56952 2.26188
C -3.36658 -6.02376 2.66595
C -2.19568 -6.94363 2.28296
C -0.97418 -6.27165 1.69605
O -0.48833 -7.016 0.65908
C 0.25156 -6.24233 -0.29131
C -0.70232 -5.50598 -1.22621
O 0.04344 -4.68638 -2.13998
C 1.30233 -5.11185 -2.41072
C 2.03351 -4.20953 -3.37604
C 1.44581 -2.79749 -3.51399
C 0.46542 -2.38156 -2.43578
O 0.76286 -1.86579 -1.36804
O -2.31209 -4.14933 1.39633
O -0.80395 -2.22789 -2.9056
O 1.66034 -6.27791 -2.47787
C -1.88855 -1.77646 -2.19056
C 3.47353 -3.87368 -2.93711
C 4.30362 -3.49942 -4.16379
C 3.69128 -2.15913 -4.52044
C 2.73486 -1.97137 -3.33569
O 3.3699 -2.63943 -2.27202
H 2.07046 -4.73671 -4.35817
H 0.96854 -2.63953 -4.50752
H 3.9663 -4.69479 -2.37197
H 5.34489 -3.33083 -3.80596
H 4.31853 -4.24714 -4.9857
H 4.49728 -1.39231 -4.51143
H 3.14376 -2.12881 -5.48738
H 2.51999 -0.89149 -3.1754
O -0.32414 -5.39559 2.25799
C -1.93671 -2.82706 1.2345
C -3.31611 -6.16468 4.20423
C -3.94455 -7.49153 4.63007
C -2.87261 -8.4636 4.18845
C -1.81212 -7.48718 3.67109
O -1.95645 -6.36074 4.49841
H -4.35472 -6.38785 2.3069
H -2.51972 -7.76916 1.60827
H -1.59551 -2.40947 2.20596
H -3.81301 -5.32638 4.7402
H -3.98948 -7.49806 5.74284
H -4.95964 -7.68228 4.2201
H -2.49191 -8.99935 5.08655
H -3.18407 -9.19681 3.41337
H -0.8094 -7.96998 3.67391
H -2.78729 -2.22444 0.8507
H -1.08106 -2.77042 0.53415
H -2.75385 -1.67561 -2.87703
H -1.67439 -0.78633 -1.73511
H -2.16232 -2.52017 -1.42416
H -1.34725 -6.2187 -1.78276
H -1.35815 -4.83785 -0.65465
H 0.8096 -7.06916 -0.74225
H 0.97859 -5.56025 0.20829
$end

$opt
CONSTRAINT
tors           1           2           3           4    -164.211
tors           3           4           5           6    -138.924
tors           4           5           6           7    +154.648
tors           5           6           7           8     -79.602
tors           6           7           8           9    +177.510
tors           7           8           9          10     +27.016
tors           8           9          10          11    -180.000
tors           9          10          11          12     +18.924
tors          11          12          13          14     +87.151
ENDCONSTRAINT
$end

$rem
JOBTYPE                   OPT
METHOD                    B3LYP
DFT_D                     d3_op
BASIS                     STO-3G
GEOM_OPT_MAX_CYCLES       100
GEOM_OPT_TOL_GRADIENT     300
GEOM_OPT_TOL_DISPLACEMENT 1200
GEOM_OPT_TOL_ENERGY       100
SYMMETRY                  False
THRESH                    12
SCF_CONVERGENCE           8
MAX_SUB_FILE_NUM          128
MEM_STATIC                400
MEM_TOTAL                 4000
$end
--------------------------------------------------------------

   15   -1510.1072558614      7.79E-09 Convergence criterion met
 Total energy in the final basis set = -1510.10725586
   14   -1510.1845917651      6.43E-09 Convergence criterion met
 Total energy in the final basis set = -1510.18459177
   14   -1510.2268661370      8.11E-09 Convergence criterion met
 Total energy in the final basis set = -1510.22686614
   15   -1510.2506264352      1.76E-09 Convergence criterion met
 Total energy in the final basis set = -1510.25062644
   15   -1510.2567410958      2.20E-09 Convergence criterion met
 Total energy in the final basis set = -1510.25674110
   14   -1510.2645675977      2.53E-09 Convergence criterion met
 Total energy in the final basis set = -1510.26456760
   13   -1510.2637688558      8.44E-09 Convergence criterion met
 Total energy in the final basis set = -1510.26376886
   13   -1510.2698984963      8.66E-09 Convergence criterion met
   10   -1510.2757353039      1.00E-08 Convergence criterion met
 Total energy in the final basis set = -1510.27573530
   12   -1510.2758399438      2.10E-09 Convergence criterion met
 Total energy in the final basis set = -1510.27583994
   11   -1510.2758764059      3.71E-09 Convergence criterion met
 Total energy in the final basis set = -1510.27587641
   10   -1510.2759099922      9.37E-09 Convergence criterion met
 Total energy in the final basis set = -1510.27590999
   10   -1510.2759201855      6.01E-09 Convergence criterion met
 Total energy in the final basis set = -1510.27592019
    9   -1510.2759227671      8.74E-09 Convergence criterion met
 Total energy in the final basis set = -1510.27592277

             Standard Nuclear Orientation (Angstroms)
    I     Atom           X                Y                Z
 ----------------------------------------------------------------
    1      O       3.3893310034    -2.7815835393     0.7570085113
    2      C       3.0636531557    -1.6483125991     0.3367149417
    3      C       4.1080308474    -0.6193675553    -0.2423292234
    4      C       3.7377370919     0.9116382334    -0.4171226535
    5      C       2.3949478900     1.3435698410     0.2579594088
    6      O       1.7085605277     2.2430520130    -0.6411099217
    7      C       0.2520351580     2.1938181976    -0.3704038520
    8      C      -0.2637044521     0.8867969540    -1.0912719354
    9      O      -1.6920449156     0.5027283928    -0.9709984097
   10      C      -2.6318884427     1.5415655922    -0.7463922130
   11      C      -4.0757807659     0.9156963671    -0.6515728176
   12      C      -4.1978133520    -0.6390876576    -0.3524181198
   13      C      -2.8564132077    -1.4567436791    -0.3109550754
   14      O      -2.0917881213    -1.6387824006     0.6642950260
   15      O       1.6963545308    -1.2405057522     0.1933708571
   16      O      -2.7188078310    -2.0771370679    -1.5954066956
   17      O      -2.3844620987     2.7644683235    -0.6720366607
   18      C      -1.4747924919    -2.8720738920    -1.6767571829
   19      C      -4.8279638705     1.5193915527     0.6101210488
   20      C      -6.3757621580     1.2402639826     0.4700335303
   21      C      -6.4456223047    -0.2886721980     0.8366770951
   22      C      -4.9171209262    -0.6123452709     1.0657066767
   23      O      -4.3995065269     0.6189369699     1.7047062574
   24      H      -4.6029094113     1.1693984689    -1.5902950427
   25      H      -4.8372238697    -1.1145156618    -1.1170150473
   26      H      -4.5488656242     2.5683895373     0.8306985160
   27      H      -6.9452514009     1.8553735331     1.1845594690
   28      H      -6.7428896429     1.4504587389    -0.5473035561
   29      H      -7.0151013493    -0.4550670547     1.7650918322
   30      H      -6.8878464004    -0.9016322544     0.0351497540
   31      H      -4.7057487974    -1.4941045261     1.7012365746
   32      O       1.9878962531     1.0577282663     1.4032637564
   33      C       0.8213129312    -2.2360110041     0.8675021845
   34      C       5.3965374574    -0.5253443682     0.6871522379
   35      C       6.6204543054    -0.1084076927    -0.2175457648
   36      C       6.2755067493     1.3996642860    -0.5067636743
   37      C       4.9613566860     1.5851421446     0.3515095259
   38      O       5.1552821257     0.6827015654     1.5075628622
   39      H       4.3980581424    -1.0277698686    -1.2295829894
   40      H       3.7032461456     1.2046235992    -1.4804087390
   41      H       1.0639631335    -2.2983681817     1.9465264090
   42      H       5.5514834835    -1.4156835575     1.3276115905
   43      H       7.5633067147    -0.2061131179     0.3439258769
   44      H       6.6886037425    -0.7152790431    -1.1343089892
   45      H       7.0690255956     2.0747782335    -0.1491863027
   46      H       6.0989189496     1.5970138497    -1.5762550920
   47      H       4.7667781686     2.6199327316     0.6944834041
   48      H       0.9547289693    -3.2424895752     0.4229296811
   49      H      -0.2350883442    -1.9025055335     0.7407899567
   50      H      -1.5331964300    -3.4357728550    -2.6261531908
   51      H      -1.3830439209    -3.5811588347    -0.8295187438
   52      H      -0.5786368570    -2.2195301192    -1.6940687444
   53      H      -0.0310171354     0.9821665497    -2.1754560683
   54      H       0.3155565782     0.0233922163    -0.6871672848
   55      H      -0.2010689867     3.1038208851    -0.8047155754
   56      H       0.0461906892     2.1508473522     0.7203571056
 ----------------------------------------------------------------

    9   -1510.2759233755      6.31E-09 Convergence criterion met
 Total energy in the final basis set = -1510.27592338
 Final energy is   -1510.27592337551
 **  OPTIMIZATION CONVERGED  **

                    Orbital Energies (a.u.)
 --------------------------------------------------------------

 Alpha MOs
 -- Occupied --
-18.947 -18.936 -18.932 -18.921 -18.889 -18.888 -18.881 -18.877
-18.876 -18.869 -10.111 -10.108 -10.098 -10.096 -10.070 -10.067
-10.065 -10.061 -10.061 -10.060 -10.058 -10.042 -10.040 -10.039
-10.038 -10.037 -10.022 -10.021 -10.021 -10.019  -1.021  -1.010
 -1.009  -1.003  -0.972  -0.971  -0.947  -0.938  -0.935  -0.929
 -0.765  -0.762  -0.728  -0.722  -0.711  -0.706  -0.695  -0.668
 -0.649  -0.621  -0.599  -0.587  -0.547  -0.543  -0.539  -0.537
 -0.514  -0.510  -0.482  -0.479  -0.461  -0.459  -0.451  -0.447
 -0.439  -0.432  -0.431  -0.419  -0.413  -0.405  -0.399  -0.397
 -0.392  -0.384  -0.379  -0.370  -0.359  -0.356  -0.353  -0.350
 -0.346  -0.337  -0.331  -0.331  -0.330  -0.327  -0.320  -0.315
 -0.311  -0.309  -0.306  -0.303  -0.298  -0.294  -0.286  -0.276
 -0.270  -0.258  -0.254  -0.244  -0.237  -0.236  -0.233  -0.187
 -0.179  -0.174  -0.166  -0.159  -0.154  -0.151  -0.148  -0.146
 -0.143

          Ground-State Mulliken Net Atomic Charges

     Atom                 Charge (a.u.)
  ----------------------------------------
      1 O                    -0.215668
      2 C                     0.210119
      3 C                    -0.079306
      4 C                    -0.081251
      5 C                     0.212398
      6 O                    -0.180357
      7 C                    -0.054737
      8 C                    -0.058141
      9 O                    -0.171040
     10 C                     0.216946
     11 C                    -0.077080
     12 C                    -0.080696
     13 C                     0.228324
     14 O                    -0.220381
     15 O                    -0.176582
     16 O                    -0.169944
     17 O                    -0.214651
     18 C                    -0.129593
     19 C                     0.024420
     20 C                    -0.144385
     21 C                    -0.143647
     22 C                     0.025342
     23 O                    -0.188132
     24 H                     0.085785
     25 H                     0.085661
     26 H                     0.089324
     27 H                     0.079019
     28 H                     0.073420
     29 H                     0.078605
     30 H                     0.073285
     31 H                     0.086074
     32 O                    -0.199738
     33 C                    -0.145149
     34 C                     0.025688
     35 C                    -0.143133
     36 C                    -0.144640
     37 C                     0.026512
     38 O                    -0.186831
     39 H                     0.083113
     40 H                     0.085085
     41 H                     0.087425
     42 H                     0.090856
     43 H                     0.078693
     44 H                     0.073323
     45 H                     0.078544
     46 H                     0.073480
     47 H                     0.083975
     48 H                     0.078928
     49 H                     0.114619
     50 H                     0.090212
     51 H                     0.089456
     52 H                     0.087578
     53 H                     0.081281
     54 H                     0.104934
     55 H                     0.104675
     56 H                     0.097984
  ----------------------------------------
  Sum of atomic charges =     0.000000

                    Cartesian Multipole Moments
 -----------------------------------------------------------------
    Charge (ESU x 10^10)
                 0.0000
    Dipole Moment (Debye)
         X      -1.3303      Y      -0.7238      Z      -4.0760
       Tot       4.3482
    Quadrupole Moments (Debye-Ang)
        XX    -139.3166     XY       5.6271     YY    -162.2757
        XZ      -6.1611     YZ       1.3434     ZZ    -164.8947

 Total job time:  78.88s(wall), 3054.11s(cpu)
        *  Thank you very much for using Q-Chem.  Have a nice day.  *
