 Q-Chem 5.0, Q-Chem, Inc., Pleasanton, CA (2017)
 Q-Chem 5.0.1 for Intel X86 EM64T Linux

User input:
--------------------------------------------------------------
$molecule
0  1
O -3.94934 -3.66094 2.70899
C -3.26408 -4.56952 2.26188
C -3.36658 -6.02376 2.66595
C -3.74518 -6.32235 4.12587
C -4.15248 -5.13714 4.9729
O -3.28764 -4.9965 6.02061
C -3.20092 -3.65134 6.50256
C -4.59765 -3.06265 6.67204
O -4.50681 -1.73422 7.21046
C -3.89292 -1.63418 8.41556
C -3.63723 -0.20429 8.82872
C -3.8786 0.09282 10.31592
C -3.9853 -1.11684 11.22258
O -3.04577 -1.68382 11.76146
O -2.22198 -4.25506 1.44806
O -5.22671 -1.65826 11.33359
O -3.50109 -2.59175 9.07032
C -5.51838 -2.78942 12.06652
C -2.14812 0.18194 8.69961
C -2.02507 1.6973 8.54909
C -2.42092 2.14839 9.93986
C -2.53798 0.78895 10.64144
O -1.60514 -0.02595 9.97659
H -4.2127 0.46568 8.14873
H -4.74133 0.76389 10.52145
H -1.63162 -0.33207 7.85915
H -0.94337 1.9159 8.39749
H -2.60703 2.15362 7.71967
H -1.58695 2.75103 10.36305
H -3.37523 2.71493 10.00281
H -2.38454 0.90621 11.73748
O -5.35422 -4.91735 5.06743
C -1.92858 -2.97757 1.01881
C -4.54609 -6.70653 1.93734
C -4.30344 -8.21237 1.85351
C -4.50438 -8.60786 3.30001
C -4.94937 -7.26464 3.89188
O -5.62391 -6.63016 2.83544
H -2.43253 -6.5337 2.33601
H -2.93056 -6.87256 4.65082
H -1.71448 -2.32059 1.88886
H -4.73012 -6.29544 0.91997
H -5.13593 -8.64058 1.2499
H -3.33391 -8.52057 1.40648
H -5.32781 -9.35467 3.34829
H -3.60181 -9.00224 3.81498
H -5.53849 -7.43497 4.82016
H -2.7803 -2.56496 0.43675
H -1.0321 -3.00987 0.3663
H -6.60326 -3.00582 11.98514
H -5.26449 -2.62818 13.13607
H -4.94975 -3.65846 11.67175
H -5.10487 -2.86857 5.70931
H -5.22005 -3.69716 7.3433
H -2.65324 -3.02528 5.76349
H -2.55973 -3.70531 7.39568
$end

$opt
CONSTRAINT
tors           1           2           3           4     -33.434
tors           3           4           5           6    -118.446
tors           4           5           6           7    +153.648
tors           5           6           7           8     +46.831
tors           6           7           8           9    +177.510
tors           7           8           9          10     -59.262
tors           8           9          10          11    +171.098
tors           9          10          11          12    +139.968
tors          11          12          13          14     +87.151
ENDCONSTRAINT
$end

$rem
JOBTYPE                   OPT
METHOD                    B3LYP
DFT_D                     d3_op
BASIS                     STO-3G
GEOM_OPT_MAX_CYCLES       100
GEOM_OPT_TOL_GRADIENT     300
GEOM_OPT_TOL_DISPLACEMENT 1200
GEOM_OPT_TOL_ENERGY       100
SYMMETRY                  False
THRESH                    12
SCF_CONVERGENCE           8
MAX_SUB_FILE_NUM          128
MEM_STATIC                400
MEM_TOTAL                 4000
$end
--------------------------------------------------------------

   15   -1510.1185709058      9.56E-09 Convergence criterion met
 Total energy in the final basis set = -1510.11857091
   14   -1510.1928921697      1.74E-09 Convergence criterion met
 Total energy in the final basis set = -1510.19289217
   14   -1510.2328767267      1.84E-09 Convergence criterion met
 Total energy in the final basis set = -1510.23287673
   14   -1510.2537654092      2.91E-09 Convergence criterion met
 Total energy in the final basis set = -1510.25376541
   13   -1510.2624854553      7.72E-09 Convergence criterion met
 Total energy in the final basis set = -1510.26248546
   13   -1510.2664145450      4.05E-09 Convergence criterion met
 Total energy in the final basis set = -1510.26641455
   13   -1510.2685118646      5.00E-09 Convergence criterion met
 Total energy in the final basis set = -1510.26851186
   13   -1510.2693294751      3.72E-09 Convergence criterion met
   11   -1510.2697815893      3.93E-09 Convergence criterion met
 Total energy in the final basis set = -1510.26978159
   11   -1510.2697883526      3.37E-09 Convergence criterion met
 Total energy in the final basis set = -1510.26978835
   10   -1510.2697909870      8.04E-09 Convergence criterion met
 Total energy in the final basis set = -1510.26979099
    9   -1510.2697937651      5.71E-09 Convergence criterion met
 Total energy in the final basis set = -1510.26979377
    9   -1510.2697951935      5.00E-09 Convergence criterion met
 Total energy in the final basis set = -1510.26979519
    9   -1510.2697969318      5.62E-09 Convergence criterion met
 Total energy in the final basis set = -1510.26979693

             Standard Nuclear Orientation (Angstroms)
    I     Atom           X                Y                Z
 ----------------------------------------------------------------
    1      O      -3.2797806137     1.7872408693     0.8920602435
    2      C      -4.2137759492     1.6866994221     0.0684154251
    3      C      -4.8907507839     0.4048125701    -0.5251072398
    4      C      -3.9491022845    -0.8535447342    -0.7352902173
    5      C      -2.5877921856    -0.7817884969     0.0523801134
    6      O      -1.5321916320    -0.8001131694    -0.9251036485
    7      C      -0.2729021022    -0.1479705696    -0.4887546766
    8      C       0.2628727116    -0.5229792101     0.9491496848
    9      O       1.5570981523     0.1416575751     1.2560330079
   10      C       2.5830883580    -0.2061216948     0.3196673246
   11      C       3.8130595288     0.7176948524     0.6038086563
   12      C       5.2207996818    -0.0081846465     0.5001296107
   13      C       5.1364630534    -1.4572372485    -0.1020114877
   14      O       5.1703433318    -1.7897735520    -1.3049956180
   15      O      -4.8976242247     2.8162509030    -0.4942678194
   16      O       4.9538304936    -2.3769412724     0.9835825475
   17      O       2.4793932654    -1.1005569915    -0.5492486401
   18      C       4.7448283732    -3.7434409796     0.4525252981
   19      C       3.9866641071     1.8750034066    -0.4791736495
   20      C       4.8712244170     3.0077302300     0.1742186839
   21      C       6.2868230459     2.3198528504     0.1704508367
   22      C       5.9596518212     0.9436660698    -0.5321312554
   23      O       4.8827990360     1.2816005636    -1.4933912338
   24      H       3.6684583016     1.1506246107     1.6093968847
   25      H       5.7203500385    -0.0512176826     1.4837478359
   26      H       3.0429826804     2.2195106048    -0.9451093941
   27      H       4.8607677058     3.9114513138    -0.4558304584
   28      H       4.5278464891     3.2760143243     1.1859349570
   29      H       7.0148647949     2.8947058409    -0.4234823192
   30      H       6.6920122122     2.1785958117     1.1852396219
   31      H       6.8070859975     0.4671679443    -1.0617621961
   32      O      -2.4449957680    -0.7916094173     1.2926590352
   33      C      -4.3430077527     4.0727570971     0.0598790921
   34      C      -6.0429931647    -0.2171321017     0.3905601885
   35      C      -7.0310922748    -0.9866311807    -0.5696501458
   36      C      -6.1392265326    -2.2169754903    -0.9803725679
   37      C      -4.8572903582    -1.9861429316    -0.0841227822
   38      O      -5.3777003035    -1.3111458052     1.1277127853
   39      H      -5.3225522669     0.7102823651    -1.4948120562
   40      H      -3.7345461607    -1.0297689945    -1.8034846322
   41      H      -3.2617036637     4.1762544842    -0.1643247314
   42      H      -6.5173323898     0.4962485826     1.0919793178
   43      H      -7.9271666916    -1.3076769804    -0.0146795532
   44      H      -7.3456189353    -0.3762622982    -1.4310045573
   45      H      -6.6227270569    -3.1734532501    -0.7266542356
   46      H      -5.8922265539    -2.2204073315    -2.0540867223
   47      H      -4.3068183916    -2.9053561673     0.1949906985
   48      H      -4.4799463867     4.1307810637     1.1591501293
   49      H      -4.9016941300     4.8936109036    -0.4261807068
   50      H       4.5896970321    -4.3944245875     1.3325311929
   51      H       5.6243699547    -4.0998818999    -0.1217249078
   52      H       3.8534878672    -3.7871161580    -0.2064595201
   53      H      -0.4532215410    -0.1852707088     1.7224125047
   54      H       0.3710929428    -1.6274856135     1.0202500011
   55      H      -0.3998496404     0.9566810499    -0.5420102133
   56      H       0.4843362146    -0.4586961851    -1.2367192169
 ----------------------------------------------------------------

    9   -1510.2697974868      4.73E-09 Convergence criterion met
 Total energy in the final basis set = -1510.26979749
 Final energy is   -1510.26979748682
 **  OPTIMIZATION CONVERGED  **

                    Orbital Energies (a.u.)
 --------------------------------------------------------------

 Alpha MOs
 -- Occupied --
-18.936 -18.933 -18.926 -18.924 -18.891 -18.887 -18.881 -18.879
-18.876 -18.867 -10.101 -10.100 -10.100 -10.090 -10.067 -10.066
-10.063 -10.063 -10.061 -10.061 -10.057 -10.056 -10.040 -10.037
-10.036 -10.034 -10.022 -10.021 -10.020 -10.019  -1.015  -1.012
 -1.004  -1.000  -0.972  -0.969  -0.940  -0.937  -0.934  -0.926
 -0.764  -0.761  -0.726  -0.722  -0.712  -0.706  -0.693  -0.665
 -0.656  -0.619  -0.596  -0.582  -0.547  -0.545  -0.539  -0.536
 -0.515  -0.509  -0.472  -0.470  -0.460  -0.457  -0.450  -0.448
 -0.437  -0.434  -0.428  -0.415  -0.411  -0.408  -0.404  -0.392
 -0.385  -0.377  -0.371  -0.369  -0.364  -0.353  -0.352  -0.345
 -0.344  -0.341  -0.336  -0.331  -0.331  -0.327  -0.325  -0.313
 -0.308  -0.307  -0.305  -0.303  -0.298  -0.284  -0.276  -0.275
 -0.271  -0.265  -0.257  -0.247  -0.236  -0.235  -0.233  -0.182
 -0.181  -0.169  -0.168  -0.159  -0.153  -0.147  -0.145  -0.142
 -0.140

          Ground-State Mulliken Net Atomic Charges

     Atom                 Charge (a.u.)
  ----------------------------------------
      1 O                    -0.210161
      2 C                     0.205341
      3 C                    -0.080633
      4 C                    -0.079679
      5 C                     0.214219
      6 O                    -0.175685
      7 C                    -0.056672
      8 C                    -0.056763
      9 O                    -0.170739
     10 C                     0.207270
     11 C                    -0.079907
     12 C                    -0.079482
     13 C                     0.210842
     14 O                    -0.205223
     15 O                    -0.171367
     16 O                    -0.174309
     17 O                    -0.212345
     18 C                    -0.129303
     19 C                     0.025979
     20 C                    -0.142855
     21 C                    -0.144918
     22 C                     0.026257
     23 O                    -0.184522
     24 H                     0.087284
     25 H                     0.085207
     26 H                     0.081602
     27 H                     0.077823
     28 H                     0.074413
     29 H                     0.078005
     30 H                     0.073650
     31 H                     0.086156
     32 O                    -0.196382
     33 C                    -0.129218
     34 C                     0.027025
     35 C                    -0.142217
     36 C                    -0.145183
     37 C                     0.026213
     38 O                    -0.183886
     39 H                     0.086731
     40 H                     0.087024
     41 H                     0.088473
     42 H                     0.084383
     43 H                     0.078576
     44 H                     0.074696
     45 H                     0.078628
     46 H                     0.074354
     47 H                     0.084078
     48 H                     0.089387
     49 H                     0.090569
     50 H                     0.087723
     51 H                     0.086875
     52 H                     0.092881
     53 H                     0.112695
     54 H                     0.086549
     55 H                     0.079381
     56 H                     0.101160
  ----------------------------------------
  Sum of atomic charges =    -0.000000

                    Cartesian Multipole Moments
 -----------------------------------------------------------------
    Charge (ESU x 10^10)
                -0.0000
    Dipole Moment (Debye)
         X      -1.3629      Y       1.8189      Z      -0.0044
       Tot       2.2728
    Quadrupole Moments (Debye-Ang)
        XX    -142.2114     XY       1.2514     YY    -145.7854
        XZ      19.2796     YZ       0.5540     ZZ    -169.8925

 Total job time:  55.90s(wall), 2655.88s(cpu)
        *  Thank you very much for using Q-Chem.  Have a nice day.  *
