 Q-Chem 5.0, Q-Chem, Inc., Pleasanton, CA (2017)
 Q-Chem 5.0.1 for Intel X86 EM64T Linux

User input:
--------------------------------------------------------------
$molecule
0  1
O -3.2797806137 1.7872408693 0.8920602435
C -4.2137759492 1.6866994221 0.0684154251
C -4.8907507839 0.4048125701 -0.5251072398
C -3.9491022845 -0.8535447342 -0.7352902173
C -2.5877921856 -0.7817884969 0.0523801134
O -1.532191632 -0.8001131694 -0.9251036485
C -0.2729021022 -0.1479705696 -0.4887546766
C 0.2628727116 -0.5229792101 0.9491496848
O 1.5570981523 0.1416575751 1.2560330079
C 2.583088358 -0.2061216948 0.3196673246
C 3.8130595288 0.7176948524 0.6038086563
C 5.2207996818 -0.0081846465 0.5001296107
C 5.1364630534 -1.4572372485 -0.1020114877
O 5.1703433318 -1.789773552 -1.304995618
O -4.8976242247 2.816250903 -0.4942678194
O 4.9538304936 -2.3769412724 0.9835825475
O 2.4793932654 -1.1005569915 -0.5492486401
C 4.7448283732 -3.7434409796 0.4525252981
C 3.9866641071 1.8750034066 -0.4791736495
C 4.871224417 3.00773023 0.1742186839
C 6.2868230459 2.3198528504 0.1704508367
C 5.9596518212 0.9436660698 -0.5321312554
O 4.882799036 1.2816005636 -1.4933912338
H 3.6684583016 1.1506246107 1.6093968847
H 5.7203500385 -0.0512176826 1.4837478359
H 3.0429826804 2.2195106048 -0.9451093941
H 4.8607677058 3.9114513138 -0.4558304584
H 4.5278464891 3.2760143243 1.185934957
H 7.0148647949 2.8947058409 -0.4234823192
H 6.6920122122 2.1785958117 1.1852396219
H 6.8070859975 0.4671679443 -1.0617621961
O -2.444995768 -0.7916094173 1.2926590352
C -4.3430077527 4.0727570971 0.0598790921
C -6.0429931647 -0.2171321017 0.3905601885
C -7.0310922748 -0.9866311807 -0.5696501458
C -6.1392265326 -2.2169754903 -0.9803725679
C -4.8572903582 -1.9861429316 -0.0841227822
O -5.3777003035 -1.3111458052 1.1277127853
H -5.3225522669 0.7102823651 -1.4948120562
H -3.7345461607 -1.0297689945 -1.8034846322
H -3.2617036637 4.1762544842 -0.1643247314
H -6.5173323898 0.4962485826 1.0919793178
H -7.9271666916 -1.3076769804 -0.0146795532
H -7.3456189353 -0.3762622982 -1.4310045573
H -6.6227270569 -3.1734532501 -0.7266542356
H -5.8922265539 -2.2204073315 -2.0540867223
H -4.3068183916 -2.9053561673 0.1949906985
H -4.4799463867 4.1307810637 1.1591501293
H -4.90169413 4.8936109036 -0.4261807068
H 4.5896970321 -4.3944245875 1.3325311929
H 5.6243699547 -4.0998818999 -0.1217249078
H 3.8534878672 -3.787116158 -0.2064595201
H -0.453221541 -0.1852707088 1.7224125047
H 0.3710929428 -1.6274856135 1.0202500011
H -0.3998496404 0.9566810499 -0.5420102133
H 0.4843362146 -0.4586961851 -1.2367192169
$end

$rem
JOBTYPE                   OPT
METHOD                    B3LYP
DFT_D                     d3_op
BASIS                     STO-3G
GEOM_OPT_MAX_CYCLES       100
GEOM_OPT_TOL_GRADIENT     300
GEOM_OPT_TOL_DISPLACEMENT 1200
GEOM_OPT_TOL_ENERGY       100
SYMMETRY                  False
THRESH                    12
SCF_CONVERGENCE           8
MAX_SUB_FILE_NUM          128
MEM_STATIC                400
MEM_TOTAL                 4000
$end
--------------------------------------------------------------

   16   -1510.2698003164      3.72E-09 Convergence criterion met
 Total energy in the final basis set = -1510.26980032
   14   -1510.2735370634      3.33E-09 Convergence criterion met
 Total energy in the final basis set = -1510.27353706
   14   -1510.2772817509      1.99E-09 Convergence criterion met
 Total energy in the final basis set = -1510.27728175
   14   -1510.2799659293      2.20E-09 Convergence criterion met
 Total energy in the final basis set = -1510.27996593
   13   -1510.2820632833      3.55E-09 Convergence criterion met
 Total energy in the final basis set = -1510.28206328
   12   -1510.2839829566      8.22E-09 Convergence criterion met
 Total energy in the final basis set = -1510.28398296
   13   -1510.2854833591      7.52E-09 Convergence criterion met
 Total energy in the final basis set = -1510.28548336
   13   -1510.2865484995      3.31E-09 Convergence criterion met
   13   -1510.2888360853      4.08E-09 Convergence criterion met
 Total energy in the final basis set = -1510.28883609
   13   -1510.2890723899      3.30E-09 Convergence criterion met
 Total energy in the final basis set = -1510.28907239
   13   -1510.2890439158      3.16E-09 Convergence criterion met
 Total energy in the final basis set = -1510.28904392
   12   -1510.2891144606      5.48E-09 Convergence criterion met
 Total energy in the final basis set = -1510.28911446
   11   -1510.2891004005      9.20E-09 Convergence criterion met
 Total energy in the final basis set = -1510.28910040
   10   -1510.2891153794      9.15E-09 Convergence criterion met
 Total energy in the final basis set = -1510.28911538

             Standard Nuclear Orientation (Angstroms)
    I     Atom           X                Y                Z
 ----------------------------------------------------------------
    1      O      -3.1229081230     1.8928004226    -0.0801424296
    2      C      -4.0828585989     1.5339230131    -0.7995351488
    3      C      -4.7325667533     0.1118750810    -0.8692119660
    4      C      -3.9470516511    -0.9633640684    -0.0135734120
    5      C      -2.6315141958    -0.4252440141     0.6622818315
    6      O      -1.6037969610    -0.4070318100    -0.3434944875
    7      C      -0.3620349871     0.1895091043     0.1989718719
    8      C       0.4008805852    -0.7969808023     1.1639803865
    9      O       1.6994476019    -0.2161175414     1.5870781415
   10      C       2.6958059818    -0.4327667547     0.5857554225
   11      C       4.0105594524     0.2883420432     1.0291756309
   12      C       5.2389183879    -0.0485090806     0.0906899495
   13      C       4.9442444647    -1.1399090182    -1.0054530381
   14      O       4.8757825128    -0.9731107468    -2.2412132973
   15      O      -4.7845507352     2.4011651837    -1.6903148857
   16      O       4.9120513185    -2.4191397372    -0.3524690060
   17      O       2.5049143054    -1.0732022378    -0.4732863354
   18      C       4.5825540877    -3.4727447606    -1.3369263293
   19      C       3.8761562020     1.8557022348     0.7872155735
   20      C       5.0875708654     2.5810756444     1.4967084582
   21      C       6.2619341851     2.2683050963     0.4956816466
   22      C       5.5197099322     1.3671046221    -0.5649795632
   23      O       4.1754388175     1.9865691559    -0.6558605593
   24      H       4.2112649924     0.0545228195     2.0898191248
   25      H       6.0972669253    -0.3966940572     0.6928122966
   26      H       2.8746422320     2.2663983129     1.0218371958
   27      H       4.8971279542     3.6632776021     1.5747071212
   28      H       5.2707377719     2.1806437431     2.5065948400
   29      H       6.6414193838     3.1874214899     0.0215272460
   30      H       7.1037106851     1.7442180637     0.9760403080
   31      H       5.9851273027     1.3132045845    -1.5682189734
   32      O      -2.4471742411    -0.1794408312     1.8731915129
   33      C      -4.2102965652     3.7660525901    -1.6281724075
   34      C      -6.1463745201     0.0975767315    -0.1369103405
   35      C      -6.8865077035    -1.2477958274    -0.5094858752
   36      C      -6.1076619429    -2.2837298652     0.3837332226
   37      C      -5.0396793808    -1.3459543631     1.0701605890
   38      O      -5.7799966808    -0.0799784433     1.2849958835
   39      H      -4.8269195958    -0.1858798312    -1.9288903169
   40      H      -3.6752658519    -1.8307265235    -0.6415201044
   41      H      -3.1490968539     3.7750834598    -1.9509010091
   42      H      -6.7419492403     1.0205585217    -0.2791565207
   43      H      -7.9506998308    -1.1910409091    -0.2304727853
   44      H      -6.8152320547    -1.4740159547    -1.5854815142
   45      H      -6.7662563545    -2.7381680253     1.1408198367
   46      H      -5.6376465082    -3.0864638761    -0.2064164348
   47      H      -4.6187587494    -1.7103390910     2.0272168799
   48      H      -4.2713163790     4.1871584043    -0.6039965824
   49      H      -4.8134695184     4.3818293285    -2.3203434320
   50      H       4.6114183707    -4.4303434015    -0.7849578980
   51      H       5.3151143582    -3.5012707329    -2.1694852303
   52      H       3.5696345965    -3.3203542672    -1.7631779514
   53      H      -0.1917074281    -0.9383280355     2.0896820936
   54      H       0.5528746019    -1.7716898885     0.6536343931
   55      H      -0.5839557766     1.1361300913     0.7363643718
   56      H       0.2729676570     0.4053077699    -0.6841631759
 ----------------------------------------------------------------

    9   -1510.2891146533      3.37E-09 Convergence criterion met
 Total energy in the final basis set = -1510.28911465
 Final energy is   -1510.28911465332
 **  OPTIMIZATION CONVERGED  **

                    Orbital Energies (a.u.)
 --------------------------------------------------------------

 Alpha MOs
 -- Occupied --
-18.944 -18.938 -18.923 -18.916 -18.888 -18.886 -18.885 -18.883
-18.865 -18.858 -10.107 -10.103 -10.095 -10.088 -10.069 -10.066
-10.064 -10.062 -10.060 -10.058 -10.054 -10.052 -10.041 -10.038
-10.035 -10.031 -10.022 -10.020 -10.019 -10.018  -1.020  -1.017
 -1.002  -0.995  -0.971  -0.968  -0.944  -0.941  -0.929  -0.922
 -0.764  -0.761  -0.726  -0.722  -0.711  -0.705  -0.692  -0.667
 -0.652  -0.617  -0.596  -0.580  -0.545  -0.543  -0.538  -0.535
 -0.512  -0.507  -0.482  -0.473  -0.461  -0.454  -0.452  -0.449
 -0.435  -0.431  -0.428  -0.416  -0.412  -0.405  -0.401  -0.392
 -0.388  -0.381  -0.376  -0.364  -0.361  -0.355  -0.352  -0.343
 -0.342  -0.340  -0.336  -0.330  -0.330  -0.324  -0.322  -0.313
 -0.310  -0.305  -0.303  -0.302  -0.300  -0.279  -0.275  -0.274
 -0.269  -0.261  -0.258  -0.243  -0.241  -0.235  -0.232  -0.189
 -0.185  -0.164  -0.161  -0.160  -0.157  -0.146  -0.144  -0.143
 -0.139

          Ground-State Mulliken Net Atomic Charges

     Atom                 Charge (a.u.)
  ----------------------------------------
      1 O                    -0.207215
      2 C                     0.215498
      3 C                    -0.077844
      4 C                    -0.081394
      5 C                     0.216608
      6 O                    -0.175845
      7 C                    -0.051104
      8 C                    -0.055097
      9 O                    -0.170256
     10 C                     0.214072
     11 C                    -0.077770
     12 C                    -0.081476
     13 C                     0.216062
     14 O                    -0.216846
     15 O                    -0.168377
     16 O                    -0.177393
     17 O                    -0.208357
     18 C                    -0.128509
     19 C                     0.024743
     20 C                    -0.143810
     21 C                    -0.143784
     22 C                     0.024566
     23 O                    -0.190206
     24 H                     0.087784
     25 H                     0.083429
     26 H                     0.084315
     27 H                     0.078048
     28 H                     0.073909
     29 H                     0.077842
     30 H                     0.073259
     31 H                     0.089740
     32 O                    -0.217828
     33 C                    -0.128171
     34 C                     0.025184
     35 C                    -0.143745
     36 C                    -0.143981
     37 C                     0.024886
     38 O                    -0.189014
     39 H                     0.087879
     40 H                     0.084565
     41 H                     0.091171
     42 H                     0.085229
     43 H                     0.078341
     44 H                     0.073934
     45 H                     0.078290
     46 H                     0.073519
     47 H                     0.088786
     48 H                     0.091994
     49 H                     0.092474
     50 H                     0.085426
     51 H                     0.086224
     52 H                     0.091390
     53 H                     0.100056
     54 H                     0.092135
     55 H                     0.094903
     56 H                     0.091762
  ----------------------------------------
  Sum of atomic charges =    -0.000000

                    Cartesian Multipole Moments
 -----------------------------------------------------------------
    Charge (ESU x 10^10)
                -0.0000
    Dipole Moment (Debye)
         X      -0.8225      Y      -0.3439      Z      -0.0473
       Tot       0.8928
    Quadrupole Moments (Debye-Ang)
        XX    -142.5055     XY       3.0463     YY    -146.8583
        XZ      19.3194     YZ      -1.1089     ZZ    -167.8211

 Total job time:  64.98s(wall), 3087.14s(cpu)
        *  Thank you very much for using Q-Chem.  Have a nice day.  *
