 Q-Chem 5.0, Q-Chem, Inc., Pleasanton, CA (2017)
 Q-Chem 5.0.1 for Intel X86 EM64T Linux

User input:
--------------------------------------------------------------
$molecule
0  1
O 1.2734768219 -0.1052536156 1.7828081355
C 1.063942736 -0.090186491 0.5782855393
C 2.0895347257 -0.3903994967 -0.4925207058
C 3.2127157036 0.6392008051 -0.6980871848
C 3.2871992722 1.7659713122 0.3083541288
O 2.3915266373 2.7428445901 -0.0216565417
C 1.1167055389 2.2270410778 -0.4191725743
C 0.1042226913 2.4019855431 0.7079414133
O -1.1863147873 1.9361458315 0.2832134917
C -1.1728682688 0.9280446418 -0.6238171473
C -2.5578111208 0.4834158915 -1.0298750095
C -2.9295525977 -0.9448675707 -0.6054834885
C -2.0362969236 -1.5761331305 0.4434625793
O -2.1360145176 -1.4125707005 1.6508805743
O -0.1536845084 -0.3382561657 0.7284544304
O -1.2647763265 -2.6067099104 -0.0043856748
O -0.4174031719 0.6950044122 -1.5497723693
C -0.5351376007 -3.4499422831 0.8092227423
C -3.7502475902 1.2551103292 -0.3994593952
C -4.9847010143 1.1245259759 -1.2943203345
C -5.3407927302 -0.3314489627 -1.0768809365
C -4.3206680158 -0.702929915 0.0041523336
O -4.1276440295 0.4923250398 0.7200235776
H -2.6562373525 0.6241414128 -2.134262238
H -2.9479314987 -1.6308188805 -1.4820888852
H -3.5472474416 2.3321295772 -0.2160607127
H -5.7817017422 1.7549018256 -0.8380502732
H -4.8495451559 1.426306248 -2.3552892311
H -6.378886552 -0.383776584 -0.6799291371
H -5.2396639268 -0.9848696868 -1.970526908
H -4.676292738 -1.5759109145 0.5950074086
O 4.2102922725 1.9650139228 1.0839026326
C -0.8499920701 0.3184100182 2.0587540053
C 2.9120047017 -1.6429955742 -0.1300140444
C 3.5233784461 -2.2547545265 -1.3905197641
C 4.6008821863 -1.2396005284 -1.6969552198
C 4.434258845 -0.2905028903 -0.5050341643
O 4.0335015068 -1.1343768173 0.5444238661
H 1.5460526064 -0.6157093945 -1.4326848694
H 3.26534408 1.0690392247 -1.7245101572
H -0.3511648357 1.0101672796 2.7594044586
H 2.3233913748 -2.4116659141 0.4142638537
H 4.0114060551 -3.2120395749 -1.0985327919
H 2.802085498 -2.4463723101 -2.2141413318
H 5.5885821868 -1.7494880761 -1.640427198
H 4.5014657338 -0.7174152021 -2.6731162682
H 5.3816408417 0.2702410165 -0.3455091194
H -0.7787298198 -0.4044985734 2.9170066466
H -1.8850121634 0.7327952437 1.9786496699
H 0.0241612023 -4.1703559141 0.1775059628
H -1.2151848578 -4.0120286428 1.4833506238
H 0.1899784424 -2.8717986232 1.4188608474
H 0.5749679721 2.2705517451 1.6804849708
H -0.0376656876 3.500376378 0.8468242287
H 1.256392418 1.8895447831 -1.4590261145
H 0.6954546936 3.0535555077 -1.0385370516
$end

$rem
JOBTYPE                   OPT
METHOD                    B3LYP
DFT_D                     d3_op
BASIS                     STO-3G
GEOM_OPT_MAX_CYCLES       100
GEOM_OPT_TOL_GRADIENT     300
GEOM_OPT_TOL_DISPLACEMENT 1200
GEOM_OPT_TOL_ENERGY       100
SYMMETRY                  False
THRESH                    12
SCF_CONVERGENCE           8
MAX_SUB_FILE_NUM          128
MEM_STATIC                400
MEM_TOTAL                 4000
$end
--------------------------------------------------------------

   17   -1509.7496151276      4.85E-09 Convergence criterion met
 Total energy in the final basis set = -1509.74961513
   16   -1509.8383852631      3.18E-09 Convergence criterion met
 Total energy in the final basis set = -1509.83838526
   15   -1509.9458504489      4.92E-09 Convergence criterion met
 Total energy in the final basis set = -1509.94585045
   15   -1510.0218601559      2.39E-09 Convergence criterion met
 Total energy in the final basis set = -1510.02186016
   15   -1510.0828953389      1.60E-09 Convergence criterion met
 Total energy in the final basis set = -1510.08289534
   14   -1510.1291627109      7.33E-09 Convergence criterion met
 Total energy in the final basis set = -1510.12916271
   14   -1510.1658063988      9.58E-09 Convergence criterion met
 Total energy in the final basis set = -1510.16580640
   14   -1510.1944154820      5.50E-09 Convergence criterion met
   10   -1510.2861820940      7.33E-09 Convergence criterion met
 Total energy in the final basis set = -1510.28618209
   10   -1510.2861855352      7.29E-09 Convergence criterion met
 Total energy in the final basis set = -1510.28618554
    9   -1510.2861869572      4.55E-09 Convergence criterion met
 Total energy in the final basis set = -1510.28618696
    9   -1510.2861888069      2.81E-09 Convergence criterion met
 Total energy in the final basis set = -1510.28618881
    9   -1510.2861905092      3.40E-09 Convergence criterion met
 Total energy in the final basis set = -1510.28619051
    9   -1510.2861920465      3.52E-09 Convergence criterion met
 Total energy in the final basis set = -1510.28619205

             Standard Nuclear Orientation (Angstroms)
    I     Atom           X                Y                Z
 ----------------------------------------------------------------
    1      O       2.9200759020    -0.4520326703     2.6406142748
    2      C       2.1049312888    -0.5111168536     1.7007845550
    3      C       2.3537213540    -0.6527742735     0.1630930873
    4      C       3.0638786810     0.6075101341    -0.4938879501
    5      C       3.1881764878     1.8698662162     0.4409341320
    6      O       2.1591195676     2.8817901091     0.4491740070
    7      C       0.9286682722     2.6339271019    -0.3346157629
    8      C      -0.1844637826     1.9595689516     0.5564610697
    9      O      -1.4357060032     1.7140445075    -0.2078180612
   10      C      -1.3237707558     0.5496454539    -1.0189618201
   11      C      -2.7404222945     0.1667997003    -1.5795346162
   12      C      -3.4433694982    -0.9319114704    -0.6600717080
   13      C      -2.5332077651    -1.3774157395     0.5379423564
   14      O      -2.4029034062    -0.8236591979     1.6525136901
   15      O       0.6680305536    -0.4780807205     1.8972435343
   16      O      -1.8208369703    -2.5433035114     0.1230522016
   17      O      -0.2634342787    -0.0915795442    -1.2115526838
   18      C      -0.8251404767    -2.9274885837     1.1539541772
   19      C      -3.7966568917     1.3451768971    -1.4870418598
   20      C      -5.0622505028     0.9446514985    -2.3461712080
   21      C      -5.7479339097    -0.1163676402    -1.4080211647
   22      C      -4.7383303089    -0.1440457696    -0.1940131335
   23      O      -4.2803943947     1.2600135783    -0.0899015098
   24      H      -2.6161015560    -0.2091647331    -2.6108521443
   25      H      -3.6964236026    -1.8290042284    -1.2520410036
   26      H      -3.3826678186     2.3503181498    -1.6938609512
   27      H      -5.7099662287     1.8208944631    -2.5079345038
   28      H      -4.7813808444     0.5278737578    -3.3266529636
   29      H      -6.7426360470     0.2209149014    -1.0755235856
   30      H      -5.8492138391    -1.1041469774    -1.8852826951
   31      H      -5.1597849538    -0.4845114306     0.7714940763
   32      O       4.1768218300     2.0912567777     1.1743466427
   33      C       0.3078192520    -0.3075942439     3.3260787122
   34      C       3.4476317761    -1.7695749322    -0.1054269686
   35      C       3.5032681733    -2.0684142154    -1.6568133732
   36      C       4.3279879975    -0.8331408778    -2.1790218640
   37      C       4.4913227809    -0.0023673064    -0.8476267293
   38      O       4.7112616795    -1.0502288353     0.1737039152
   39      H       1.3790142388    -0.8273694774    -0.3354466623
   40      H       2.5373041540     0.8703329883    -1.4249927438
   41      H       0.6395440495     0.6793092029     3.7059221768
   42      H       3.3592337551    -2.6621625497     0.5437995253
   43      H       4.0261257426    -3.0185113302    -1.8499197390
   44      H       2.4949032793    -2.1231969613    -2.0981211169
   45      H       5.3146428841    -1.1414294021    -2.5603765990
   46      H       3.8036245579    -0.2693265862    -2.9669466817
   47      H       5.3198886951     0.7316540104    -0.8314149482
   48      H       0.7573332197    -1.1049263164     3.9502261162
   49      H      -0.7968447371    -0.3765898923     3.3477024082
   50      H      -0.2247431642    -3.7396301661     0.7056585166
   51      H      -1.3229849340    -3.3037702052     2.0707544947
   52      H      -0.1777907695    -2.0569741000     1.4155275476
   53      H       0.1792482210     1.0022407573     1.0071959834
   54      H      -0.4779983000     2.6571330626     1.3654087038
   55      H       1.0977621111     2.0205205824    -1.2409733883
   56      H       0.5814136749     3.6374807031    -0.6581744860
 ----------------------------------------------------------------

    8   -1510.2861932006      8.75E-09 Convergence criterion met
 Total energy in the final basis set = -1510.28619320
 Final energy is   -1510.28619320061
 **  OPTIMIZATION CONVERGED  **

                    Orbital Energies (a.u.)
 --------------------------------------------------------------

 Alpha MOs
 -- Occupied --
-18.957 -18.943 -18.933 -18.930 -18.900 -18.890 -18.889 -18.881
-18.874 -18.873 -10.111 -10.110 -10.099 -10.098 -10.074 -10.069
-10.063 -10.062 -10.062 -10.059 -10.058 -10.048 -10.043 -10.040
-10.038 -10.036 -10.023 -10.022 -10.021 -10.020  -1.026  -1.020
 -1.009  -1.002  -0.972  -0.971  -0.953  -0.945  -0.935  -0.933
 -0.767  -0.764  -0.728  -0.724  -0.714  -0.706  -0.698  -0.669
 -0.659  -0.614  -0.602  -0.589  -0.552  -0.550  -0.540  -0.540
 -0.515  -0.514  -0.486  -0.482  -0.471  -0.462  -0.457  -0.450
 -0.435  -0.434  -0.430  -0.426  -0.419  -0.410  -0.405  -0.399
 -0.395  -0.387  -0.376  -0.372  -0.369  -0.365  -0.357  -0.354
 -0.350  -0.340  -0.335  -0.333  -0.331  -0.329  -0.316  -0.313
 -0.310  -0.309  -0.309  -0.303  -0.295  -0.289  -0.285  -0.280
 -0.279  -0.273  -0.256  -0.250  -0.239  -0.236  -0.234  -0.199
 -0.188  -0.175  -0.167  -0.164  -0.161  -0.152  -0.146  -0.145
 -0.144

          Ground-State Mulliken Net Atomic Charges

     Atom                 Charge (a.u.)
  ----------------------------------------
      1 O                    -0.187081
      2 C                     0.209665
      3 C                    -0.089978
      4 C                    -0.084111
      5 C                     0.201419
      6 O                    -0.171379
      7 C                    -0.054481
      8 C                    -0.070099
      9 O                    -0.163431
     10 C                     0.210055
     11 C                    -0.077837
     12 C                    -0.078710
     13 C                     0.205146
     14 O                    -0.217412
     15 O                    -0.169389
     16 O                    -0.170619
     17 O                    -0.226397
     18 C                    -0.146100
     19 C                     0.026033
     20 C                    -0.144409
     21 C                    -0.143695
     22 C                     0.025250
     23 O                    -0.184270
     24 H                     0.084442
     25 H                     0.086253
     26 H                     0.087011
     27 H                     0.078276
     28 H                     0.072771
     29 H                     0.078349
     30 H                     0.073447
     31 H                     0.085775
     32 O                    -0.194241
     33 C                    -0.132999
     34 C                     0.025896
     35 C                    -0.144788
     36 C                    -0.143010
     37 C                     0.027045
     38 O                    -0.183154
     39 H                     0.109244
     40 H                     0.080973
     41 H                     0.092803
     42 H                     0.082230
     43 H                     0.077875
     44 H                     0.077452
     45 H                     0.078544
     46 H                     0.072653
     47 H                     0.089717
     48 H                     0.092405
     49 H                     0.110894
     50 H                     0.082385
     51 H                     0.078662
     52 H                     0.105062
     53 H                     0.108444
     54 H                     0.088288
     55 H                     0.084363
     56 H                     0.088762
  ----------------------------------------
  Sum of atomic charges =    -0.000000

                    Cartesian Multipole Moments
 -----------------------------------------------------------------
    Charge (ESU x 10^10)
                -0.0000
    Dipole Moment (Debye)
         X      -3.4893      Y      -1.8718      Z      -3.5204
       Tot       5.2983
    Quadrupole Moments (Debye-Ang)
        XX    -173.4582     XY      -2.2488     YY    -160.3755
        XZ      -6.8217     YZ      -6.9734     ZZ    -155.5526

 Total job time:  161.04s(wall), 7687.84s(cpu)
        *  Thank you very much for using Q-Chem.  Have a nice day.  *
