 Q-Chem 5.0, Q-Chem, Inc., Pleasanton, CA (2017)
 Q-Chem 5.0.1 for Intel X86 EM64T Linux

User input:
--------------------------------------------------------------
$molecule
0  1
O -3.94934 -3.66094 2.70899
C -3.26408 -4.56952 2.26188
C -3.36658 -6.02376 2.66595
C -2.19568 -6.94363 2.28296
C -0.97418 -6.27165 1.69605
O -0.68443 -6.81761 0.47811
C -0.88439 -5.90773 -0.60881
C -1.08309 -6.67854 -1.90978
O -2.27003 -6.21841 -2.57486
C -2.34697 -6.50839 -3.89741
C -3.73732 -6.32929 -4.45911
C -4.56833 -5.22458 -3.79029
C -3.79511 -4.24478 -2.93074
O -2.93332 -3.47626 -3.33231
O -2.27227 -4.1353 1.44834
O -4.27519 -4.07933 -1.67402
O -1.49893 -7.16362 -4.49133
C -4.05403 -2.94034 -0.93609
C -3.75373 -5.81772 -5.91924
C -5.07235 -6.21564 -6.58166
C -6.04064 -5.30439 -5.85327
C -5.05643 -4.46223 -5.03229
O -3.89351 -4.42188 -5.82266
H -4.22313 -7.33098 -4.44293
H -5.39543 -5.64876 -3.17804
H -2.89687 -6.18085 -6.52744
H -5.00699 -5.88703 -7.64403
H -5.32567 -7.29718 -6.5522
H -6.5725 -4.68281 -6.60721
H -6.77315 -5.81917 -5.19432
H -5.50246 -3.47727 -4.76933
O -0.25089 -5.46103 2.26043
C -1.74117 -2.85534 1.46868
C -3.31643 -6.17683 4.20333
C -3.95631 -7.5017 4.6179
C -2.89603 -8.48138 4.16218
C -1.82152 -7.5117 3.66042
O -1.95805 -6.39108 4.49807
H -4.35274 -6.38769 2.30089
H -2.5373 -7.74399 1.58647
H -1.26991 -2.66193 2.45569
H -3.80522 -5.33806 4.74587
H -3.99475 -7.51685 5.73084
H -4.9758 -7.68009 4.21337
H -2.52626 -9.03871 5.05157
H -3.21576 -9.19559 3.37276
H -0.82358 -8.0039 3.65802
H -2.52359 -2.08803 1.29319
H -0.96195 -2.77131 0.68359
H -4.51179 -3.05756 0.06588
H -4.52482 -2.06873 -1.43897
H -2.96638 -2.75581 -0.85306
H -0.15531 -6.57432 -2.51674
H -1.23976 -7.75854 -1.69199
H -0.11963 -5.10294 -0.66887
H -1.86612 -5.41683 -0.44889
$end

$opt
CONSTRAINT
tors           1           2           3           4    -164.211
tors           3           4           5           6    -124.051
tors           4           5           6           7    +112.472
tors           5           6           7           8    -157.869
tors           6           7           8           9    +128.817
tors           7           8           9          10    +160.639
tors           8           9          10          11    +165.097
tors           9          10          11          12     +31.502
tors          11          12          13          14     +63.680
ENDCONSTRAINT
$end

$rem
JOBTYPE                   OPT
METHOD                    B3LYP
DFT_D                     d3_op
BASIS                     STO-3G
GEOM_OPT_MAX_CYCLES       100
GEOM_OPT_TOL_GRADIENT     300
GEOM_OPT_TOL_DISPLACEMENT 1200
GEOM_OPT_TOL_ENERGY       100
SYMMETRY                  False
THRESH                    12
SCF_CONVERGENCE           8
MAX_SUB_FILE_NUM          128
MEM_STATIC                400
MEM_TOTAL                 4000
$end
--------------------------------------------------------------

   15   -1510.1157001831      7.69E-09 Convergence criterion met
 Total energy in the final basis set = -1510.11570018
   14   -1510.1872452821      2.18E-09 Convergence criterion met
 Total energy in the final basis set = -1510.18724528
   14   -1510.2005900831      4.46E-09 Convergence criterion met
 Total energy in the final basis set = -1510.20059008
   15   -1510.2416663880      2.76E-09 Convergence criterion met
 Total energy in the final basis set = -1510.24166639
   14   -1510.2491175545      3.15E-09 Convergence criterion met
 Total energy in the final basis set = -1510.24911755
   14   -1510.2535267797      2.65E-09 Convergence criterion met
 Total energy in the final basis set = -1510.25352678
   13   -1510.2561594598      2.56E-09 Convergence criterion met
 Total energy in the final basis set = -1510.25615946
   12   -1510.2570560766      8.21E-09 Convergence criterion met
   11   -1510.2598002450      4.21E-09 Convergence criterion met
 Total energy in the final basis set = -1510.25980024
   11   -1510.2598084194      3.26E-09 Convergence criterion met
 Total energy in the final basis set = -1510.25980842
    9   -1510.2598148387      6.73E-09 Convergence criterion met
 Total energy in the final basis set = -1510.25981484
   10   -1510.2598194424      7.70E-09 Convergence criterion met
 Total energy in the final basis set = -1510.25981944
   10   -1510.2598225638      8.76E-09 Convergence criterion met
 Total energy in the final basis set = -1510.25982256
    9   -1510.2598237091      9.01E-09 Convergence criterion met
 Total energy in the final basis set = -1510.25982371

             Standard Nuclear Orientation (Angstroms)
    I     Atom           X                Y                Z
 ----------------------------------------------------------------
    1      O       3.2444974103    -2.8939859855     0.1506843112
    2      C       2.9761982165    -1.6761475092     0.2332782055
    3      C       3.4557319445    -0.5707253583    -0.7725723391
    4      C       3.3573941192     0.9522530689    -0.3351798301
    5      C       2.8914350396     1.2166476182     1.1506846131
    6      O       1.7176595278     2.0866702730     1.1704236471
    7      C       0.5289657061     1.3492476928     1.6494719997
    8      C      -0.7305850845     2.1205847983     1.1138685909
    9      O      -1.6315709554     1.1582208025     0.4294795628
   10      C      -2.9478919927     1.7105229579     0.3356679912
   11      C      -3.8390573883     0.9210518249    -0.6919212179
   12      C      -3.5969039499    -0.6333516277    -0.8914478244
   13      C      -2.4204883008    -1.2844086567    -0.0865742929
   14      O      -2.2743040231    -1.4016727678     1.1484487387
   15      O       2.0145772631    -1.1444501678     1.1608274446
   16      O      -1.5057076278    -1.8038858094    -1.0629183158
   17      O      -3.3208023988     2.7327285592     0.9537836201
   18      C      -0.3572386328    -2.4595790980    -0.4024597861
   19      C      -5.3490194777     0.9342902290    -0.2031845940
   20      C      -6.2899959391     0.6045310356    -1.4262827217
   21      C      -6.0531601722    -0.9437086432    -1.5833245130
   22      C      -5.0101440011    -1.2085127705    -0.4272785231
   23      O      -5.4328783892    -0.2790124700     0.6427301325
   24      H      -3.7317312838     1.4428932121    -1.6622120218
   25      H      -3.4123040994    -0.8535843996    -1.9571844535
   26      H      -5.6120749308     1.8385169830     0.3800685447
   27      H      -7.3390361695     0.8303418887    -1.1775871546
   28      H      -6.0109918546     1.1711760973    -2.3289702287
   29      H      -6.9784868242    -1.5147141949    -1.4054964590
   30      H      -5.6537591554    -1.2159148981    -2.5734639277
   31      H      -4.9792792220    -2.2479311983    -0.0466172223
   32      O       3.5197192032     0.9006601881     2.1817662840
   33      C       1.7332396248    -2.1128528376     2.2486403822
   34      C       5.0103022166    -0.7109879155    -1.0749364936
   35      C       5.3059305046    -0.0203965840    -2.4627432870
   36      C       5.1835084558     1.4997588935    -2.0736315242
   37      C       4.8754126519     1.3972825791    -0.5277336975
   38      O       5.6341670084     0.2028839539    -0.0926368463
   39      H       2.8718557147    -0.7288143495    -1.6997805114
   40      H       2.6774348462     1.5097133514    -1.0021522310
   41      H       2.3761777623    -1.8831547816     3.1221674015
   42      H       5.3967242224    -1.7424409144    -0.9583780507
   43      H       6.3227162053    -0.2692051394    -2.8062544086
   44      H       4.5859776249    -0.3222521734    -3.2402492005
   45      H       6.1291301991     2.0388448686    -2.2434396737
   46      H       4.3792109386     2.0155322511    -2.6222506362
   47      H       5.1698529819     2.2804067308     0.0716301007
   48      H       1.9344737823    -3.1445826722     1.8985908320
   49      H       0.6698616542    -1.9988159369     2.5299020203
   50      H       0.1916360324    -2.9980613852    -1.1968453564
   51      H      -0.6873002254    -3.1803791316     0.3723476969
   52      H       0.3202409708    -1.7172344516     0.0704469175
   53      H      -1.2827314317     2.6359265853     1.9278655325
   54      H      -0.3905165307     2.8916286864     0.3862768713
   55      H       0.5088001667     1.2890263382     2.7611140739
   56      H       0.5246703404     0.3109268885     1.2510209432
 ----------------------------------------------------------------

    9   -1510.2598234228      8.19E-09 Convergence criterion met
 Total energy in the final basis set = -1510.25982342
 Final energy is   -1510.25982342280
 **  OPTIMIZATION CONVERGED  **

                    Orbital Energies (a.u.)
 --------------------------------------------------------------

 Alpha MOs
 -- Occupied --
-18.953 -18.936 -18.929 -18.895 -18.895 -18.894 -18.893 -18.888
-18.875 -18.869 -10.117 -10.105 -10.102 -10.096 -10.071 -10.069
-10.066 -10.065 -10.064 -10.060 -10.058 -10.057 -10.049 -10.040
-10.039 -10.036 -10.025 -10.024 -10.021 -10.020  -1.028  -1.015
 -1.005  -0.999  -0.976  -0.970  -0.953  -0.940  -0.932  -0.929
 -0.768  -0.763  -0.728  -0.724  -0.712  -0.707  -0.697  -0.671
 -0.662  -0.612  -0.601  -0.581  -0.551  -0.545  -0.543  -0.538
 -0.518  -0.512  -0.493  -0.480  -0.462  -0.460  -0.454  -0.447
 -0.439  -0.432  -0.429  -0.425  -0.421  -0.409  -0.403  -0.400
 -0.395  -0.387  -0.379  -0.371  -0.365  -0.362  -0.360  -0.350
 -0.350  -0.339  -0.336  -0.335  -0.330  -0.326  -0.325  -0.317
 -0.312  -0.311  -0.307  -0.303  -0.296  -0.296  -0.290  -0.278
 -0.271  -0.270  -0.252  -0.245  -0.240  -0.235  -0.234  -0.192
 -0.179  -0.175  -0.169  -0.159  -0.154  -0.152  -0.148  -0.147
 -0.144

          Ground-State Mulliken Net Atomic Charges

     Atom                 Charge (a.u.)
  ----------------------------------------
      1 O                    -0.206287
      2 C                     0.216506
      3 C                    -0.079429
      4 C                    -0.083062
      5 C                     0.224527
      6 O                    -0.201720
      7 C                    -0.050321
      8 C                    -0.050049
      9 O                    -0.172695
     10 C                     0.211621
     11 C                    -0.077935
     12 C                    -0.081136
     13 C                     0.213761
     14 O                    -0.215186
     15 O                    -0.173668
     16 O                    -0.173401
     17 O                    -0.213908
     18 C                    -0.137657
     19 C                     0.024243
     20 C                    -0.144359
     21 C                    -0.143747
     22 C                     0.025916
     23 O                    -0.187907
     24 H                     0.084153
     25 H                     0.085398
     26 H                     0.091266
     27 H                     0.078618
     28 H                     0.072955
     29 H                     0.077975
     30 H                     0.073262
     31 H                     0.082974
     32 O                    -0.187021
     33 C                    -0.134413
     34 C                     0.025367
     35 C                    -0.143353
     36 C                    -0.144280
     37 C                     0.025988
     38 O                    -0.186183
     39 H                     0.087376
     40 H                     0.085244
     41 H                     0.094732
     42 H                     0.090011
     43 H                     0.079719
     44 H                     0.073834
     45 H                     0.079465
     46 H                     0.074456
     47 H                     0.085745
     48 H                     0.102114
     49 H                     0.098065
     50 H                     0.085682
     51 H                     0.086032
     52 H                     0.088200
     53 H                     0.097897
     54 H                     0.088396
     55 H                     0.080272
     56 H                     0.095948
  ----------------------------------------
  Sum of atomic charges =     0.000000

                    Cartesian Multipole Moments
 -----------------------------------------------------------------
    Charge (ESU x 10^10)
                -0.0000
    Dipole Moment (Debye)
         X      -0.2903      Y      -0.5049      Z      -3.9992
       Tot       4.0414
    Quadrupole Moments (Debye-Ang)
        XX    -167.3019     XY       4.3602     YY    -161.7961
        XZ       1.1210     YZ      -5.0160     ZZ    -158.6054

 Total job time:  88.57s(wall), 4223.57s(cpu)
        *  Thank you very much for using Q-Chem.  Have a nice day.  *
