 Q-Chem 5.0, Q-Chem, Inc., Pleasanton, CA (2017)
 Q-Chem 5.0.1 for Intel X86 EM64T Linux

User input:
--------------------------------------------------------------
$molecule
0  1
O 3.2444974103 -2.8939859855 0.1506843112
C 2.9761982165 -1.6761475092 0.2332782055
C 3.4557319445 -0.5707253583 -0.7725723391
C 3.3573941192 0.9522530689 -0.3351798301
C 2.8914350396 1.2166476182 1.1506846131
O 1.7176595278 2.086670273 1.1704236471
C 0.5289657061 1.3492476928 1.6494719997
C -0.7305850845 2.1205847983 1.1138685909
O -1.6315709554 1.1582208025 0.4294795628
C -2.9478919927 1.7105229579 0.3356679912
C -3.8390573883 0.9210518249 -0.6919212179
C -3.5969039499 -0.6333516277 -0.8914478244
C -2.4204883008 -1.2844086567 -0.0865742929
O -2.2743040231 -1.4016727678 1.1484487387
O 2.0145772631 -1.1444501678 1.1608274446
O -1.5057076278 -1.8038858094 -1.0629183158
O -3.3208023988 2.7327285592 0.9537836201
C -0.3572386328 -2.459579098 -0.4024597861
C -5.3490194777 0.934290229 -0.203184594
C -6.2899959391 0.6045310356 -1.4262827217
C -6.0531601722 -0.9437086432 -1.583324513
C -5.0101440011 -1.2085127705 -0.4272785231
O -5.4328783892 -0.27901247 0.6427301325
H -3.7317312838 1.4428932121 -1.6622120218
H -3.4123040994 -0.8535843996 -1.9571844535
H -5.6120749308 1.838516983 0.3800685447
H -7.3390361695 0.8303418887 -1.1775871546
H -6.0109918546 1.1711760973 -2.3289702287
H -6.9784868242 -1.5147141949 -1.405496459
H -5.6537591554 -1.2159148981 -2.5734639277
H -4.979279222 -2.2479311983 -0.0466172223
O 3.5197192032 0.9006601881 2.181766284
C 1.7332396248 -2.1128528376 2.2486403822
C 5.0103022166 -0.7109879155 -1.0749364936
C 5.3059305046 -0.020396584 -2.462743287
C 5.1835084558 1.4997588935 -2.0736315242
C 4.8754126519 1.3972825791 -0.5277336975
O 5.6341670084 0.2028839539 -0.0926368463
H 2.8718557147 -0.7288143495 -1.6997805114
H 2.6774348462 1.5097133514 -1.002152231
H 2.3761777623 -1.8831547816 3.1221674015
H 5.3967242224 -1.7424409144 -0.9583780507
H 6.3227162053 -0.2692051394 -2.8062544086
H 4.5859776249 -0.3222521734 -3.2402492005
H 6.1291301991 2.0388448686 -2.2434396737
H 4.3792109386 2.0155322511 -2.6222506362
H 5.1698529819 2.2804067308 0.0716301007
H 1.9344737823 -3.1445826722 1.898590832
H 0.6698616542 -1.9988159369 2.5299020203
H 0.1916360324 -2.9980613852 -1.1968453564
H -0.6873002254 -3.1803791316 0.3723476969
H 0.3202409708 -1.7172344516 0.0704469175
H -1.2827314317 2.6359265853 1.9278655325
H -0.3905165307 2.8916286864 0.3862768713
H 0.5088001667 1.2890263382 2.7611140739
H 0.5246703404 0.3109268885 1.2510209432
$end

$rem
JOBTYPE                   OPT
METHOD                    B3LYP
DFT_D                     d3_op
BASIS                     STO-3G
GEOM_OPT_MAX_CYCLES       100
GEOM_OPT_TOL_GRADIENT     300
GEOM_OPT_TOL_DISPLACEMENT 1200
GEOM_OPT_TOL_ENERGY       100
SYMMETRY                  False
THRESH                    12
SCF_CONVERGENCE           8
MAX_SUB_FILE_NUM          128
MEM_STATIC                400
MEM_TOTAL                 4000
$end
--------------------------------------------------------------

   16   -1510.2600100299      6.09E-09 Convergence criterion met
 Total energy in the final basis set = -1510.26001003
   14   -1510.2612980801      6.33E-09 Convergence criterion met
 Total energy in the final basis set = -1510.26129808
   14   -1510.2647711100      6.31E-09 Convergence criterion met
 Total energy in the final basis set = -1510.26477111
   14   -1510.2686034623      7.87E-09 Convergence criterion met
 Total energy in the final basis set = -1510.26860346
   14   -1510.2712856950      5.19E-09 Convergence criterion met
 Total energy in the final basis set = -1510.27128570
   14   -1510.2762441423      8.44E-09 Convergence criterion met
 Total energy in the final basis set = -1510.27624414
   13   -1510.2797207530      6.58E-09 Convergence criterion met
 Total energy in the final basis set = -1510.27972075
   14   -1510.2824072012      3.77E-09 Convergence criterion met
   12   -1510.3002836868      7.16E-09 Convergence criterion met
 Total energy in the final basis set = -1510.30028369
   12   -1510.3002943810      4.59E-09 Convergence criterion met
 Total energy in the final basis set = -1510.30029438
   11   -1510.3003088899      6.81E-09 Convergence criterion met
 Total energy in the final basis set = -1510.30030889
   11   -1510.3003107004      3.33E-09 Convergence criterion met
 Total energy in the final basis set = -1510.30031070
   10   -1510.3003119795      5.48E-09 Convergence criterion met
 Total energy in the final basis set = -1510.30031198
    9   -1510.3003120375      9.60E-09 Convergence criterion met
 Total energy in the final basis set = -1510.30031204

             Standard Nuclear Orientation (Angstroms)
    I     Atom           X                Y                Z
 ----------------------------------------------------------------
    1      O       3.6157184012    -2.1340825973     2.0217934353
    2      C       3.1066423515    -1.6131692179     1.0085119548
    3      C       3.8235540869    -1.1230133156    -0.3020892812
    4      C       3.3695203013     0.3282919163    -0.7620373927
    5      C       2.3599738627     0.9898638118     0.2376214926
    6      O       1.0828430408     1.1475582742    -0.4159422721
    7      C       0.0850138503     1.6843441489     0.5451981450
    8      C      -0.8961193240     2.6445703903    -0.2114991085
    9      O      -2.0151099426     1.8824414348    -0.8203368845
   10      C      -3.1030713911     1.7850261475     0.1116678139
   11      C      -4.2173560129     0.8736148820    -0.5131976660
   12      C      -3.7282038618    -0.6002969083    -0.8473696751
   13      C      -2.2072692181    -0.8331523767    -0.5449908420
   14      O      -1.6474432447    -0.7830321829     0.5777267526
   15      O       1.7122610567    -1.3659259181     0.8214903227
   16      O      -1.5606234756    -1.1260022202    -1.7750382720
   17      O      -3.1355798093     2.3624577802     1.2191273701
   18      C      -0.0963227741    -1.2870655676    -1.5905597183
   19      C      -5.3534643276     0.5842529542     0.5508796808
   20      C      -6.6107701993    -0.0090935946    -0.1965786770
   21      C      -6.1184730236    -1.4728838367    -0.5046174689
   22      C      -4.6681914876    -1.4436174856     0.1200853276
   23      O      -4.8166417431    -0.5723314799     1.3064173476
   24      H      -4.6088941166     1.3700242206    -1.4201242802
   25      H      -3.9035553657    -0.8472599047    -1.9087652033
   26      H      -5.5499557409     1.4324682132     1.2349741736
   27      H      -7.4888471381    -0.0102063122     0.4685663672
   28      H      -6.8588232062     0.5578223584    -1.1082749508
   29      H      -6.7412488851    -2.2245782938     0.0059622841
   30      H      -6.1030137914    -1.6995291336    -1.5826510393
   31      H      -4.2595844110    -2.4302981675     0.4126473016
   32      O       2.5974125907     1.3914550612     1.3967201567
   33      C       0.9107084677    -1.7153718579     2.0155682402
   34      C       5.3756752973    -0.9069612019    -0.0827606128
   35      C       6.0703623319    -0.8327529622    -1.4976806522
   36      C       5.6168630332     0.5948133834    -1.9831615924
   37      C       4.7671351664     1.0844795838    -0.7437789468
   38      O       5.4610527113     0.4854704296     0.4183057554
   39      H       3.6227346432    -1.8629513545    -1.0991365645
   40      H       2.9139012435     0.3102968650    -1.7672554484
   41      H       1.1884385637    -1.0813492869     2.8816630147
   42      H       5.8266741826    -1.6092271974     0.6451730891
   43      H       7.1652819184    -0.8942859984    -1.3933239974
   44      H       5.7331874381    -1.6380982160    -2.1695652158
   45      H       6.4791903785     1.2606029308    -2.1460686323
   46      H       5.0180221859     0.5598476395    -2.9074709858
   47      H       4.6919641896     2.1827499723    -0.6252620338
   48      H       1.0407488067    -2.7804242698     2.2941280719
   49      H      -0.1387617969    -1.5142037340     1.7123897618
   50      H       0.3034455058    -1.5126662237    -2.5957888535
   51      H       0.1342515896    -2.1273681410    -0.9063307715
   52      H       0.3737485309    -0.3558246167    -1.1856058890
   53      H      -1.3035018437     3.3887543429     0.5060532125
   54      H      -0.3722721912     3.1605803111    -1.0416350544
   55      H       0.6248896904     2.2058457803     1.3638755135
   56      H      -0.4973953439     0.8291570560     0.9614609011
 ----------------------------------------------------------------

    9   -1510.3003128797      5.51E-09 Convergence criterion met
 Total energy in the final basis set = -1510.30031288
 Final energy is   -1510.30031287967
 **  OPTIMIZATION CONVERGED  **

                    Orbital Energies (a.u.)
 --------------------------------------------------------------

 Alpha MOs
 -- Occupied --
-18.937 -18.937 -18.935 -18.933 -18.889 -18.888 -18.882 -18.879
-18.877 -18.874 -10.104 -10.103 -10.103 -10.100 -10.073 -10.062
-10.062 -10.061 -10.059 -10.059 -10.050 -10.041 -10.041 -10.040
-10.039 -10.038 -10.022 -10.022 -10.021 -10.021  -1.019  -1.015
 -1.009  -1.006  -0.971  -0.970  -0.943  -0.938  -0.936  -0.936
 -0.766  -0.764  -0.729  -0.724  -0.712  -0.707  -0.698  -0.657
 -0.655  -0.618  -0.598  -0.581  -0.549  -0.545  -0.539  -0.537
 -0.512  -0.511  -0.486  -0.474  -0.459  -0.458  -0.455  -0.453
 -0.437  -0.432  -0.430  -0.418  -0.416  -0.409  -0.401  -0.398
 -0.391  -0.383  -0.372  -0.367  -0.364  -0.362  -0.355  -0.351
 -0.342  -0.341  -0.338  -0.332  -0.331  -0.327  -0.325  -0.312
 -0.311  -0.307  -0.306  -0.302  -0.293  -0.289  -0.285  -0.275
 -0.273  -0.263  -0.254  -0.245  -0.242  -0.235  -0.235  -0.186
 -0.178  -0.174  -0.171  -0.162  -0.159  -0.153  -0.151  -0.145
 -0.144

          Ground-State Mulliken Net Atomic Charges

     Atom                 Charge (a.u.)
  ----------------------------------------
      1 O                    -0.205715
      2 C                     0.213100
      3 C                    -0.078471
      4 C                    -0.078911
      5 C                     0.216532
      6 O                    -0.174879
      7 C                    -0.063936
      8 C                    -0.053484
      9 O                    -0.174663
     10 C                     0.210721
     11 C                    -0.078179
     12 C                    -0.079241
     13 C                     0.217581
     14 O                    -0.227645
     15 O                    -0.176296
     16 O                    -0.166278
     17 O                    -0.208405
     18 C                    -0.147869
     19 C                     0.024493
     20 C                    -0.144209
     21 C                    -0.143665
     22 C                     0.025489
     23 O                    -0.186538
     24 H                     0.085926
     25 H                     0.087131
     26 H                     0.090662
     27 H                     0.078740
     28 H                     0.073244
     29 H                     0.078377
     30 H                     0.073775
     31 H                     0.083075
     32 O                    -0.211736
     33 C                    -0.139965
     34 C                     0.023873
     35 C                    -0.143755
     36 C                    -0.144094
     37 C                     0.025819
     38 O                    -0.185528
     39 H                     0.083573
     40 H                     0.084713
     41 H                     0.089051
     42 H                     0.091145
     43 H                     0.078777
     44 H                     0.072780
     45 H                     0.078582
     46 H                     0.072938
     47 H                     0.083770
     48 H                     0.084509
     49 H                     0.112317
     50 H                     0.079156
     51 H                     0.083553
     52 H                     0.113839
     53 H                     0.099333
     54 H                     0.091893
     55 H                     0.100245
     56 H                     0.104750
  ----------------------------------------
  Sum of atomic charges =     0.000000

                    Cartesian Multipole Moments
 -----------------------------------------------------------------
    Charge (ESU x 10^10)
                -0.0000
    Dipole Moment (Debye)
         X      -1.4539      Y      -0.4415      Z      -4.6287
       Tot       4.8717
    Quadrupole Moments (Debye-Ang)
        XX    -153.3820     XY       0.0509     YY    -154.8765
        XZ      -6.4240     YZ      -0.8240     ZZ    -166.9868

 Total job time:  118.99s(wall), 5672.73s(cpu)
        *  Thank you very much for using Q-Chem.  Have a nice day.  *
