 Q-Chem 5.0, Q-Chem, Inc., Pleasanton, CA (2017)
 Q-Chem 5.0.1 for Intel X86 EM64T Linux

User input:
--------------------------------------------------------------
$molecule
0  1
O -3.94934 -3.66094 2.70899
C -3.26408 -4.56952 2.26188
C -3.36658 -6.02376 2.66595
C -2.10643 -6.68036 3.25311
C -0.93734 -5.76307 3.53576
O 0.20927 -6.49569 3.65395
C 1.37263 -5.68994 3.86987
C 2.43742 -6.01401 2.82712
O 2.63569 -4.8843 1.96265
C 2.21269 -3.69302 2.45364
C 2.45986 -2.5444 1.50482
C 3.58374 -2.77785 0.48468
C 4.04177 -4.2134 0.3231
O 4.315 -4.75503 -0.73829
O -2.44288 -4.30543 1.21147
O 4.85237 -4.6004 1.36215
O 2.37485 -3.3619 3.62147
C 5.65435 -5.72545 1.36845
C 1.26569 -2.27147 0.58134
C 1.31015 -0.82541 0.09379
C 2.50708 -0.88114 -0.83283
C 2.81195 -2.38499 -0.79687
O 1.55651 -2.98651 -0.59216
H 2.66049 -1.62117 2.10054
H 4.48199 -2.14184 0.648
H 0.29552 -2.49065 1.06796
H 0.39187 -0.6653 -0.51601
H 1.36135 -0.04829 0.8865
H 2.17873 -0.56169 -1.84673
H 3.38767 -0.2849 -0.50922
H 3.34555 -2.68024 -1.72683
O -0.97271 -4.53807 3.55953
C -2.37061 -3.0809 0.5804
C -4.34608 -6.24619 3.83956
C -4.82708 -7.69777 3.85656
C -3.58265 -8.40299 4.35254
C -2.65869 -7.20523 4.58627
O -3.53333 -6.1782 4.9862
H -3.73986 -6.56808 1.76943
H -1.73981 -7.48644 2.5771
H -2.06067 -2.29408 1.30075
H -5.22342 -5.56355 3.81868
H -5.61455 -7.782 4.63944
H -5.22988 -8.06601 2.88854
H -3.81913 -8.89322 5.32327
H -3.14361 -9.14467 3.6506
H -1.85335 -7.47147 5.30628
H -3.35915 -2.81673 0.14779
H -1.63079 -3.13819 -0.24391
H 6.17938 -5.79172 2.34316
H 6.41212 -5.66317 0.55861
H 5.03422 -6.63715 1.23226
H 3.42048 -6.21261 3.31148
H 2.16882 -6.91782 2.23914
H 1.80863 -6.25327 4.7241
H 1.19266 -4.85195 4.57103
$end

$opt
CONSTRAINT
tors           1           2           3           4    -120.906
tors           3           4           5           6    -161.580
tors           4           5           6           7    +177.652
tors           5           6           7           8    -125.841
tors           6           7           8           9    +113.131
tors           7           8           9          10     +19.836
tors           8           9          10          11    +179.477
tors           9          10          11          12     -23.390
tors          11          12          13          14    +139.176
ENDCONSTRAINT
$end

$rem
JOBTYPE                   OPT
METHOD                    B3LYP
DFT_D                     d3_op
BASIS                     STO-3G
GEOM_OPT_MAX_CYCLES       100
GEOM_OPT_TOL_GRADIENT     300
GEOM_OPT_TOL_DISPLACEMENT 1200
GEOM_OPT_TOL_ENERGY       100
SYMMETRY                  False
THRESH                    12
SCF_CONVERGENCE           8
MAX_SUB_FILE_NUM          128
MEM_STATIC                400
MEM_TOTAL                 4000
$end
--------------------------------------------------------------

   16   -1510.0571258120      3.88E-09 Convergence criterion met
 Total energy in the final basis set = -1510.05712581
   14   -1510.1368324306      6.75E-09 Convergence criterion met
 Total energy in the final basis set = -1510.13683243
   14   -1510.1833264402      3.42E-09 Convergence criterion met
 Total energy in the final basis set = -1510.18332644
   14   -1510.2132354291      9.45E-09 Convergence criterion met
 Total energy in the final basis set = -1510.21323543
   14   -1510.2311807745      9.45E-09 Convergence criterion met
 Total energy in the final basis set = -1510.23118077
   14   -1510.2440954813      2.85E-09 Convergence criterion met
 Total energy in the final basis set = -1510.24409548
   13   -1510.2532938098      8.87E-09 Convergence criterion met
 Total energy in the final basis set = -1510.25329381
   13   -1510.2602871593      4.12E-09 Convergence criterion met
   11   -1510.2757120392      2.71E-09 Convergence criterion met
 Total energy in the final basis set = -1510.27571204
   11   -1510.2757290542      2.90E-09 Convergence criterion met
 Total energy in the final basis set = -1510.27572905
    9   -1510.2757360498      6.73E-09 Convergence criterion met
 Total energy in the final basis set = -1510.27573605
    9   -1510.2757403488      6.68E-09 Convergence criterion met
 Total energy in the final basis set = -1510.27574035
    9   -1510.2757431756      5.94E-09 Convergence criterion met
 Total energy in the final basis set = -1510.27574318
    9   -1510.2757451402      6.32E-09 Convergence criterion met
 Total energy in the final basis set = -1510.27574514

             Standard Nuclear Orientation (Angstroms)
    I     Atom           X                Y                Z
 ----------------------------------------------------------------
    1      O      -3.7581156918     2.2316711967     1.4437925083
    2      C      -3.3106472803     1.6935472806     0.4095371465
    3      C      -4.0775130731     0.7231366223    -0.5628122840
    4      C      -3.4158556183    -0.7045846592    -0.7244974090
    5      C      -2.2180504674    -0.9241939842     0.2570570786
    6      O      -1.4277267551    -2.0122614684    -0.2296203538
    7      C      -0.2422266085    -2.2313042672     0.6332215135
    8      C       1.0541202178    -2.2000122871    -0.2651850555
    9      O       2.0364734328    -1.0930949586    -0.0989346573
   10      C       2.0356127712    -0.3359302066     1.1070916890
   11      C       3.1807668488     0.7361973851     0.9877326442
   12      C       4.3346095073     0.3735569201    -0.0286264999
   13      C       4.4508426259    -1.1415200636    -0.4201082925
   14      O       4.6833275840    -1.6104440040    -1.5540257531
   15      O      -2.0494027890     2.0170926448    -0.1971158740
   16      O       4.4514244530    -1.9228543629     0.7880586892
   17      O       1.2541063733    -0.4423914449     2.0811227682
   18      C       4.6705611334    -3.3490990247     0.4619560468
   19      C       2.5573643842     1.9989137107     0.2413112982
   20      C       3.5960355429     3.1910650004     0.2423702858
   21      C       4.5747461231     2.7520267626    -0.9109097257
   22      C       3.9979966437     1.3252759274    -1.2529267674
   23      O       2.5334874988     1.5376495486    -1.1654824239
   24      H       3.5500188066     0.9745346996     2.0002355099
   25      H       5.3088976663     0.6573489490     0.4124946849
   26      H       1.5385465931     2.2646697795     0.5814030147
   27      H       3.0923596254     4.1426843988     0.0103495356
   28      H       4.1042624921     3.2892614822     1.2149966131
   29      H       4.4898114914     3.4189790198    -1.7838414792
   30      H       5.6281966207     2.7174597352    -0.5907932217
   31      H       4.2760787266     0.9058945000    -2.2396392493
   32      O      -1.9742820094    -0.2781227390     1.3013553504
   33      C      -1.2718671931     2.8948519722     0.7032027389
   34      C      -5.5115173255     0.3408285262    -0.0074421080
   35      C      -6.3812771750    -0.1841088494    -1.2145174259
   36      C      -5.7189878566    -1.5890042735    -1.4709245253
   37      C      -4.6409073879    -1.6377942573    -0.3157124194
   38      O      -5.2681247157    -0.8842344842     0.7914860411
   39      H      -4.1480898625     1.2218706037    -1.5466404442
   40      H      -3.0767616175    -0.9024714573    -1.7565059157
   41      H      -0.8471187906     2.3134467777     1.5483282808
   42      H      -5.9735785460     1.1259530214     0.6220294847
   43      H      -7.4358388191    -0.2864396088    -0.9127716907
   44      H      -6.3262593814     0.4806369923    -2.0912310573
   45      H      -6.4458862586    -2.4083322801    -1.3542485572
   46      H      -5.2572190086    -1.6652928323    -2.4682065699
   47      H      -4.3500976099    -2.6539562891     0.0152777156
   48      H      -1.8966242801     3.7120462860     1.1167139012
   49      H      -0.4527057560     3.3193421239     0.0938039206
   50      H       4.5895728076    -3.8987944300     1.4178799267
   51      H       5.6752100055    -3.5193881054     0.0227575482
   52      H       3.9117981331    -3.7309882160    -0.2510443122
   53      H       1.6216183486    -3.1454149591    -0.1194765657
   54      H       0.7481015660    -2.1506592959    -1.3327246574
   55      H      -0.3362545156    -3.2347465799     1.0964042622
   56      H      -0.1598972917    -1.4557475098     1.4285303323
 ----------------------------------------------------------------

    9   -1510.2757456045      3.64E-09 Convergence criterion met
 Total energy in the final basis set = -1510.27574560
 Final energy is   -1510.27574560448
 **  OPTIMIZATION CONVERGED  **

                    Orbital Energies (a.u.)
 --------------------------------------------------------------

 Alpha MOs
 -- Occupied --
-18.947 -18.934 -18.927 -18.919 -18.888 -18.885 -18.884 -18.880
-18.869 -18.862 -10.113 -10.101 -10.099 -10.089 -10.080 -10.064
-10.062 -10.059 -10.059 -10.058 -10.054 -10.054 -10.040 -10.037
-10.037 -10.031 -10.023 -10.021 -10.019 -10.017  -1.020  -1.012
 -1.005  -0.997  -0.972  -0.968  -0.948  -0.938  -0.933  -0.924
 -0.766  -0.760  -0.731  -0.721  -0.711  -0.705  -0.697  -0.662
 -0.654  -0.621  -0.599  -0.584  -0.547  -0.543  -0.539  -0.535
 -0.514  -0.509  -0.483  -0.473  -0.464  -0.454  -0.451  -0.443
 -0.440  -0.432  -0.428  -0.415  -0.409  -0.408  -0.403  -0.398
 -0.396  -0.382  -0.373  -0.367  -0.366  -0.357  -0.353  -0.346
 -0.344  -0.339  -0.334  -0.331  -0.330  -0.326  -0.323  -0.312
 -0.310  -0.306  -0.303  -0.301  -0.300  -0.293  -0.276  -0.274
 -0.270  -0.255  -0.253  -0.243  -0.241  -0.236  -0.231  -0.186
 -0.176  -0.172  -0.163  -0.158  -0.156  -0.148  -0.145  -0.143
 -0.140

          Ground-State Mulliken Net Atomic Charges

     Atom                 Charge (a.u.)
  ----------------------------------------
      1 O                    -0.214813
      2 C                     0.216873
      3 C                    -0.080433
      4 C                    -0.077759
      5 C                     0.215941
      6 O                    -0.175598
      7 C                    -0.072535
      8 C                    -0.049181
      9 O                    -0.165770
     10 C                     0.223183
     11 C                    -0.076075
     12 C                    -0.078913
     13 C                     0.219074
     14 O                    -0.219502
     15 O                    -0.176676
     16 O                    -0.177481
     17 O                    -0.209904
     18 C                    -0.128584
     19 C                     0.023362
     20 C                    -0.144941
     21 C                    -0.142485
     22 C                     0.024355
     23 O                    -0.189625
     24 H                     0.088268
     25 H                     0.083226
     26 H                     0.082772
     27 H                     0.077886
     28 H                     0.074375
     29 H                     0.078219
     30 H                     0.073573
     31 H                     0.091134
     32 O                    -0.205911
     33 C                    -0.130470
     34 C                     0.024412
     35 C                    -0.143679
     36 C                    -0.144076
     37 C                     0.025390
     38 O                    -0.188833
     39 H                     0.083563
     40 H                     0.086924
     41 H                     0.089740
     42 H                     0.090879
     43 H                     0.077857
     44 H                     0.073101
     45 H                     0.077730
     46 H                     0.073459
     47 H                     0.082900
     48 H                     0.091461
     49 H                     0.084679
     50 H                     0.088763
     51 H                     0.087133
     52 H                     0.085049
     53 H                     0.083674
     54 H                     0.099785
     55 H                     0.082832
     56 H                     0.131668
  ----------------------------------------
  Sum of atomic charges =     0.000000

                    Cartesian Multipole Moments
 -----------------------------------------------------------------
    Charge (ESU x 10^10)
                -0.0000
    Dipole Moment (Debye)
         X       2.0239      Y      -0.6339      Z      -1.6609
       Tot       2.6938
    Quadrupole Moments (Debye-Ang)
        XX    -151.8632     XY       5.2563     YY    -146.9187
        XZ      18.6514     YZ      -1.8040     ZZ    -169.5033

 Total job time:  75.63s(wall), 3603.66s(cpu)
        *  Thank you very much for using Q-Chem.  Have a nice day.  *
