 Q-Chem 5.0, Q-Chem, Inc., Pleasanton, CA (2017)
 Q-Chem 5.0.1 for Intel X86 EM64T Linux

User input:
--------------------------------------------------------------
$molecule
0  1
O -3.7581156918 2.2316711967 1.4437925083
C -3.3106472803 1.6935472806 0.4095371465
C -4.0775130731 0.7231366223 -0.562812284
C -3.4158556183 -0.7045846592 -0.724497409
C -2.2180504674 -0.9241939842 0.2570570786
O -1.4277267551 -2.0122614684 -0.2296203538
C -0.2422266085 -2.2313042672 0.6332215135
C 1.0541202178 -2.2000122871 -0.2651850555
O 2.0364734328 -1.0930949586 -0.0989346573
C 2.0356127712 -0.3359302066 1.107091689
C 3.1807668488 0.7361973851 0.9877326442
C 4.3346095073 0.3735569201 -0.0286264999
C 4.4508426259 -1.1415200636 -0.4201082925
O 4.683327584 -1.610444004 -1.5540257531
O -2.049402789 2.0170926448 -0.197115874
O 4.451424453 -1.9228543629 0.7880586892
O 1.2541063733 -0.4423914449 2.0811227682
C 4.6705611334 -3.3490990247 0.4619560468
C 2.5573643842 1.9989137107 0.2413112982
C 3.5960355429 3.1910650004 0.2423702858
C 4.5747461231 2.7520267626 -0.9109097257
C 3.9979966437 1.3252759274 -1.2529267674
O 2.5334874988 1.5376495486 -1.1654824239
H 3.5500188066 0.9745346996 2.0002355099
H 5.3088976663 0.657348949 0.4124946849
H 1.5385465931 2.2646697795 0.5814030147
H 3.0923596254 4.1426843988 0.0103495356
H 4.1042624921 3.2892614822 1.2149966131
H 4.4898114914 3.4189790198 -1.7838414792
H 5.6281966207 2.7174597352 -0.5907932217
H 4.2760787266 0.9058945 -2.2396392493
O -1.9742820094 -0.278122739 1.3013553504
C -1.2718671931 2.8948519722 0.7032027389
C -5.5115173255 0.3408285262 -0.007442108
C -6.381277175 -0.1841088494 -1.2145174259
C -5.7189878566 -1.5890042735 -1.4709245253
C -4.6409073879 -1.6377942573 -0.3157124194
O -5.2681247157 -0.8842344842 0.7914860411
H -4.1480898625 1.2218706037 -1.5466404442
H -3.0767616175 -0.9024714573 -1.7565059157
H -0.8471187906 2.3134467777 1.5483282808
H -5.973578546 1.1259530214 0.6220294847
H -7.4358388191 -0.2864396088 -0.9127716907
H -6.3262593814 0.4806369923 -2.0912310573
H -6.4458862586 -2.4083322801 -1.3542485572
H -5.2572190086 -1.6652928323 -2.4682065699
H -4.3500976099 -2.6539562891 0.0152777156
H -1.8966242801 3.712046286 1.1167139012
H -0.452705756 3.3193421239 0.0938039206
H 4.5895728076 -3.89879443 1.4178799267
H 5.6752100055 -3.5193881054 0.0227575482
H 3.9117981331 -3.730988216 -0.2510443122
H 1.6216183486 -3.1454149591 -0.1194765657
H 0.748101566 -2.1506592959 -1.3327246574
H -0.3362545156 -3.2347465799 1.0964042622
H -0.1598972917 -1.4557475098 1.4285303323
$end

$rem
JOBTYPE                   OPT
METHOD                    B3LYP
DFT_D                     d3_op
BASIS                     STO-3G
GEOM_OPT_MAX_CYCLES       100
GEOM_OPT_TOL_GRADIENT     300
GEOM_OPT_TOL_DISPLACEMENT 1200
GEOM_OPT_TOL_ENERGY       100
SYMMETRY                  False
THRESH                    12
SCF_CONVERGENCE           8
MAX_SUB_FILE_NUM          128
MEM_STATIC                400
MEM_TOTAL                 4000
$end
--------------------------------------------------------------

   16   -1510.2757548963      5.90E-09 Convergence criterion met
 Total energy in the final basis set = -1510.27575490
   13   -1510.2769956942      6.47E-09 Convergence criterion met
 Total energy in the final basis set = -1510.27699569
   13   -1510.2780264200      3.13E-09 Convergence criterion met
 Total energy in the final basis set = -1510.27802642
   13   -1510.2794968060      3.33E-09 Convergence criterion met
 Total energy in the final basis set = -1510.27949681
   13   -1510.2807967640      3.66E-09 Convergence criterion met
 Total energy in the final basis set = -1510.28079676
   13   -1510.2826002984      5.33E-09 Convergence criterion met
 Total energy in the final basis set = -1510.28260030
   13   -1510.2846028036      8.47E-09 Convergence criterion met
 Total energy in the final basis set = -1510.28460280
   13   -1510.2861229877      5.56E-09 Convergence criterion met
   11   -1510.3033689739      3.45E-09 Convergence criterion met
 Total energy in the final basis set = -1510.30336897
   11   -1510.3033758808      3.83E-09 Convergence criterion met
 Total energy in the final basis set = -1510.30337588
   11   -1510.3033817323      3.26E-09 Convergence criterion met
 Total energy in the final basis set = -1510.30338173
   11   -1510.3033849819      2.93E-09 Convergence criterion met
 Total energy in the final basis set = -1510.30338498
   10   -1510.3033818878      8.49E-09 Convergence criterion met
 Total energy in the final basis set = -1510.30338189
   11   -1510.3033872132      7.26E-09 Convergence criterion met
 Total energy in the final basis set = -1510.30338721

             Standard Nuclear Orientation (Angstroms)
    I     Atom           X                Y                Z
 ----------------------------------------------------------------
    1      O      -3.3442801226     1.6564937776     2.1325568609
    2      C      -2.4891282552     1.6941975075     1.2252607685
    3      C      -2.6082341349     1.1595400985    -0.2472307422
    4      C      -1.9517470575    -0.2629536628    -0.4721669436
    5      C      -1.4024799263    -0.8747770198     0.8531118003
    6      O      -1.1634671880    -2.2745996566     0.6796792175
    7      C      -0.3379231795    -2.7678862093     1.8079102981
    8      C       1.1792584701    -2.6906713558     1.3871853226
    9      O       1.4231486404    -1.4792467424     0.5695941687
   10      C       1.9359840843    -0.3933973451     1.3618430794
   11      C       2.3095516993     0.7758409255     0.3877352368
   12      C       3.0399410592     0.2705199905    -0.9280838285
   13      C       3.3901391859    -1.2599343085    -0.9445387131
   14      O       3.0975217401    -2.0975334285    -1.8232695704
   15      O      -1.2332678092     2.4035809014     1.3325144071
   16      O       4.2137643001    -1.5401184154     0.1991436226
   17      O       2.0548229779    -0.4296812651     2.6040652233
   18      C       4.6236281681    -2.9618905220     0.1902468628
   19      C       1.0233256366     1.4641055543    -0.2446597439
   20      C       1.4756952362     2.7720259360    -1.0098359711
   21      C       2.0901862095     2.1809121319    -2.3330186099
   22      C       1.9739395784     0.6368716203    -2.0424496412
   23      O       0.6738638538     0.5305473731    -1.3395622159
   24      H       2.9260002199     1.4968446450     0.9521512921
   25      H       3.9806151285     0.8315486934    -1.0808102048
   26      H       0.1638025604     1.6366567544     0.4505303982
   27      H       0.6016681296     3.4099701203    -1.2168918939
   28      H       2.2055549907     3.3587434536    -0.4293084437
   29      H       1.4896723099     2.4543645245    -3.2154279065
   30      H       3.1317110693     2.4976508804    -2.5012228618
   31      H       1.9961938897    -0.0359532453    -2.9219600258
   32      O      -1.1733620132    -0.2570537819     1.9202604136
   33      C      -0.9842174630     2.7890493443     2.7377935291
   34      C      -4.1079625879     0.8639105705    -0.6722821889
   35      C      -4.1593194561     0.8113017558    -2.2498534031
   36      C      -3.4600148244    -0.5716205783    -2.5282972509
   37      C      -3.1767114589    -1.0756639562    -1.0581594719
   38      O      -4.3212595987    -0.5483459039    -0.2769476180
   39      H      -2.1396734085     1.9041510539    -0.9145441864
   40      H      -1.0805579184    -0.1894330408    -1.1617668503
   41      H      -0.8220365503     1.8895760059     3.3668827151
   42      H      -4.8600342255     1.5162013523    -0.1877673426
   43      H      -5.2036436351     0.8134290072    -2.6009550994
   44      H      -3.6280409664     1.6585361896    -2.7124226392
   45      H      -4.1337337345    -1.2676044920    -3.0528913736
   46      H      -2.5315222293    -0.4693205652    -3.1125492739
   47      H      -3.0899877613    -2.1729182371    -0.9379636276
   48      H      -1.8310611168     3.3705897878     3.1543213437
   49      H      -0.0689919080     3.4089924664     2.7322144053
   50      H       5.1631776794    -3.1324499226     1.1400429490
   51      H       5.2976956017    -3.1861305136    -0.6620660527
   52      H       3.7500566051    -3.6415025134     0.1310943516
   53      H       1.8248646457    -2.6876837895     2.2910613107
   54      H       1.4357409114    -3.5492336606     0.7345523799
   55      H      -0.6330453642    -3.8172024534     2.0073444284
   56      H      -0.5221515059    -2.1337020882     2.7006761771
 ----------------------------------------------------------------

   11   -1510.3033868273      4.26E-09 Convergence criterion met
 Total energy in the final basis set = -1510.30338683
 Final energy is   -1510.30338682729
 **  OPTIMIZATION CONVERGED  **

                    Orbital Energies (a.u.)
 --------------------------------------------------------------

 Alpha MOs
 -- Occupied --
-18.937 -18.937 -18.930 -18.927 -18.891 -18.881 -18.879 -18.879
-18.872 -18.867 -10.103 -10.101 -10.099 -10.094 -10.075 -10.071
-10.065 -10.059 -10.057 -10.052 -10.052 -10.045 -10.038 -10.036
-10.028 -10.023 -10.020 -10.016 -10.014 -10.013  -1.023  -1.013
 -1.005  -1.000  -0.971  -0.962  -0.944  -0.935  -0.935  -0.929
 -0.764  -0.756  -0.728  -0.718  -0.709  -0.702  -0.692  -0.663
 -0.655  -0.617  -0.596  -0.579  -0.547  -0.540  -0.536  -0.531
 -0.511  -0.506  -0.486  -0.474  -0.468  -0.458  -0.444  -0.440
 -0.430  -0.428  -0.425  -0.423  -0.412  -0.406  -0.404  -0.402
 -0.398  -0.378  -0.372  -0.366  -0.362  -0.358  -0.349  -0.347
 -0.345  -0.341  -0.335  -0.327  -0.326  -0.324  -0.319  -0.309
 -0.305  -0.305  -0.300  -0.296  -0.295  -0.291  -0.275  -0.274
 -0.271  -0.255  -0.253  -0.246  -0.244  -0.233  -0.221  -0.187
 -0.176  -0.174  -0.168  -0.159  -0.157  -0.151  -0.148  -0.144
 -0.137

          Ground-State Mulliken Net Atomic Charges

     Atom                 Charge (a.u.)
  ----------------------------------------
      1 O                    -0.211776
      2 C                     0.219130
      3 C                    -0.083432
      4 C                    -0.090368
      5 C                     0.219164
      6 O                    -0.167759
      7 C                    -0.054891
      8 C                    -0.051379
      9 O                    -0.171762
     10 C                     0.215820
     11 C                    -0.078760
     12 C                    -0.078759
     13 C                     0.216148
     14 O                    -0.216392
     15 O                    -0.177321
     16 O                    -0.177096
     17 O                    -0.208494
     18 C                    -0.128924
     19 C                     0.006335
     20 C                    -0.145070
     21 C                    -0.143986
     22 C                     0.026029
     23 O                    -0.197313
     24 H                     0.085849
     25 H                     0.083634
     26 H                     0.111844
     27 H                     0.076209
     28 H                     0.071973
     29 H                     0.075884
     30 H                     0.072886
     31 H                     0.090079
     32 O                    -0.218359
     33 C                    -0.128415
     34 C                     0.024351
     35 C                    -0.143351
     36 C                    -0.143727
     37 C                     0.023300
     38 O                    -0.191181
     39 H                     0.083301
     40 H                     0.117643
     41 H                     0.096683
     42 H                     0.085474
     43 H                     0.076382
     44 H                     0.072177
     45 H                     0.076360
     46 H                     0.075716
     47 H                     0.088042
     48 H                     0.090354
     49 H                     0.086528
     50 H                     0.089708
     51 H                     0.086874
     52 H                     0.086595
     53 H                     0.096987
     54 H                     0.088001
     55 H                     0.089887
     56 H                     0.103167
  ----------------------------------------
  Sum of atomic charges =    -0.000000

                    Cartesian Multipole Moments
 -----------------------------------------------------------------
    Charge (ESU x 10^10)
                -0.0000
    Dipole Moment (Debye)
         X       2.8122      Y       0.4351      Z      -1.4193
       Tot       3.1799
    Quadrupole Moments (Debye-Ang)
        XX    -163.0008     XY      -2.4466     YY    -146.9876
        XZ       6.6792     YZ      -7.1595     ZZ    -163.2470

 Total job time:  148.95s(wall), 7103.65s(cpu)
        *  Thank you very much for using Q-Chem.  Have a nice day.  *
