 Q-Chem 5.0, Q-Chem, Inc., Pleasanton, CA (2017)
 Q-Chem 5.0.1 for Intel X86 EM64T Linux

User input:
--------------------------------------------------------------
$molecule
0  1
O 3.6940296767 -3.0195780439 0.5352543423
C 3.3985312392 -1.9289641624 0.0005875275
C 4.383020572 -0.7300188643 -0.2559255408
C 3.7412730333 0.6696476056 -0.5838439767
C 2.35624929 0.8664276052 0.1341256137
O 1.7969655474 2.1209615636 -0.2860734249
C 0.3132788353 2.1353892197 -0.1751849886
C -0.3747838203 0.8420845768 -0.7793756102
O -1.6971184157 0.4843306088 -0.210246763
C -2.5831077447 1.5921100299 -0.0677230882
C -3.932843833 1.0792571477 0.5393733267
C -4.6471702114 -0.106277136 -0.2473091597
C -3.7709934697 -0.7814382995 -1.3618576606
O -2.9608071647 -1.7247804511 -1.2475725473
O 2.1872055825 -1.7177807434 -0.7433256574
O -4.0081166518 -0.0771370606 -2.5901595029
O -2.3287725874 2.7710255837 -0.4003072571
C -3.1493307619 -0.6301148293 -3.6621200574
C -3.7827793422 0.4308586723 1.9884951879
C -5.1893739822 0.5219357854 2.6999769266
C -5.9969024918 -0.5666817309 1.9003746772
C -4.8801404435 -1.1354831139 0.9376417948
O -3.6308360007 -1.0155889749 1.7244139509
H -4.6008343269 1.95807548 0.5776555797
H -5.5909261289 0.2416397669 -0.703704084
H -2.9261614947 0.8109119965 2.5781062496
H -5.0953592687 0.2521585542 3.7640551136
H -5.6342345256 1.5271020329 2.6271481871
H -6.3790398783 -1.3586392353 2.563772475
H -6.8421309832 -0.1383914818 1.3382609491
H -5.0255784827 -2.1818775442 0.6069500765
O 1.8525319367 0.1353446085 1.0140972236
C 1.2782085888 -2.8743366266 -0.5750896359
C 5.3892862674 -0.3587776016 0.9187086802
C 6.716517936 0.1425357377 0.2312709017
C 6.2147915087 1.4925012521 -0.4074382676
C 4.7598878278 1.6087243214 0.202184289
O 4.8475069774 0.8927548576 1.5005621331
H 4.9758874135 -1.0519512496 -1.1340497018
H 3.6617052703 0.8865809381 -1.6629089099
H 0.9222773592 -2.9569929237 0.4720555211
H 5.5061214136 -1.140432875 1.6943074932
H 7.4944704816 0.324243601 0.9901659083
H 7.1054113302 -0.5685844238 -0.5150215405
H 6.8351685305 2.3478699341 -0.0970439143
H 6.1929520505 1.4552717984 -1.5086429101
H 4.3924094495 2.6426550503 0.3520492498
H 1.7704439157 -3.826677268 -0.8590286532
H 0.4141718353 -2.6861657948 -1.2391403348
H -3.3348274212 -0.0070179806 -4.5563910423
H -3.4045268592 -1.6858013482 -3.8882426557
H -2.075091221 -0.5811851537 -3.3901984025
H -0.4697666272 0.9642893726 -1.8810911804
H 0.2551821744 -0.0462641928 -0.5754341741
H -0.0163994342 3.0446780549 -0.7122081767
H 0.0143442403 2.2283816689 0.8936490136
$end

$rem
JOBTYPE                   OPT
METHOD                    B3LYP
DFT_D                     d3_op
BASIS                     STO-3G
GEOM_OPT_MAX_CYCLES       100
GEOM_OPT_TOL_GRADIENT     300
GEOM_OPT_TOL_DISPLACEMENT 1200
GEOM_OPT_TOL_ENERGY       100
SYMMETRY                  False
THRESH                    12
SCF_CONVERGENCE           8
MAX_SUB_FILE_NUM          128
MEM_STATIC                400
MEM_TOTAL                 4000
$end
--------------------------------------------------------------

   16   -1510.2652757131      6.25E-09 Convergence criterion met
 Total energy in the final basis set = -1510.26527571
   13   -1510.2699326584      2.98E-09 Convergence criterion met
 Total energy in the final basis set = -1510.26993266
   13   -1510.2740071197      3.20E-09 Convergence criterion met
 Total energy in the final basis set = -1510.27400712
   13   -1510.2776482017      3.92E-09 Convergence criterion met
 Total energy in the final basis set = -1510.27764820
   13   -1510.2813800150      9.15E-09 Convergence criterion met
 Total energy in the final basis set = -1510.28138001
   14   -1510.2819589365      2.67E-09 Convergence criterion met
 Total energy in the final basis set = -1510.28195894
   14   -1510.2848213681      3.45E-09 Convergence criterion met
 Total energy in the final basis set = -1510.28482137
   14   -1510.2858639700      6.94E-09 Convergence criterion met
   12   -1510.3040585456      5.87E-09 Convergence criterion met
 Total energy in the final basis set = -1510.30405855
   11   -1510.3040657933      6.95E-09 Convergence criterion met
 Total energy in the final basis set = -1510.30406579
   11   -1510.3040881135      5.80E-09 Convergence criterion met
 Total energy in the final basis set = -1510.30408811
   11   -1510.3040969163      8.76E-09 Convergence criterion met
 Total energy in the final basis set = -1510.30409692
   11   -1510.3041021126      5.91E-09 Convergence criterion met
 Total energy in the final basis set = -1510.30410211
   10   -1510.3041024031      6.14E-09 Convergence criterion met
 Total energy in the final basis set = -1510.30410240

             Standard Nuclear Orientation (Angstroms)
    I     Atom           X                Y                Z
 ----------------------------------------------------------------
    1      O      -1.2929535176     1.8043225200     1.7210967368
    2      C      -1.8306908979     1.4312743573     0.6559675713
    3      C      -3.1888027673     0.6493970177     0.5239323498
    4      C      -3.1411734135    -0.6474454108    -0.3883133165
    5      C      -1.7262710077    -0.9962957278    -0.9621496596
    6      O      -1.7420014485    -0.7698673652    -2.3745590306
    7      C      -0.4827143275    -1.2296437620    -3.0048849853
    8      C       0.6914651437    -0.1814760393    -2.9301406573
    9      O       1.2520940296     0.0048308347    -1.5741779965
   10      C       2.0078404151    -1.1508815030    -1.1800918671
   11      C       2.5726783009    -0.9267122820     0.2609533065
   12      C       3.5836943821     0.2888905508     0.3970656012
   13      C       3.6279212707     1.1987926151    -0.8818375594
   14      O       3.3485757017     2.4128029022    -0.9658287233
   15      O      -1.3317318492     1.6960190920    -0.6519632910
   16      O       4.0599313349     0.3924803753    -1.9871617753
   17      O       2.1556498202    -2.1669840762    -1.8928901127
   18      C       4.0672968726     1.1976717776    -3.2291175998
   19      C       1.4516459738    -0.5105264302     1.3141630679
   20      C       1.9926492914    -0.8592869160     2.7511986475
   21      C       3.1103958004     0.2373192705     2.9297653805
   22      C       2.9398405572     1.0788596769     1.6041197814
   23      O       1.4913903614     0.9707816919     1.3152454019
   24      H       3.0596176728    -1.8709184681     0.5604019519
   25      H       4.6063250928    -0.0682455855     0.6174168416
   26      H       0.4364810001    -0.8781302238     1.0442058565
   27      H       1.1908257397    -0.7404919355     3.4973565132
   28      H       2.3864623884    -1.8863102073     2.8126647071
   29      H       2.9232087445     0.8670854448     3.8138430023
   30      H       4.1197209908    -0.1967977854     3.0114835176
   31      H       3.2414592840     2.1427118327     1.6604094183
   32      O      -0.7582151294    -1.4925545204    -0.3428784936
   33      C      -0.0708179040     2.4809013764    -0.5605031689
   34      C      -3.6217436222     0.0313579035     1.9160738656
   35      C      -5.1588061155    -0.3183902274     1.8548878484
   36      C      -5.1404563607    -1.5932083879     0.9308401966
   37      C      -3.5916870101    -1.7541265651     0.6615676639
   38      O      -2.9645673474    -1.2972954733     1.9211796117
   39      H      -3.9501133753     1.3538861187     0.1404123151
   40      H      -3.8423158383    -0.5653786720    -1.2369663765
   41      H       0.6674734331     1.9512003596     0.0949022876
   42      H      -3.2902735032     0.6295137898     2.7871829159
   43      H      -5.5415822535    -0.5555356282     2.8603658301
   44      H      -5.7577166617     0.5050159651     1.4341644461
   45      H      -5.5330826621    -2.4788943885     1.4551390481
   46      H      -5.7104228105    -1.4529278241    -0.0016814842
   47      H      -3.2594243065    -2.7810067608     0.4140321256
   48      H      -0.2727874745     3.4949424275    -0.1601986692
   49      H       0.3085476690     2.5656873873    -1.5937076570
   50      H       4.2536655921     0.4866495638    -4.0550148276
   51      H       4.8706386804     1.9628399382    -3.2133595655
   52      H       3.0975763858     1.7113788242    -3.3869380544
   53      H       1.4831593651    -0.5132687271    -3.6375605327
   54      H       0.3198608970     0.8172323653    -3.2353654059
   55      H      -0.7339233417    -1.3910994440    -4.0731267674
   56      H      -0.1366147582    -2.1861970399    -2.5596856551
 ----------------------------------------------------------------

    9   -1510.3041015926      2.90E-09 Convergence criterion met
 Total energy in the final basis set = -1510.30410159
 Final energy is   -1510.30410159263
 **  OPTIMIZATION CONVERGED  **

                    Orbital Energies (a.u.)
 --------------------------------------------------------------

 Alpha MOs
 -- Occupied --
-18.936 -18.934 -18.930 -18.915 -18.895 -18.883 -18.877 -18.875
-18.869 -18.859 -10.103 -10.100 -10.097 -10.084 -10.074 -10.071
-10.066 -10.058 -10.057 -10.052 -10.047 -10.037 -10.035 -10.031
-10.030 -10.021 -10.018 -10.016 -10.016 -10.013  -1.017  -1.012
 -1.003  -0.993  -0.971  -0.966  -0.938  -0.937  -0.932  -0.919
 -0.762  -0.758  -0.725  -0.719  -0.709  -0.701  -0.694  -0.664
 -0.638  -0.617  -0.594  -0.580  -0.545  -0.539  -0.533  -0.532
 -0.508  -0.505  -0.478  -0.474  -0.464  -0.452  -0.446  -0.440
 -0.429  -0.427  -0.424  -0.415  -0.414  -0.403  -0.399  -0.390
 -0.386  -0.374  -0.370  -0.367  -0.359  -0.355  -0.349  -0.346
 -0.342  -0.338  -0.335  -0.327  -0.326  -0.322  -0.318  -0.307
 -0.304  -0.301  -0.300  -0.294  -0.288  -0.286  -0.278  -0.271
 -0.266  -0.253  -0.251  -0.246  -0.242  -0.231  -0.222  -0.191
 -0.178  -0.165  -0.159  -0.156  -0.153  -0.147  -0.141  -0.141
 -0.136

          Ground-State Mulliken Net Atomic Charges

     Atom                 Charge (a.u.)
  ----------------------------------------
      1 O                    -0.210299
      2 C                     0.206769
      3 C                    -0.079222
      4 C                    -0.078925
      5 C                     0.220148
      6 O                    -0.167743
      7 C                    -0.052668
      8 C                    -0.048625
      9 O                    -0.172516
     10 C                     0.219582
     11 C                    -0.080278
     12 C                    -0.078897
     13 C                     0.213656
     14 O                    -0.210832
     15 O                    -0.177506
     16 O                    -0.172813
     17 O                    -0.217718
     18 C                    -0.128879
     19 C                     0.019214
     20 C                    -0.142131
     21 C                    -0.143987
     22 C                     0.027099
     23 O                    -0.183125
     24 H                     0.085625
     25 H                     0.085788
     26 H                     0.112735
     27 H                     0.082835
     28 H                     0.073849
     29 H                     0.079597
     30 H                     0.072364
     31 H                     0.090167
     32 O                    -0.220468
     33 C                    -0.147296
     34 C                     0.023271
     35 C                    -0.144001
     36 C                    -0.144176
     37 C                     0.025413
     38 O                    -0.188921
     39 H                     0.082872
     40 H                     0.085896
     41 H                     0.124783
     42 H                     0.091149
     43 H                     0.077395
     44 H                     0.072914
     45 H                     0.077347
     46 H                     0.072864
     47 H                     0.082094
     48 H                     0.073593
     49 H                     0.075030
     50 H                     0.089986
     51 H                     0.087673
     52 H                     0.089764
     53 H                     0.088741
     54 H                     0.091261
     55 H                     0.088950
     56 H                     0.100601
  ----------------------------------------
  Sum of atomic charges =     0.000000

                    Cartesian Multipole Moments
 -----------------------------------------------------------------
    Charge (ESU x 10^10)
                 0.0000
    Dipole Moment (Debye)
         X      -0.2764      Y      -0.3850      Z      -1.7865
       Tot       1.8483
    Quadrupole Moments (Debye-Ang)
        XX    -141.4070     XY       2.6980     YY    -166.0505
        XZ       1.7664     YZ      -2.9485     ZZ    -152.0783

 Total job time:  152.70s(wall), 7285.37s(cpu)
        *  Thank you very much for using Q-Chem.  Have a nice day.  *
