 Q-Chem 5.0, Q-Chem, Inc., Pleasanton, CA (2017)
 Q-Chem 5.0.1 for Intel X86 EM64T Linux

User input:
--------------------------------------------------------------
$molecule
0  1
O -3.94934 -3.66094 2.70899
C -3.26408 -4.56952 2.26188
C -3.36658 -6.02376 2.66595
C -2.19568 -6.94363 2.28296
C -0.97418 -6.27165 1.69605
O -0.05792 -7.21493 1.32711
C 0.82037 -6.77061 0.28767
C 0.02018 -6.1092 -0.82964
O 0.84526 -5.16449 -1.52937
C 2.09162 -5.59808 -1.84201
C 2.90857 -4.56112 -2.57547
C 2.25495 -4.00387 -3.84848
C 0.77358 -4.28176 -4.00665
O -0.12919 -3.58945 -3.55915
O -2.71869 -4.33821 1.03522
O 0.45951 -5.47378 -4.57812
O 2.4816 -6.75626 -1.79255
C -0.82814 -5.93542 -4.75398
C 3.14299 -3.27781 -1.7606
C 4.39 -2.56321 -2.27797
C 3.89256 -2.06749 -3.62068
C 2.42172 -2.49606 -3.54351
O 2.11491 -2.41452 -2.17205
H 3.89424 -5.02686 -2.80722
H 2.76641 -4.27426 -4.79852
H 3.22288 -3.46199 -0.66677
H 4.55995 -1.68494 -1.6145
H 5.31431 -3.1791 -2.31308
H 3.97942 -0.95834 -3.63775
H 4.39986 -2.50451 -4.50788
H 1.80265 -1.86282 -4.21739
O -0.57618 -5.17723 2.07993
C -2.67576 -3.11122 0.40404
C -3.33234 -6.17125 4.20234
C -3.96652 -7.49907 4.61537
C -2.89404 -8.47104 4.1747
C -1.82559 -7.49443 3.67445
O -1.97532 -6.37154 4.50609
H -4.34884 -6.38941 2.29189
H -2.50401 -7.7505 1.58083
H -2.10637 -2.38473 1.02211
H -3.8321 -5.33412 4.73746
H -4.01823 -7.51144 5.72782
H -4.97951 -7.68562 4.1984
H -2.52457 -9.01681 5.07147
H -3.20044 -9.1951 3.38901
H -0.82579 -7.98163 3.69258
H -3.70528 -2.73244 0.22887
H -2.16652 -3.22355 -0.57515
H -0.79417 -6.93127 -5.24128
H -1.39907 -5.23769 -5.40316
H -1.33746 -6.03512 -3.77181
H -0.37135 -6.8965 -1.50916
H -0.85254 -5.50276 -0.52911
H 1.44215 -7.63385 -0.01587
H 1.48141 -6.00144 0.74987
$end

$opt
CONSTRAINT
tors           1           2           3           4    -164.211
tors           3           4           5           6    -176.112
tors           4           5           6           7    +154.648
tors           5           6           7           8     -46.950
tors           6           7           8           9    +153.954
tors           7           8           9          10     +45.166
tors           8           9          10          11    -180.000
tors           9          10          11          12     -54.894
tors          11          12          13          14     +87.151
ENDCONSTRAINT
$end

$rem
JOBTYPE                   OPT
METHOD                    B3LYP
DFT_D                     d3_op
BASIS                     STO-3G
GEOM_OPT_MAX_CYCLES       100
GEOM_OPT_TOL_GRADIENT     300
GEOM_OPT_TOL_DISPLACEMENT 1200
GEOM_OPT_TOL_ENERGY       100
SYMMETRY                  False
THRESH                    12
SCF_CONVERGENCE           8
MAX_SUB_FILE_NUM          128
MEM_STATIC                400
MEM_TOTAL                 4000
$end
--------------------------------------------------------------

   14   -1510.1169231469      8.81E-09 Convergence criterion met
 Total energy in the final basis set = -1510.11692315
   13   -1510.1905380067      6.17E-09 Convergence criterion met
 Total energy in the final basis set = -1510.19053801
   14   -1510.2305237654      2.05E-09 Convergence criterion met
 Total energy in the final basis set = -1510.23052377
   13   -1510.2496455373      8.70E-09 Convergence criterion met
 Total energy in the final basis set = -1510.24964554
   14   -1510.2573607349      2.04E-09 Convergence criterion met
 Total energy in the final basis set = -1510.25736073
   13   -1510.2608519267      4.44E-09 Convergence criterion met
 Total energy in the final basis set = -1510.26085193
   13   -1510.2626884984      3.88E-09 Convergence criterion met
 Total energy in the final basis set = -1510.26268850
   13   -1510.2639248567      2.56E-09 Convergence criterion met
    9   -1510.2650984066      7.16E-09 Convergence criterion met
 Total energy in the final basis set = -1510.26509841
    9   -1510.2651008871      6.35E-09 Convergence criterion met
 Total energy in the final basis set = -1510.26510089
    9   -1510.2651035488      7.57E-09 Convergence criterion met
 Total energy in the final basis set = -1510.26510355
    9   -1510.2651065230      8.02E-09 Convergence criterion met
 Total energy in the final basis set = -1510.26510652
    9   -1510.2651109652      9.87E-09 Convergence criterion met
 Total energy in the final basis set = -1510.26511097
   10   -1510.2651122182      5.14E-09 Convergence criterion met
 Total energy in the final basis set = -1510.26511222

             Standard Nuclear Orientation (Angstroms)
    I     Atom           X                Y                Z
 ----------------------------------------------------------------
    1      O       3.6940296767    -3.0195780439     0.5352543423
    2      C       3.3985312392    -1.9289641624     0.0005875275
    3      C       4.3830205720    -0.7300188643    -0.2559255408
    4      C       3.7412730333     0.6696476056    -0.5838439767
    5      C       2.3562492900     0.8664276052     0.1341256137
    6      O       1.7969655474     2.1209615636    -0.2860734249
    7      C       0.3132788353     2.1353892197    -0.1751849886
    8      C      -0.3747838203     0.8420845768    -0.7793756102
    9      O      -1.6971184157     0.4843306088    -0.2102467630
   10      C      -2.5831077447     1.5921100299    -0.0677230882
   11      C      -3.9328438330     1.0792571477     0.5393733267
   12      C      -4.6471702114    -0.1062771360    -0.2473091597
   13      C      -3.7709934697    -0.7814382995    -1.3618576606
   14      O      -2.9608071647    -1.7247804511    -1.2475725473
   15      O       2.1872055825    -1.7177807434    -0.7433256574
   16      O      -4.0081166518    -0.0771370606    -2.5901595029
   17      O      -2.3287725874     2.7710255837    -0.4003072571
   18      C      -3.1493307619    -0.6301148293    -3.6621200574
   19      C      -3.7827793422     0.4308586723     1.9884951879
   20      C      -5.1893739822     0.5219357854     2.6999769266
   21      C      -5.9969024918    -0.5666817309     1.9003746772
   22      C      -4.8801404435    -1.1354831139     0.9376417948
   23      O      -3.6308360007    -1.0155889749     1.7244139509
   24      H      -4.6008343269     1.9580754800     0.5776555797
   25      H      -5.5909261289     0.2416397669    -0.7037040840
   26      H      -2.9261614947     0.8109119965     2.5781062496
   27      H      -5.0953592687     0.2521585542     3.7640551136
   28      H      -5.6342345256     1.5271020329     2.6271481871
   29      H      -6.3790398783    -1.3586392353     2.5637724750
   30      H      -6.8421309832    -0.1383914818     1.3382609491
   31      H      -5.0255784827    -2.1818775442     0.6069500765
   32      O       1.8525319367     0.1353446085     1.0140972236
   33      C       1.2782085888    -2.8743366266    -0.5750896359
   34      C       5.3892862674    -0.3587776016     0.9187086802
   35      C       6.7165179360     0.1425357377     0.2312709017
   36      C       6.2147915087     1.4925012521    -0.4074382676
   37      C       4.7598878278     1.6087243214     0.2021842890
   38      O       4.8475069774     0.8927548576     1.5005621331
   39      H       4.9758874135    -1.0519512496    -1.1340497018
   40      H       3.6617052703     0.8865809381    -1.6629089099
   41      H       0.9222773592    -2.9569929237     0.4720555211
   42      H       5.5061214136    -1.1404328750     1.6943074932
   43      H       7.4944704816     0.3242436010     0.9901659083
   44      H       7.1054113302    -0.5685844238    -0.5150215405
   45      H       6.8351685305     2.3478699341    -0.0970439143
   46      H       6.1929520505     1.4552717984    -1.5086429101
   47      H       4.3924094495     2.6426550503     0.3520492498
   48      H       1.7704439157    -3.8266772680    -0.8590286532
   49      H       0.4141718353    -2.6861657948    -1.2391403348
   50      H      -3.3348274212    -0.0070179806    -4.5563910423
   51      H      -3.4045268592    -1.6858013482    -3.8882426557
   52      H      -2.0750912210    -0.5811851537    -3.3901984025
   53      H      -0.4697666272     0.9642893726    -1.8810911804
   54      H       0.2551821744    -0.0462641928    -0.5754341741
   55      H      -0.0163994342     3.0446780549    -0.7122081767
   56      H       0.0143442403     2.2283816689     0.8936490136
 ----------------------------------------------------------------

    9   -1510.2651120386      3.39E-09 Convergence criterion met
 Total energy in the final basis set = -1510.26511204
 Final energy is   -1510.26511203856
 **  OPTIMIZATION CONVERGED  **

                    Orbital Energies (a.u.)
 --------------------------------------------------------------

 Alpha MOs
 -- Occupied --
-18.939 -18.932 -18.926 -18.925 -18.889 -18.885 -18.879 -18.876
-18.874 -18.868 -10.103 -10.100 -10.097 -10.096 -10.071 -10.070
-10.065 -10.061 -10.060 -10.059 -10.058 -10.056 -10.039 -10.038
-10.038 -10.035 -10.021 -10.021 -10.020 -10.019  -1.016  -1.010
 -1.007  -1.001  -0.970  -0.969  -0.941  -0.936  -0.933  -0.928
 -0.764  -0.762  -0.727  -0.722  -0.711  -0.704  -0.693  -0.664
 -0.655  -0.621  -0.598  -0.586  -0.547  -0.544  -0.538  -0.536
 -0.514  -0.508  -0.478  -0.474  -0.464  -0.458  -0.454  -0.444
 -0.436  -0.431  -0.430  -0.414  -0.407  -0.406  -0.402  -0.397
 -0.390  -0.374  -0.371  -0.366  -0.361  -0.356  -0.355  -0.348
 -0.346  -0.342  -0.333  -0.332  -0.329  -0.327  -0.320  -0.313
 -0.309  -0.307  -0.307  -0.304  -0.296  -0.290  -0.284  -0.275
 -0.272  -0.261  -0.254  -0.247  -0.236  -0.234  -0.231  -0.183
 -0.177  -0.173  -0.164  -0.157  -0.151  -0.148  -0.147  -0.143
 -0.143

          Ground-State Mulliken Net Atomic Charges

     Atom                 Charge (a.u.)
  ----------------------------------------
      1 O                    -0.214822
      2 C                     0.214499
      3 C                    -0.079894
      4 C                    -0.076662
      5 C                     0.218466
      6 O                    -0.179673
      7 C                    -0.051305
      8 C                    -0.055534
      9 O                    -0.164040
     10 C                     0.206362
     11 C                    -0.079400
     12 C                    -0.078188
     13 C                     0.210503
     14 O                    -0.206887
     15 O                    -0.176165
     16 O                    -0.173163
     17 O                    -0.215950
     18 C                    -0.128931
     19 C                     0.026633
     20 C                    -0.142950
     21 C                    -0.144931
     22 C                     0.026220
     23 O                    -0.182622
     24 H                     0.085060
     25 H                     0.085541
     26 H                     0.084403
     27 H                     0.078757
     28 H                     0.074017
     29 H                     0.078266
     30 H                     0.073192
     31 H                     0.085649
     32 O                    -0.201934
     33 C                    -0.129754
     34 C                     0.024763
     35 C                    -0.141282
     36 C                    -0.145493
     37 C                     0.023643
     38 O                    -0.190541
     39 H                     0.082926
     40 H                     0.086385
     41 H                     0.094266
     42 H                     0.090535
     43 H                     0.078366
     44 H                     0.073636
     45 H                     0.078543
     46 H                     0.073285
     47 H                     0.086069
     48 H                     0.088626
     49 H                     0.092352
     50 H                     0.089795
     51 H                     0.087418
     52 H                     0.086524
     53 H                     0.079174
     54 H                     0.106559
     55 H                     0.103464
     56 H                     0.086223
  ----------------------------------------
  Sum of atomic charges =     0.000000

                    Cartesian Multipole Moments
 -----------------------------------------------------------------
    Charge (ESU x 10^10)
                 0.0000
    Dipole Moment (Debye)
         X      -1.1627      Y       0.9663      Z      -2.7203
       Tot       3.1122
    Quadrupole Moments (Debye-Ang)
        XX    -138.1471     XY       4.3879     YY    -168.0285
        XZ     -10.4591     YZ       5.2623     ZZ    -155.4497

 Total job time:  70.06s(wall), 3333.57s(cpu)
        *  Thank you very much for using Q-Chem.  Have a nice day.  *
