 Q-Chem 5.0, Q-Chem, Inc., Pleasanton, CA (2017)
 Q-Chem 5.0.1 for Intel X86 EM64T Linux

User input:
--------------------------------------------------------------
$molecule
0  1
O -2.6769769366 1.7267881598 1.8873182908
C -3.4399962817 1.5175357328 0.9200188572
C -3.9839743068 0.1268634427 0.4239989115
C -3.7603975616 -0.1773633018 -1.1127155635
C -2.6758306813 0.7068535303 -1.8423592181
O -1.9276817178 1.524620756 -0.9064263296
C -0.5022424913 1.0974614002 -0.9387009848
C -0.0835184575 0.8568406886 0.5550206791
O 1.304103028 0.3701027294 0.630291839
C 2.2911231377 1.3880595047 0.5728376976
C 3.7024475999 0.7059399411 0.6646148845
C 3.754840252 -0.8843429881 0.6404886622
C 2.4145058956 -1.6354083885 0.269726045
O 2.0138320069 -1.9228907041 -0.879076963
O -4.1200600522 2.5378080292 0.1750356309
O 1.799726728 -2.1178081451 1.4764555917
O 2.0464306867 2.6099549316 0.4760134232
C 0.564480637 -2.8682761404 1.1441994778
C 4.6312554118 1.0694766753 -0.5756342308
C 6.1323647955 0.8977291647 -0.120647011
C 6.2405685473 -0.6706025062 -0.0406533477
C 4.8029166895 -1.1060753238 -0.5327589968
O 4.4285382022 -0.0576686571 -1.5117778031
H 4.1676399944 1.0772593724 1.596736311
H 4.1136111849 -1.2744523334 1.6093692069
H 4.3855282833 2.0348432904 -1.059557685
H 6.8126121108 1.3097337775 -0.8831551635
H 6.3380910603 1.3924889016 0.8419883891
H 7.0161103109 -1.0588051413 -0.7197187992
H 6.4517934485 -1.0303804053 0.9789755169
H 4.7471766313 -2.1055710683 -1.0055177826
O -2.4170586866 0.6499296977 -3.0617689103
C -3.5916500613 3.8665654181 0.5536225761
C -3.2525621936 -1.0963172983 1.1163297953
C -4.2095936419 -2.3440942527 1.0494050724
C -4.1589629877 -2.6714236783 -0.4895419536
C -3.0895728574 -1.6267645617 -0.9984252358
O -2.1759884529 -1.4547396554 0.1591495549
H -5.0667493575 0.1051227658 0.6476134772
H -4.6983334091 -0.1938361874 -1.6949155622
H -2.5249067178 3.9666817809 0.2657259248
H -2.8253292367 -0.8574424354 2.1100133891
H -3.8021567099 -3.1732876244 1.6498761589
H -5.2262166548 -2.1143515056 1.4058470674
H -3.8116064829 -3.7000064098 -0.6760278247
H -5.1329943924 -2.5324793454 -0.9853244072
H -2.5236238644 -1.9365974658 -1.8988991153
H -3.6841100318 4.0502064599 1.643636582
H -4.1949261097 4.6079747738 -0.0017388548
H 0.2225184819 -3.3189790127 2.0940783927
H 0.7669129741 -3.6718434533 0.4073300374
H -0.2437526956 -2.2176089894 0.7385927089
H -0.2231761695 1.7875530272 1.1448311399
H -0.7167080912 0.046870358 0.9677237345
H 0.1220246479 1.9027683454 -1.3850525442
H -0.3522868573 0.1677662484 -1.5248463349
$end

$rem
JOBTYPE                   OPT
METHOD                    B3LYP
DFT_D                     d3_op
BASIS                     STO-3G
GEOM_OPT_MAX_CYCLES       100
GEOM_OPT_TOL_GRADIENT     300
GEOM_OPT_TOL_DISPLACEMENT 1200
GEOM_OPT_TOL_ENERGY       100
SYMMETRY                  False
THRESH                    12
SCF_CONVERGENCE           8
MAX_SUB_FILE_NUM          128
MEM_STATIC                400
MEM_TOTAL                 4000
$end
--------------------------------------------------------------

   16   -1510.2723445935      4.98E-09 Convergence criterion met
 Total energy in the final basis set = -1510.27234459
   15   -1510.2742337204      2.52E-09 Convergence criterion met
 Total energy in the final basis set = -1510.27423372
   15   -1510.2764448897      2.49E-09 Convergence criterion met
 Total energy in the final basis set = -1510.27644489
   13   -1510.2787893770      8.12E-09 Convergence criterion met
 Total energy in the final basis set = -1510.27878938
   13   -1510.2806325037      4.78E-09 Convergence criterion met
 Total energy in the final basis set = -1510.28063250
   13   -1510.2814089450      6.39E-09 Convergence criterion met
 Total energy in the final basis set = -1510.28140894
   14   -1510.2824901812      5.80E-09 Convergence criterion met
 Total energy in the final basis set = -1510.28249018
   14   -1510.2833833041      2.99E-09 Convergence criterion met
   11   -1510.2907090080      8.03E-09 Convergence criterion met
 Total energy in the final basis set = -1510.29070901
   12   -1510.2907338949      4.05E-09 Convergence criterion met
 Total energy in the final basis set = -1510.29073389
   12   -1510.2907652503      6.12E-09 Convergence criterion met
 Total energy in the final basis set = -1510.29076525
   11   -1510.2907709631      6.01E-09 Convergence criterion met
 Total energy in the final basis set = -1510.29077096
   11   -1510.2907820139      7.60E-09 Convergence criterion met
 Total energy in the final basis set = -1510.29078201
   10   -1510.2907790975      9.44E-09 Convergence criterion met
 Total energy in the final basis set = -1510.29077910

             Standard Nuclear Orientation (Angstroms)
    I     Atom           X                Y                Z
 ----------------------------------------------------------------
    1      O      -3.0807522412     2.0880231028     1.3842116581
    2      C      -3.6675856066     1.4777548297     0.4647593415
    3      C      -4.0792646179    -0.0429387148     0.4505263836
    4      C      -3.3856506326    -0.9609346721    -0.6390031424
    5      C      -2.0786883045    -0.3745697768    -1.2946536334
    6      O      -1.8359444144     0.9678669580    -0.8709033460
    7      C      -0.4040551529     1.1657388912    -0.5428942091
    8      C      -0.1678227255     0.6359305712     0.9318098995
    9      O       1.1918003441     0.0622073746     1.0861950440
   10      C       2.1829133472     1.0885762859     0.9782586732
   11      C       3.5992079800     0.4136872854     0.9937100549
   12      C       3.7715644661    -0.7501182735    -0.0729933798
   13      C       2.4885250159    -1.0639933111    -0.9201255634
   14      O       1.8916977060    -0.3059676400    -1.7197067317
   15      O      -4.2605011546     2.0952427275    -0.6873798204
   16      O       2.1335394775    -2.4241885075    -0.6726111165
   17      O       1.9307404939     2.3093925521     0.8916616488
   18      C       0.9961857194    -2.8472324431    -1.5247423768
   19      C       4.7025755710     1.4412103660     0.5090643477
   20      C       6.1275141749     0.8739581001     0.8817325641
   21      C       6.2915472574    -0.2646503149    -0.1924356208
   22      C       4.9276843012    -0.1397917458    -0.9801558108
   23      O       4.6495553221     1.3134690908    -0.9666521951
   24      H       3.8002201541     0.0378111610     2.0139019146
   25      H       4.0877824119    -1.6889551893     0.4135135978
   26      H       4.4995766110     2.4865203557     0.8132746698
   27      H       6.8958808699     1.6544738207     0.7643335170
   28      H       6.1651014535     0.4934741462     1.9150247752
   29      H       7.1421243148    -0.0663891934    -0.8639892284
   30      H       6.4217581037    -1.2615166705     0.2580950298
   31      H       4.9454518407    -0.5206050625    -2.0197951533
   32      O      -1.2993015821    -1.0295770315    -2.0237436877
   33      C      -3.8498982295     3.5139785560    -0.7610411741
   34      C      -3.6446540253    -0.7726831930     1.7921054387
   35      C      -4.5951398385    -2.0080036935     2.0081981850
   36      C      -4.1038723365    -2.9629807214     0.8566124654
   37      C      -2.8764736448    -2.1558689405     0.2814267141
   38      O      -2.3467062494    -1.4144343919     1.4545218773
   39      H      -5.1757187948    -0.0859168279     0.3196697910
   40      H      -4.0886671518    -1.2984039386    -1.4216824808
   41      H      -2.7606396057     3.6046779992    -0.9514351992
   42      H      -3.5197994156    -0.0879414895     2.6535759439
   43      H      -4.4266762301    -2.4560126667     3.0006168157
   44      H      -5.6591873755    -1.7383655060     1.9157080858
   45      H      -3.7761730794    -3.9394209565     1.2470487160
   46      H      -4.8752849807    -3.1297014529     0.0878820923
   47      H      -2.0804674420    -2.7692025030    -0.1843569782
   48      H      -4.0923006463     4.0620503112     0.1723337364
   49      H      -4.4087226950     3.9540730367    -1.6074237161
   50      H       1.3541983876    -3.1136237405    -2.5403949488
   51      H       0.2121844649    -2.0617479467    -1.6240502079
   52      H       0.5741412811    -3.7492794987    -1.0446007176
   53      H      -0.3379414528     1.4550921593     1.6613417442
   54      H      -0.8873630600    -0.1977501101     1.1468156308
   55      H      -0.2090107730     2.2529278554    -0.6132680138
   56      H       0.2686448565     0.6141490159    -1.2458356498
 ----------------------------------------------------------------

    9   -1510.2907788949      6.04E-09 Convergence criterion met
 Total energy in the final basis set = -1510.29077889
 Final energy is   -1510.29077889490
 **  OPTIMIZATION CONVERGED  **

                    Orbital Energies (a.u.)
 --------------------------------------------------------------

 Alpha MOs
 -- Occupied --
-18.938 -18.928 -18.926 -18.921 -18.905 -18.895 -18.883 -18.871
-18.866 -18.859 -10.115 -10.096 -10.095 -10.094 -10.071 -10.065
-10.056 -10.056 -10.056 -10.054 -10.048 -10.047 -10.044 -10.038
-10.034 -10.032 -10.029 -10.027 -10.017 -10.016  -1.022  -1.008
 -1.001  -0.999  -0.983  -0.966  -0.948  -0.932  -0.928  -0.927
 -0.770  -0.759  -0.731  -0.720  -0.712  -0.703  -0.688  -0.657
 -0.654  -0.614  -0.598  -0.583  -0.549  -0.544  -0.539  -0.533
 -0.513  -0.506  -0.487  -0.469  -0.464  -0.456  -0.449  -0.448
 -0.438  -0.431  -0.426  -0.415  -0.409  -0.403  -0.402  -0.400
 -0.387  -0.376  -0.369  -0.367  -0.360  -0.359  -0.352  -0.349
 -0.342  -0.340  -0.335  -0.331  -0.330  -0.326  -0.319  -0.317
 -0.313  -0.307  -0.304  -0.300  -0.293  -0.290  -0.282  -0.277
 -0.267  -0.255  -0.247  -0.246  -0.242  -0.231  -0.230  -0.187
 -0.171  -0.167  -0.165  -0.161  -0.158  -0.152  -0.145  -0.143
 -0.140

          Ground-State Mulliken Net Atomic Charges

     Atom                 Charge (a.u.)
  ----------------------------------------
      1 O                    -0.227948
      2 C                     0.221980
      3 C                    -0.082472
      4 C                    -0.077838
      5 C                     0.224219
      6 O                    -0.173708
      7 C                    -0.063248
      8 C                    -0.066914
      9 O                    -0.175084
     10 C                     0.210907
     11 C                    -0.078735
     12 C                    -0.079498
     13 C                     0.217059
     14 O                    -0.222022
     15 O                    -0.175537
     16 O                    -0.168590
     17 O                    -0.211890
     18 C                    -0.142763
     19 C                     0.024031
     20 C                    -0.144278
     21 C                    -0.143743
     22 C                     0.025412
     23 O                    -0.187406
     24 H                     0.084869
     25 H                     0.086166
     26 H                     0.090393
     27 H                     0.077852
     28 H                     0.072878
     29 H                     0.077496
     30 H                     0.073327
     31 H                     0.082913
     32 O                    -0.203683
     33 C                    -0.127803
     34 C                     0.023500
     35 C                    -0.142235
     36 C                    -0.144184
     37 C                     0.024371
     38 O                    -0.190620
     39 H                     0.084870
     40 H                     0.089132
     41 H                     0.088148
     42 H                     0.093511
     43 H                     0.080214
     44 H                     0.076249
     45 H                     0.080744
     46 H                     0.076627
     47 H                     0.088206
     48 H                     0.087909
     49 H                     0.087571
     50 H                     0.080267
     51 H                     0.110811
     52 H                     0.081254
     53 H                     0.089808
     54 H                     0.106560
     55 H                     0.095596
     56 H                     0.115351
  ----------------------------------------
  Sum of atomic charges =     0.000000

                    Cartesian Multipole Moments
 -----------------------------------------------------------------
    Charge (ESU x 10^10)
                 0.0000
    Dipole Moment (Debye)
         X      -1.5744      Y      -2.6070      Z       1.0410
       Tot       3.2185
    Quadrupole Moments (Debye-Ang)
        XX    -137.2210     XY      -0.2361     YY    -158.0270
        XZ       4.1109     YZ      -0.0313     ZZ    -163.4405

 Total job time:  152.47s(wall), 7277.74s(cpu)
        *  Thank you very much for using Q-Chem.  Have a nice day.  *
