 Q-Chem 5.0, Q-Chem, Inc., Pleasanton, CA (2017)
 Q-Chem 5.0.1 for Intel X86 EM64T Linux

User input:
--------------------------------------------------------------
$molecule
0  1
O -3.94934 -3.66094 2.70899
C -3.26408 -4.56952 2.26188
C -3.36658 -6.02376 2.66595
C -2.07002 -6.72431 3.10415
C -0.84831 -5.84607 3.25964
O -1.20441 -4.53208 3.14986
C -0.97948 -3.78549 4.35039
C -2.23803 -3.01357 4.7329
O -2.02575 -2.31276 5.96849
C -1.38937 -1.12007 5.86049
C -1.19641 -0.43349 7.19167
C -1.60994 -1.26489 8.41479
C -1.80872 -2.74715 8.16966
O -0.93205 -3.59773 8.21998
O -2.5674 -4.33486 1.11141
O -3.10506 -3.16508 8.19501
O -1.03676 -0.61464 4.80183
C -3.49739 -4.48661 8.15804
C 0.27951 -0.14491 7.53214
C 0.35334 1.01705 8.52125
C -0.20281 0.36077 9.76959
C -0.34564 -1.08522 9.2779
O 0.68445 -1.22939 8.32969
H -1.74754 0.53204 7.12986
H -2.52735 -0.86749 8.90378
H 0.90663 0.06732 6.63889
H 1.43428 1.23125 8.68364
H -0.15961 1.95207 8.20904
H 0.56076 0.43675 10.57518
H -1.17644 0.7628 10.12469
H -0.3217 -1.79298 10.1361
O 0.23152 -6.23002 3.68808
C -2.44611 -3.09735 0.51391
C -4.22804 -6.25183 3.92694
C -4.74488 -7.69065 3.95706
C -3.47507 -8.44091 4.30326
C -2.49914 -7.27337 4.47343
O -3.30273 -6.2413 4.98613
H -3.83919 -6.54479 1.80309
H -1.77939 -7.52894 2.39314
H -1.95194 -2.38512 1.20905
H -5.0809 -5.54414 4.01347
H -5.44882 -7.7759 4.81576
H -5.25658 -8.0224 3.02811
H -3.62521 -8.95454 5.27906
H -3.13044 -9.17159 3.53984
H -1.63409 -7.57864 5.10222
H -3.4469 -2.70956 0.22747
H -1.82502 -3.19406 -0.39995
H -4.60522 -4.53898 8.17195
H -3.10096 -5.02848 9.04299
H -3.12575 -4.96768 7.23094
H -2.55088 -2.30665 3.9352
H -3.04426 -3.74331 4.93047
H -0.16074 -3.06037 4.16059
H -0.678 -4.42203 5.21697
$end

$opt
CONSTRAINT
tors           1           2           3           4    -127.593
tors           3           4           5           6      +8.504
tors           4           5           6           7    +116.238
tors           5           6           7           8    -129.274
tors           6           7           8           9    +177.510
tors           7           8           9          10     +82.650
tors           8           9          10          11    -180.000
tors           9          10          11          12      +6.280
tors          11          12          13          14     +87.151
ENDCONSTRAINT
$end

$rem
JOBTYPE                   OPT
METHOD                    B3LYP
DFT_D                     d3_op
BASIS                     STO-3G
GEOM_OPT_MAX_CYCLES       100
GEOM_OPT_TOL_GRADIENT     300
GEOM_OPT_TOL_DISPLACEMENT 1200
GEOM_OPT_TOL_ENERGY       100
SYMMETRY                  False
THRESH                    12
SCF_CONVERGENCE           8
MAX_SUB_FILE_NUM          128
MEM_STATIC                400
MEM_TOTAL                 4000
$end
--------------------------------------------------------------

   15   -1510.1403337562      9.92E-09 Convergence criterion met
 Total energy in the final basis set = -1510.14033376
   14   -1510.2097650783      6.47E-09 Convergence criterion met
 Total energy in the final basis set = -1510.20976508
   14   -1510.2454909989      5.25E-09 Convergence criterion met
 Total energy in the final basis set = -1510.24549100
   15   -1510.2631266447      1.41E-09 Convergence criterion met
 Total energy in the final basis set = -1510.26312664
   14   -1510.2672488549      7.68E-09 Convergence criterion met
 Total energy in the final basis set = -1510.26724885
    2   -1510.2672488549      1.73E-09 Convergence criterion met
 Total energy in the final basis set = -1510.26724885
   14   -1510.2700717890      6.97E-09 Convergence criterion met
 Total energy in the final basis set = -1510.27007179
    2   -1510.2700717891      2.74E-09 Convergence criterion met
   11   -1510.2721913090      6.07E-09 Convergence criterion met
 Total energy in the final basis set = -1510.27219131
   10   -1510.2722113658      9.07E-09 Convergence criterion met
 Total energy in the final basis set = -1510.27221137
   11   -1510.2722226568      3.10E-09 Convergence criterion met
 Total energy in the final basis set = -1510.27222266
   10   -1510.2722313327      4.84E-09 Convergence criterion met
 Total energy in the final basis set = -1510.27223133
    9   -1510.2722339675      4.65E-09 Convergence criterion met
 Total energy in the final basis set = -1510.27223397
    9   -1510.2722364124      3.06E-09 Convergence criterion met
 Total energy in the final basis set = -1510.27223641

             Standard Nuclear Orientation (Angstroms)
    I     Atom           X                Y                Z
 ----------------------------------------------------------------
    1      O      -2.6769769366     1.7267881598     1.8873182908
    2      C      -3.4399962817     1.5175357328     0.9200188572
    3      C      -3.9839743068     0.1268634427     0.4239989115
    4      C      -3.7603975616    -0.1773633018    -1.1127155635
    5      C      -2.6758306813     0.7068535303    -1.8423592181
    6      O      -1.9276817178     1.5246207560    -0.9064263296
    7      C      -0.5022424913     1.0974614002    -0.9387009848
    8      C      -0.0835184575     0.8568406886     0.5550206791
    9      O       1.3041030280     0.3701027294     0.6302918390
   10      C       2.2911231377     1.3880595047     0.5728376976
   11      C       3.7024475999     0.7059399411     0.6646148845
   12      C       3.7548402520    -0.8843429881     0.6404886622
   13      C       2.4145058956    -1.6354083885     0.2697260450
   14      O       2.0138320069    -1.9228907041    -0.8790769630
   15      O      -4.1200600522     2.5378080292     0.1750356309
   16      O       1.7997267280    -2.1178081451     1.4764555917
   17      O       2.0464306867     2.6099549316     0.4760134232
   18      C       0.5644806370    -2.8682761404     1.1441994778
   19      C       4.6312554118     1.0694766753    -0.5756342308
   20      C       6.1323647955     0.8977291647    -0.1206470110
   21      C       6.2405685473    -0.6706025062    -0.0406533477
   22      C       4.8029166895    -1.1060753238    -0.5327589968
   23      O       4.4285382022    -0.0576686571    -1.5117778031
   24      H       4.1676399944     1.0772593724     1.5967363110
   25      H       4.1136111849    -1.2744523334     1.6093692069
   26      H       4.3855282833     2.0348432904    -1.0595576850
   27      H       6.8126121108     1.3097337775    -0.8831551635
   28      H       6.3380910603     1.3924889016     0.8419883891
   29      H       7.0161103109    -1.0588051413    -0.7197187992
   30      H       6.4517934485    -1.0303804053     0.9789755169
   31      H       4.7471766313    -2.1055710683    -1.0055177826
   32      O      -2.4170586866     0.6499296977    -3.0617689103
   33      C      -3.5916500613     3.8665654181     0.5536225761
   34      C      -3.2525621936    -1.0963172983     1.1163297953
   35      C      -4.2095936419    -2.3440942527     1.0494050724
   36      C      -4.1589629877    -2.6714236783    -0.4895419536
   37      C      -3.0895728574    -1.6267645617    -0.9984252358
   38      O      -2.1759884529    -1.4547396554     0.1591495549
   39      H      -5.0667493575     0.1051227658     0.6476134772
   40      H      -4.6983334091    -0.1938361874    -1.6949155622
   41      H      -2.5249067178     3.9666817809     0.2657259248
   42      H      -2.8253292367    -0.8574424354     2.1100133891
   43      H      -3.8021567099    -3.1732876244     1.6498761589
   44      H      -5.2262166548    -2.1143515056     1.4058470674
   45      H      -3.8116064829    -3.7000064098    -0.6760278247
   46      H      -5.1329943924    -2.5324793454    -0.9853244072
   47      H      -2.5236238644    -1.9365974658    -1.8988991153
   48      H      -3.6841100318     4.0502064599     1.6436365820
   49      H      -4.1949261097     4.6079747738    -0.0017388548
   50      H       0.2225184819    -3.3189790127     2.0940783927
   51      H       0.7669129741    -3.6718434533     0.4073300374
   52      H      -0.2437526956    -2.2176089894     0.7385927089
   53      H      -0.2231761695     1.7875530272     1.1448311399
   54      H      -0.7167080912     0.0468703580     0.9677237345
   55      H       0.1220246479     1.9027683454    -1.3850525442
   56      H      -0.3522868573     0.1677662484    -1.5248463349
 ----------------------------------------------------------------

    9   -1510.2722354622      2.90E-09 Convergence criterion met
 Total energy in the final basis set = -1510.27223546
 Final energy is   -1510.27223546219
 **  OPTIMIZATION CONVERGED  **

                    Orbital Energies (a.u.)
 --------------------------------------------------------------

 Alpha MOs
 -- Occupied --
-18.943 -18.925 -18.924 -18.912 -18.903 -18.903 -18.883 -18.876
-18.864 -18.849 -10.114 -10.104 -10.099 -10.086 -10.072 -10.072
-10.069 -10.068 -10.058 -10.057 -10.054 -10.046 -10.043 -10.041
-10.036 -10.030 -10.029 -10.029 -10.017 -10.016  -1.020  -1.016
 -1.003  -0.990  -0.984  -0.966  -0.947  -0.940  -0.931  -0.915
 -0.771  -0.758  -0.732  -0.722  -0.714  -0.704  -0.696  -0.659
 -0.648  -0.614  -0.601  -0.584  -0.552  -0.546  -0.539  -0.533
 -0.519  -0.508  -0.490  -0.476  -0.467  -0.452  -0.451  -0.445
 -0.438  -0.434  -0.423  -0.412  -0.410  -0.406  -0.400  -0.397
 -0.392  -0.386  -0.371  -0.369  -0.364  -0.356  -0.350  -0.347
 -0.344  -0.341  -0.336  -0.330  -0.327  -0.325  -0.321  -0.319
 -0.316  -0.311  -0.304  -0.303  -0.296  -0.291  -0.289  -0.278
 -0.267  -0.251  -0.250  -0.245  -0.237  -0.230  -0.229  -0.189
 -0.173  -0.167  -0.163  -0.162  -0.157  -0.153  -0.148  -0.141
 -0.133

          Ground-State Mulliken Net Atomic Charges

     Atom                 Charge (a.u.)
  ----------------------------------------
      1 O                    -0.227768
      2 C                     0.220786
      3 C                    -0.081502
      4 C                    -0.078235
      5 C                     0.223929
      6 O                    -0.184290
      7 C                    -0.048759
      8 C                    -0.046884
      9 O                    -0.168521
     10 C                     0.214147
     11 C                    -0.079208
     12 C                    -0.079639
     13 C                     0.219663
     14 O                    -0.227623
     15 O                    -0.175567
     16 O                    -0.175331
     17 O                    -0.215191
     18 C                    -0.136573
     19 C                     0.024481
     20 C                    -0.142901
     21 C                    -0.145201
     22 C                     0.025675
     23 O                    -0.187480
     24 H                     0.084807
     25 H                     0.083174
     26 H                     0.085920
     27 H                     0.077764
     28 H                     0.073172
     29 H                     0.077382
     30 H                     0.072874
     31 H                     0.085307
     32 O                    -0.186890
     33 C                    -0.127901
     34 C                     0.022122
     35 C                    -0.142529
     36 C                    -0.144070
     37 C                     0.024016
     38 O                    -0.197701
     39 H                     0.085090
     40 H                     0.089664
     41 H                     0.090537
     42 H                     0.091477
     43 H                     0.079527
     44 H                     0.076473
     45 H                     0.080948
     46 H                     0.077094
     47 H                     0.088109
     48 H                     0.087651
     49 H                     0.088507
     50 H                     0.080765
     51 H                     0.082717
     52 H                     0.095734
     53 H                     0.100559
     54 H                     0.104410
     55 H                     0.089773
     56 H                     0.095509
  ----------------------------------------
  Sum of atomic charges =     0.000000

                    Cartesian Multipole Moments
 -----------------------------------------------------------------
    Charge (ESU x 10^10)
                 0.0000
    Dipole Moment (Debye)
         X      -1.6412      Y      -1.3669      Z       1.9818
       Tot       2.9136
    Quadrupole Moments (Debye-Ang)
        XX    -136.9821     XY       4.5548     YY    -156.5418
        XZ       3.2602     YZ      -1.1162     ZZ    -169.7655

 Total job time:  54.99s(wall), 2618.32s(cpu)
        *  Thank you very much for using Q-Chem.  Have a nice day.  *
