 Q-Chem 5.0, Q-Chem, Inc., Pleasanton, CA (2017)
 Q-Chem 5.0.1 for Intel X86 EM64T Linux

User input:
--------------------------------------------------------------
$molecule
0  1
O -3.94934 -3.66094 2.70899
C -3.26408 -4.56952 2.26188
C -3.36658 -6.02376 2.66595
C -2.19568 -6.94363 2.28296
C -0.97418 -6.27165 1.69605
O -0.5765 -6.93384 0.56965
C -1.62202 -7.07806 -0.39749
C -2.7312 -7.96656 0.15607
O -3.81118 -8.04624 -0.78741
C -4.01671 -6.9328 -1.53385
C -5.06038 -7.1287 -2.60765
C -5.81126 -8.46676 -2.54412
C -5.67554 -9.23973 -1.24767
O -6.36545 -10.19257 -0.91499
O -2.45368 -4.24108 1.22075
O -5.90679 -8.34898 -0.20064
O -3.96491 -5.81847 -1.02575
C -6.20461 -8.64514 1.12442
C -6.2474 -6.13383 -2.60242
C -6.86256 -6.0627 -3.99999
C -7.5364 -7.41718 -4.0824
C -7.26223 -7.94552 -2.67078
O -7.25485 -6.78587 -1.87314
H -4.51135 -7.01811 -3.56925
H -5.54981 -9.16682 -3.36743
H -5.98003 -5.11074 -2.26129
H -7.65133 -5.27671 -3.9704
H -6.15144 -5.83471 -4.82273
H -8.62729 -7.25718 -4.23331
H -7.13909 -8.10125 -4.86302
H -8.0131 -8.71838 -2.39526
O -0.23727 -5.49151 2.28516
C -2.29472 -2.97028 0.70724
C -3.37395 -6.0441 4.20317
C -3.87047 -7.39264 4.72952
C -2.62527 -8.21055 4.54866
C -1.74197 -7.19545 3.79363
O -2.01402 -6.01363 4.49382
H -4.35063 -6.37386 2.29199
H -2.08394 -8.05308 2.2758
H -1.9002 -2.28867 1.49083
H -3.98442 -5.22982 4.65285
H -4.11003 -7.34813 5.8153
H -4.75691 -7.74454 4.15801
H -2.1525 -8.35739 5.54709
H -2.7748 -9.20606 4.07747
H -0.68031 -7.53537 3.8888
H -3.26508 -2.58658 0.32629
H -1.57061 -3.00686 -0.13224
H -6.29016 -7.70107 1.69829
H -5.39786 -9.26751 1.56832
H -7.17184 -9.18473 1.1989
H -2.28025 -8.98098 0.23963
H -3.51126 -7.98006 0.93413
H -1.1983 -7.57789 -1.29532
H -1.83581 -6.04397 -0.70896
$end

$opt
CONSTRAINT
tors           1           2           3           4    -164.211
tors           3           4           5           6    -132.226
tors           4           5           6           7     +54.181
tors           5           6           7           8     -65.040
tors           6           7           8           9    +176.745
tors           7           8           9          10     -32.690
tors           8           9          10          11    +173.655
tors           9          10          11          12      +7.368
tors          11          12          13          14    +166.680
ENDCONSTRAINT
$end

$rem
JOBTYPE                   OPT
METHOD                    B3LYP
DFT_D                     d3_op
BASIS                     STO-3G
GEOM_OPT_MAX_CYCLES       100
GEOM_OPT_TOL_GRADIENT     300
GEOM_OPT_TOL_DISPLACEMENT 1200
GEOM_OPT_TOL_ENERGY       100
SYMMETRY                  False
THRESH                    12
SCF_CONVERGENCE           8
MAX_SUB_FILE_NUM          128
MEM_STATIC                400
MEM_TOTAL                 4000
$end
--------------------------------------------------------------

   16   -1509.9078406743      6.15E-09 Convergence criterion met
 Total energy in the final basis set = -1509.90784067
   15   -1510.0068987095      6.99E-09 Convergence criterion met
 Total energy in the final basis set = -1510.00689871
   15   -1510.0732892349      2.25E-09 Convergence criterion met
 Total energy in the final basis set = -1510.07328923
   14   -1510.1184599194      9.58E-09 Convergence criterion met
 Total energy in the final basis set = -1510.11845992
   14   -1510.1504118769      6.83E-09 Convergence criterion met
 Total energy in the final basis set = -1510.15041188
   14   -1510.1731723295      7.66E-09 Convergence criterion met
 Total energy in the final basis set = -1510.17317233
   14   -1510.1901976852      5.01E-09 Convergence criterion met
 Total energy in the final basis set = -1510.19019769
   14   -1510.2026374524      3.13E-09 Convergence criterion met
   11   -1510.2354474296      8.23E-09 Convergence criterion met
 Total energy in the final basis set = -1510.23544743
   11   -1510.2354662777      4.59E-09 Convergence criterion met
 Total energy in the final basis set = -1510.23546628
   11   -1510.2354787988      4.52E-09 Convergence criterion met
 Total energy in the final basis set = -1510.23547880
    9   -1510.2354848612      9.59E-09 Convergence criterion met
 Total energy in the final basis set = -1510.23548486
    9   -1510.2354878438      5.60E-09 Convergence criterion met
 Total energy in the final basis set = -1510.23548784
    9   -1510.2354894998      5.10E-09 Convergence criterion met
 Total energy in the final basis set = -1510.23548950

             Standard Nuclear Orientation (Angstroms)
    I     Atom           X                Y                Z
 ----------------------------------------------------------------
    1      O      -3.1099414676    -1.6523501606     2.6615075341
    2      C      -2.8510721438    -1.1297185085     1.5563348061
    3      C      -3.2311723409     0.3133373904     1.0786636846
    4      C      -3.1190559313     0.5592480699    -0.4793880445
    5      C      -3.1430269898    -0.7791752685    -1.3331632667
    6      O      -2.1698901986    -1.0196512589    -2.3800145211
    7      C      -0.7283728751    -0.9276385479    -2.0681874429
    8      C      -0.0690153823     0.4442446764    -1.6406153788
    9      O       1.3805846332     0.3731818169    -1.2821091206
   10      C       1.8414077284    -0.8254091242    -0.6733138878
   11      C       3.4044401058    -0.7824227141    -0.5179574245
   12      C       4.2362923410     0.5166955529    -0.8382280464
   13      C       3.6901582499     1.8990474546    -0.2916504301
   14      O       4.3536167903     2.9600199805    -0.2612265348
   15      O      -1.9971809972    -1.7178690077     0.5672483153
   16      O       2.4613730192     1.7335427422     0.4188886706
   17      O       1.1443572517    -1.7866429765    -0.2663831652
   18      C       2.0793958583     3.0062196061     1.0713026296
   19      C       4.0229027811    -1.2355437768     0.8827634657
   20      C       5.2412197756    -2.1703599962     0.5289846970
   21      C       6.1935816874    -1.1253045696    -0.1677372713
   22      C       5.4592931033     0.2392540192     0.1506678104
   23      O       4.7078257258    -0.0306434724     1.4065041569
   24      H       3.7351472204    -1.5343792946    -1.2621860407
   25      H       4.5170525920     0.5999959719    -1.9028262818
   26      H       3.2933072003    -1.6332772684     1.6145868931
   27      H       5.6942130958    -2.5740725860     1.4490523276
   28      H       4.9613206071    -3.0083289222    -0.1292942442
   29      H       7.2018755215    -1.1324070264     0.2751365547
   30      H       6.2871464929    -1.2959240551    -1.2525958850
   31      H       6.1260905002     1.1141587151     0.2790935503
   32      O      -4.1378306624    -1.5380471655    -1.3287719578
   33      C      -1.5586667295    -3.0751298047     0.9652442441
   34      C      -4.7312606970     0.7421297684     1.3762377195
   35      C      -4.7588562025     2.3179485153     1.4619509552
   36      C      -4.5249661891     2.6958960533    -0.0482958086
   37      C      -4.5270553333     1.2689249804    -0.7310015351
   38      O      -5.4459975642     0.4694962641     0.1100336274
   39      H      -2.5414419100     0.9961264561     1.6115225552
   40      H      -2.2892163783     1.2262055559    -0.7445773191
   41      H      -2.0749319082    -3.8262438257     0.3346220286
   42      H      -5.2019490473     0.2032752872     2.2216703346
   43      H      -5.7439640224     2.6629959924     1.8149519224
   44      H      -3.9814204725     2.7190059597     2.1316636592
   45      H      -5.3449905904     3.3152294551    -0.4445363134
   46      H      -3.5735291929     3.2285658522    -0.2086717790
   47      H      -4.8607430229     1.2548102915    -1.7866996885
   48      H      -1.8054028077    -3.2467656385     2.0320205237
   49      H      -0.4655184451    -3.1294757442     0.7952889644
   50      H       1.1773539482     2.7796172302     1.6690763862
   51      H       1.8410591289     3.7920235833     0.3254068689
   52      H       2.8832400175     3.3832623129     1.7356780564
   53      H      -0.1260977801     1.1991041182    -2.4515468941
   54      H      -0.5803518045     0.8498522195    -0.7456257783
   55      H      -0.2392504861    -1.2612898568    -3.0066088723
   56      H      -0.4540288815    -1.6424232568    -1.2617370630
 ----------------------------------------------------------------

    9   -1510.2354900757      4.76E-09 Convergence criterion met
 Total energy in the final basis set = -1510.23549008
 Final energy is   -1510.23549007572
 **  OPTIMIZATION CONVERGED  **

                    Orbital Energies (a.u.)
 --------------------------------------------------------------

 Alpha MOs
 -- Occupied --
-18.950 -18.941 -18.938 -18.911 -18.892 -18.890 -18.885 -18.882
-18.871 -18.864 -10.117 -10.106 -10.100 -10.094 -10.078 -10.067
-10.066 -10.064 -10.061 -10.060 -10.059 -10.057 -10.045 -10.043
-10.042 -10.036 -10.026 -10.024 -10.023 -10.021  -1.022  -1.016
 -1.011  -0.991  -0.976  -0.971  -0.950  -0.941  -0.935  -0.922
 -0.769  -0.765  -0.730  -0.724  -0.714  -0.705  -0.700  -0.665
 -0.660  -0.621  -0.605  -0.593  -0.550  -0.546  -0.542  -0.539
 -0.517  -0.511  -0.489  -0.485  -0.472  -0.463  -0.452  -0.447
 -0.441  -0.433  -0.431  -0.419  -0.415  -0.413  -0.410  -0.399
 -0.389  -0.386  -0.381  -0.371  -0.370  -0.361  -0.356  -0.354
 -0.345  -0.344  -0.336  -0.333  -0.331  -0.322  -0.319  -0.317
 -0.314  -0.309  -0.306  -0.304  -0.302  -0.295  -0.291  -0.278
 -0.273  -0.261  -0.252  -0.250  -0.239  -0.234  -0.218  -0.192
 -0.178  -0.174  -0.170  -0.163  -0.154  -0.150  -0.149  -0.144
 -0.132

          Ground-State Mulliken Net Atomic Charges

     Atom                 Charge (a.u.)
  ----------------------------------------
      1 O                    -0.210457
      2 C                     0.215539
      3 C                    -0.079710
      4 C                    -0.083596
      5 C                     0.217484
      6 O                    -0.181237
      7 C                    -0.066860
      8 C                    -0.054505
      9 O                    -0.160316
     10 C                     0.219160
     11 C                    -0.079967
     12 C                    -0.074167
     13 C                     0.213625
     14 O                    -0.219478
     15 O                    -0.170613
     16 O                    -0.163026
     17 O                    -0.220368
     18 C                    -0.126971
     19 C                     0.025576
     20 C                    -0.140266
     21 C                    -0.146539
     22 C                     0.022885
     23 O                    -0.191653
     24 H                     0.082750
     25 H                     0.086253
     26 H                     0.088144
     27 H                     0.078905
     28 H                     0.074706
     29 H                     0.080011
     30 H                     0.074124
     31 H                     0.088395
     32 O                    -0.199563
     33 C                    -0.137233
     34 C                     0.025954
     35 C                    -0.142592
     36 C                    -0.145780
     37 C                     0.026498
     38 O                    -0.182133
     39 H                     0.082597
     40 H                     0.076511
     41 H                     0.090596
     42 H                     0.090256
     43 H                     0.079232
     44 H                     0.072299
     45 H                     0.078898
     46 H                     0.070648
     47 H                     0.084367
     48 H                     0.100695
     49 H                     0.100645
     50 H                     0.087151
     51 H                     0.086501
     52 H                     0.093249
     53 H                     0.087725
     54 H                     0.083178
     55 H                     0.081343
     56 H                     0.111132
  ----------------------------------------
  Sum of atomic charges =     0.000000

                    Cartesian Multipole Moments
 -----------------------------------------------------------------
    Charge (ESU x 10^10)
                 0.0000
    Dipole Moment (Debye)
         X       3.2046      Y       1.7539      Z      -0.3502
       Tot       3.6699
    Quadrupole Moments (Debye-Ang)
        XX    -174.4822     XY     -22.8958     YY    -158.3331
        XZ      -7.8292     YZ       0.5658     ZZ    -163.1847

 Total job time:  114.04s(wall), 5440.68s(cpu)
        *  Thank you very much for using Q-Chem.  Have a nice day.  *
