 Q-Chem 5.0, Q-Chem, Inc., Pleasanton, CA (2017)
 Q-Chem 5.0.1 for Intel X86 EM64T Linux

User input:
--------------------------------------------------------------
$molecule
0  1
O -3.1099414676 -1.6523501606 2.6615075341
C -2.8510721438 -1.1297185085 1.5563348061
C -3.2311723409 0.3133373904 1.0786636846
C -3.1190559313 0.5592480699 -0.4793880445
C -3.1430269898 -0.7791752685 -1.3331632667
O -2.1698901986 -1.0196512589 -2.3800145211
C -0.7283728751 -0.9276385479 -2.0681874429
C -0.0690153823 0.4442446764 -1.6406153788
O 1.3805846332 0.3731818169 -1.2821091206
C 1.8414077284 -0.8254091242 -0.6733138878
C 3.4044401058 -0.7824227141 -0.5179574245
C 4.236292341 0.5166955529 -0.8382280464
C 3.6901582499 1.8990474546 -0.2916504301
O 4.3536167903 2.9600199805 -0.2612265348
O -1.9971809972 -1.7178690077 0.5672483153
O 2.4613730192 1.7335427422 0.4188886706
O 1.1443572517 -1.7866429765 -0.2663831652
C 2.0793958583 3.0062196061 1.0713026296
C 4.0229027811 -1.2355437768 0.8827634657
C 5.2412197756 -2.1703599962 0.528984697
C 6.1935816874 -1.1253045696 -0.1677372713
C 5.4592931033 0.2392540192 0.1506678104
O 4.7078257258 -0.0306434724 1.4065041569
H 3.7351472204 -1.5343792946 -1.2621860407
H 4.517052592 0.5999959719 -1.9028262818
H 3.2933072003 -1.6332772684 1.6145868931
H 5.6942130958 -2.574072586 1.4490523276
H 4.9613206071 -3.0083289222 -0.1292942442
H 7.2018755215 -1.1324070264 0.2751365547
H 6.2871464929 -1.2959240551 -1.252595885
H 6.1260905002 1.1141587151 0.2790935503
O -4.1378306624 -1.5380471655 -1.3287719578
C -1.5586667295 -3.0751298047 0.9652442441
C -4.731260697 0.7421297684 1.3762377195
C -4.7588562025 2.3179485153 1.4619509552
C -4.5249661891 2.6958960533 -0.0482958086
C -4.5270553333 1.2689249804 -0.7310015351
O -5.4459975642 0.4694962641 0.1100336274
H -2.54144191 0.9961264561 1.6115225552
H -2.2892163783 1.2262055559 -0.7445773191
H -2.0749319082 -3.8262438257 0.3346220286
H -5.2019490473 0.2032752872 2.2216703346
H -5.7439640224 2.6629959924 1.8149519224
H -3.9814204725 2.7190059597 2.1316636592
H -5.3449905904 3.3152294551 -0.4445363134
H -3.5735291929 3.2285658522 -0.208671779
H -4.8607430229 1.2548102915 -1.7866996885
H -1.8054028077 -3.2467656385 2.0320205237
H -0.4655184451 -3.1294757442 0.7952889644
H 1.1773539482 2.7796172302 1.6690763862
H 1.8410591289 3.7920235833 0.3254068689
H 2.8832400175 3.3832623129 1.7356780564
H -0.1260977801 1.1991041182 -2.4515468941
H -0.5803518045 0.8498522195 -0.7456257783
H -0.2392504861 -1.2612898568 -3.0066088723
H -0.4540288815 -1.6424232568 -1.261737063
$end

$rem
JOBTYPE                   OPT
METHOD                    B3LYP
DFT_D                     d3_op
BASIS                     STO-3G
GEOM_OPT_MAX_CYCLES       100
GEOM_OPT_TOL_GRADIENT     300
GEOM_OPT_TOL_DISPLACEMENT 1200
GEOM_OPT_TOL_ENERGY       100
SYMMETRY                  False
THRESH                    12
SCF_CONVERGENCE           8
MAX_SUB_FILE_NUM          128
MEM_STATIC                400
MEM_TOTAL                 4000
$end
--------------------------------------------------------------

   16   -1510.2355819159      5.86E-09 Convergence criterion met
 Total energy in the final basis set = -1510.23558192
   13   -1510.2394334922      9.38E-09 Convergence criterion met
 Total energy in the final basis set = -1510.23943349
   13   -1510.2434114257      9.16E-09 Convergence criterion met
 Total energy in the final basis set = -1510.24341143
   13   -1510.2478943516      9.64E-09 Convergence criterion met
 Total energy in the final basis set = -1510.24789435
   14   -1510.2517432153      6.16E-09 Convergence criterion met
 Total energy in the final basis set = -1510.25174322
   14   -1510.2555291933      4.01E-09 Convergence criterion met
 Total energy in the final basis set = -1510.25552919
   14   -1510.2592256035      3.85E-09 Convergence criterion met
 Total energy in the final basis set = -1510.25922560
   14   -1510.2613161879      8.54E-09 Convergence criterion met
   12   -1510.2926912988      3.60E-09 Convergence criterion met
 Total energy in the final basis set = -1510.29269130
   11   -1510.2926955488      7.58E-09 Convergence criterion met
 Total energy in the final basis set = -1510.29269555
   11   -1510.2927005141      5.14E-09 Convergence criterion met
 Total energy in the final basis set = -1510.29270051
   10   -1510.2927039944      7.85E-09 Convergence criterion met
 Total energy in the final basis set = -1510.29270399
    9   -1510.2927053350      7.17E-09 Convergence criterion met
 Total energy in the final basis set = -1510.29270533
    9   -1510.2927046289      3.44E-09 Convergence criterion met
 Total energy in the final basis set = -1510.29270463

             Standard Nuclear Orientation (Angstroms)
    I     Atom           X                Y                Z
 ----------------------------------------------------------------
    1      O      -2.7657283738    -0.7944332325     2.4157898120
    2      C      -2.3869871808     0.0827807090     1.6102438998
    3      C      -3.3205432301     1.1238138738     0.8875688911
    4      C      -3.5196141087     0.8453210571    -0.6652787656
    5      C      -2.5182229266    -0.2215848840    -1.2110219099
    6      O      -1.9114335867     0.3062982595    -2.4052433321
    7      C      -0.5860514426    -0.3269158117    -2.6124457840
    8      C       0.4140445927     0.5334890995    -1.7498534975
    9      O       1.8414799313     0.1532379417    -1.8561368117
   10      C       2.1214062374    -0.9971465789    -1.0548717666
   11      C       3.6751232422    -1.1517298937    -0.9306624518
   12      C       4.3780178634     0.1373726327    -0.3232258092
   13      C       3.4176096574     1.3508789024    -0.0703648918
   14      O       3.5347301938     2.5043144530    -0.5395441704
   15      O      -1.0085253491     0.2933622463     1.2489957385
   16      O       2.3765843225     0.9434660335     0.8276395634
   17      O       1.2489306082    -1.7399249831    -0.5518329682
   18      C       1.4769490619     2.0834872956     1.1367695563
   19      C       4.0242180930    -2.2399661078     0.1640701947
   20      C       5.5518310095    -2.6143009011     0.0387408002
   21      C       6.2293082980    -1.3402388789     0.6680091993
   22      C       4.9621098141    -0.4674870765     1.0298078951
   23      O       3.9516592686    -1.4714454282     1.4289915065
   24      H       4.0937317949    -1.3996289553    -1.9234624981
   25      H       5.1860376180     0.4935891219    -0.9856714652
   26      H       3.3145216024    -3.0896166160     0.1889361335
   27      H       5.7763885765    -3.5219106107     0.6213492444
   28      H       5.8520870300    -2.7828198743    -1.0078133307
   29      H       6.7949572284    -1.5924535882     1.5791160022
   30      H       6.9020313853    -0.8237422844    -0.0350061611
   31      H       5.1129677238     0.2738937911     1.8380082916
   32      O      -2.2358149325    -1.3292894388    -0.7047326410
   33      C      -0.1648642890    -0.7753803460     1.8532998842
   34      C      -4.8040378898     0.9266406753     1.4070661351
   35      C      -5.7006412682     2.1191969599     0.8852839783
   36      C      -5.9274090443     1.7029052389    -0.6162101906
   37      C      -5.0479158319     0.3945757900    -0.6967728013
   38      O      -5.2657861048    -0.2411795588     0.6195824308
   39      H      -2.9343586234     2.1448052485     1.0605028079
   40      H      -3.3732446785     1.7682877078    -1.2528897732
   41      H      -0.8181126057    -1.4785228237     2.4043384917
   42      H      -4.8753784416     0.7089888644     2.4900864726
   43      H      -6.6502357907     2.1614113192     1.4416472381
   44      H      -5.1905700884     3.0907876034     0.9831923370
   45      H      -6.9850147925     1.4643537695    -0.8123498463
   46      H      -5.5993279609     2.4751008464    -1.3303992973
   47      H      -5.3075059273    -0.3043849713    -1.5154540310
   48      H       0.5631438204    -0.3110480169     2.5446793535
   49      H       0.3752660298    -1.2884926179     1.0272514670
   50      H       0.4407752721     1.6858498385     1.1830410023
   51      H       1.5698222431     2.8648873523     0.3572545733
   52      H       1.7531547528     2.5202364899     2.1177345180
   53      H       0.3708328644     1.5863019476    -2.0943178370
   54      H       0.0661538673     0.4829839852    -0.6933582589
   55      H      -0.3519583797    -0.2730547506    -3.6938016385
   56      H      -0.5901837100    -1.3810553671    -2.2628386958
 ----------------------------------------------------------------

    9   -1510.2927043309      3.66E-09 Convergence criterion met
 Total energy in the final basis set = -1510.29270433
 Final energy is   -1510.29270433086
 **  OPTIMIZATION CONVERGED  **

                    Orbital Energies (a.u.)
 --------------------------------------------------------------

 Alpha MOs
 -- Occupied --
-18.943 -18.931 -18.928 -18.928 -18.889 -18.889 -18.889 -18.884
-18.876 -18.872 -10.111 -10.103 -10.098 -10.098 -10.071 -10.070
-10.062 -10.062 -10.060 -10.059 -10.048 -10.042 -10.041 -10.039
-10.039 -10.032 -10.022 -10.022 -10.021 -10.021  -1.023  -1.015
 -1.005  -1.004  -0.972  -0.971  -0.947  -0.940  -0.933  -0.931
 -0.767  -0.765  -0.729  -0.724  -0.713  -0.707  -0.697  -0.655
 -0.647  -0.621  -0.599  -0.584  -0.549  -0.546  -0.539  -0.537
 -0.514  -0.510  -0.488  -0.476  -0.469  -0.462  -0.453  -0.445
 -0.436  -0.432  -0.432  -0.417  -0.412  -0.405  -0.403  -0.396
 -0.386  -0.381  -0.375  -0.365  -0.362  -0.357  -0.355  -0.352
 -0.343  -0.341  -0.334  -0.333  -0.332  -0.328  -0.326  -0.313
 -0.310  -0.307  -0.305  -0.303  -0.297  -0.291  -0.284  -0.278
 -0.275  -0.260  -0.249  -0.247  -0.242  -0.236  -0.235  -0.194
 -0.175  -0.171  -0.165  -0.164  -0.160  -0.153  -0.152  -0.145
 -0.145

          Ground-State Mulliken Net Atomic Charges

     Atom                 Charge (a.u.)
  ----------------------------------------
      1 O                    -0.203531
      2 C                     0.215488
      3 C                    -0.078666
      4 C                    -0.081137
      5 C                     0.208903
      6 O                    -0.176282
      7 C                    -0.055991
      8 C                    -0.056517
      9 O                    -0.171654
     10 C                     0.223099
     11 C                    -0.078173
     12 C                    -0.078992
     13 C                     0.210070
     14 O                    -0.215953
     15 O                    -0.184592
     16 O                    -0.174451
     17 O                    -0.209741
     18 C                    -0.145650
     19 C                     0.024531
     20 C                    -0.144260
     21 C                    -0.143602
     22 C                     0.026042
     23 O                    -0.186375
     24 H                     0.086381
     25 H                     0.085390
     26 H                     0.090802
     27 H                     0.079002
     28 H                     0.073411
     29 H                     0.078441
     30 H                     0.074046
     31 H                     0.083380
     32 O                    -0.200813
     33 C                    -0.151125
     34 C                     0.026199
     35 C                    -0.145105
     36 C                    -0.142766
     37 C                     0.026123
     38 O                    -0.184400
     39 H                     0.083348
     40 H                     0.085935
     41 H                     0.100422
     42 H                     0.090452
     43 H                     0.078904
     44 H                     0.072934
     45 H                     0.078818
     46 H                     0.073792
     47 H                     0.084554
     48 H                     0.082706
     49 H                     0.109695
     50 H                     0.101739
     51 H                     0.093195
     52 H                     0.079234
     53 H                     0.089288
     54 H                     0.100617
     55 H                     0.088455
     56 H                     0.104377
  ----------------------------------------
  Sum of atomic charges =    -0.000000

                    Cartesian Multipole Moments
 -----------------------------------------------------------------
    Charge (ESU x 10^10)
                -0.0000
    Dipole Moment (Debye)
         X       1.4157      Y       2.0965      Z      -1.6527
       Tot       3.0217
    Quadrupole Moments (Debye-Ang)
        XX    -147.7752     XY     -19.2455     YY    -162.5259
        XZ       3.1553     YZ       8.7082     ZZ    -159.2090

 Total job time:  129.79s(wall), 6192.07s(cpu)
        *  Thank you very much for using Q-Chem.  Have a nice day.  *
