 Q-Chem 5.0, Q-Chem, Inc., Pleasanton, CA (2017)
 Q-Chem 5.0.1 for Intel X86 EM64T Linux

User input:
--------------------------------------------------------------
$molecule
0  1
O -3.94934 -3.66094 2.70899
C -3.26408 -4.56952 2.26188
C -3.36658 -6.02376 2.66595
C -2.2504 -6.96643 2.18702
C -1.06454 -6.31744 1.50831
O -1.3631 -6.05746 0.20114
C -0.59576 -4.98117 -0.34844
C -1.03592 -4.69994 -1.78137
O -0.7467 -3.33526 -2.12329
C 0.49887 -2.90522 -1.8027
C 0.7411 -1.46496 -2.18694
C 0.07415 -1.0238 -3.49798
C -1.00241 -1.94568 -4.03451
O -2.04959 -2.21894 -3.4659
O -2.99389 -4.34063 0.95023
O -0.78336 -2.45506 -5.2751
O 1.45064 -3.64378 -1.58686
C -1.65046 -3.30521 -5.92881
C 0.09383 -0.45897 -1.20953
C 0.83343 0.87586 -1.29112
C 0.40924 1.35035 -2.66827
C -0.61543 0.26642 -3.027
O -1.14695 -0.12917 -1.78506
H 1.84166 -1.28852 -2.17662
H 0.82757 -0.8678 -4.302
H 0.06464 -0.82345 -0.15921
H 0.37054 1.54179 -0.52751
H 1.93081 0.83813 -1.12053
H -0.07435 2.34657 -2.56237
H 1.22167 1.39603 -3.4257
H -1.34828 0.64478 -3.77385
O 0.02663 -6.10576 2.02586
C -3.22919 -3.1209 0.31542
C -3.24949 -6.18132 4.19278
C -3.88029 -7.50165 4.63249
C -2.84641 -8.48492 4.13106
C -1.80171 -7.5211 3.55946
O -1.87944 -6.40154 4.40602
H -4.36869 -6.36753 2.32484
H -2.59855 -7.80753 1.54636
H -2.61947 -2.32048 0.78771
H -3.70256 -5.33785 4.75869
H -3.87914 -7.52395 5.74585
H -4.9144 -7.66635 4.26036
H -2.4209 -9.02327 5.0074
H -3.20955 -9.21711 3.37791
H -0.81269 -8.02865 3.51182
H -4.30635 -2.85438 0.3738
H -2.97456 -3.1694 -0.75339
H -1.22584 -3.56686 -6.9196
H -2.63271 -2.80856 -6.08004
H -1.78733 -4.23762 -5.33998
H -0.55077 -5.41769 -2.47785
H -2.13052 -4.83787 -1.88989
H 0.48113 -5.24368 -0.30069
H -0.74832 -4.0736 0.273
$end

$opt
CONSTRAINT
tors           1           2           3           4    -168.938
tors           3           4           5           6     -81.203
tors           4           5           6           7    +154.648
tors           5           6           7           8    -176.920
tors           6           7           8           9    +154.452
tors           7           8           9          10     +47.340
tors           8           9          10          11    -180.000
tors           9          10          11          12     -36.213
tors          11          12          13          14     +62.191
ENDCONSTRAINT
$end

$rem
JOBTYPE                   OPT
METHOD                    B3LYP
DFT_D                     d3_op
BASIS                     STO-3G
GEOM_OPT_MAX_CYCLES       100
GEOM_OPT_TOL_GRADIENT     300
GEOM_OPT_TOL_DISPLACEMENT 1200
GEOM_OPT_TOL_ENERGY       100
SYMMETRY                  False
THRESH                    12
SCF_CONVERGENCE           8
MAX_SUB_FILE_NUM          128
MEM_STATIC                400
MEM_TOTAL                 4000
$end
--------------------------------------------------------------

   15   -1510.1069229062      7.01E-09 Convergence criterion met
 Total energy in the final basis set = -1510.10692291
   14   -1510.1803440919      8.67E-09 Convergence criterion met
 Total energy in the final basis set = -1510.18034409
   15   -1510.2223370601      1.76E-09 Convergence criterion met
 Total energy in the final basis set = -1510.22233706
   15   -1510.2443298326      1.28E-09 Convergence criterion met
 Total energy in the final basis set = -1510.24432983
   14   -1510.2542332146      4.38E-09 Convergence criterion met
 Total energy in the final basis set = -1510.25423321
   14   -1510.2590225649      3.04E-09 Convergence criterion met
 Total energy in the final basis set = -1510.25902256
   14   -1510.2618500953      3.07E-09 Convergence criterion met
 Total energy in the final basis set = -1510.26185010
   13   -1510.2633254425      6.30E-09 Convergence criterion met
   12   -1510.2672366933      3.62E-09 Convergence criterion met
 Total energy in the final basis set = -1510.26723669
   11   -1510.2672552744      7.37E-09 Convergence criterion met
 Total energy in the final basis set = -1510.26725527
   11   -1510.2672756372      8.38E-09 Convergence criterion met
 Total energy in the final basis set = -1510.26727564
   10   -1510.2672914134      8.63E-09 Convergence criterion met
 Total energy in the final basis set = -1510.26729141
    9   -1510.2672927025      5.59E-09 Convergence criterion met
 Total energy in the final basis set = -1510.26729270
    9   -1510.2672940278      7.48E-09 Convergence criterion met
 Total energy in the final basis set = -1510.26729403

             Standard Nuclear Orientation (Angstroms)
    I     Atom           X                Y                Z
 ----------------------------------------------------------------
    1      O       3.2999908452    -2.5684021501    -1.8118644070
    2      C       3.2126888656    -1.5552609166    -1.0813381667
    3      C       4.2452617017    -0.3714898925    -1.0949510040
    4      C       4.2013244455     0.7385256480     0.0397102567
    5      C       2.9690855262     0.7439809898     1.0133455946
    6      O       1.8812408605     1.4117447533     0.3494259745
    7      C       0.5865068785     0.9384627043     0.9005540297
    8      C      -0.5329158024     1.6581491008     0.0648309220
    9      O      -1.8310734844     0.9371360035     0.0117806306
   10      C      -2.2837181569     0.4801323882     1.2798303262
   11      C      -3.6572726731    -0.2639392531     1.1059498578
   12      C      -4.7106806802     0.2589593437     0.0354865777
   13      C      -4.5254663295     1.6837611300    -0.5941464864
   14      O      -3.6021964318     2.1476789929    -1.2947361140
   15      O       2.1717638675    -1.3643584747    -0.1211964119
   16      O      -5.6918079229     2.4435517792    -0.2311449006
   17      O      -1.6958248944     0.6503280242     2.3717922949
   18      C      -5.6085284185     3.8053344801    -0.8066452009
   19      C      -3.3474864143    -1.7087131291     0.5033912727
   20      C      -4.6198458070    -2.6352274080     0.6484440330
   21      C      -5.5238694668    -2.1035082675    -0.5246726694
   22      C      -4.6423431647    -0.9073838209    -1.0551362959
   23      O      -3.2646565312    -1.4338248366    -0.9477746216
   24      H      -4.1157347578    -0.3305106161     2.1084562098
   25      H      -5.7103138461     0.2713165684     0.5051201533
   26      H      -2.4021424496    -2.1560059469     0.8681141111
   27      H      -4.3451619155    -3.6920037316     0.5029596476
   28      H      -5.0970028571    -2.5290205721     1.6358936619
   29      H      -5.6502524560    -2.8645000901    -1.3113397806
   30      H      -6.5186233098    -1.7739041086    -0.1851514702
   31      H      -4.8526560761    -0.5830855288    -2.0926148715
   32      O       2.9202094286     0.2820394884     2.1727147562
   33      C       1.2514783946    -2.5277314789    -0.1152715486
   34      C       5.6908104742    -0.9865397641    -0.8342918691
   35      C       6.7948690180     0.0637767545    -1.2524307793
   36      C       6.7415617844     1.0661469923    -0.0403342880
   37      C       5.5634797424     0.4457373388     0.8048962582
   38      O       5.7621269855    -1.0130940631     0.6437072124
   39      H       4.1850802554     0.0968527437    -2.0949493642
   40      H       4.2316760449     1.7324637388    -0.4429915861
   41      H       1.6660284571    -3.3227117058    -0.7675332877
   42      H       5.8193408941    -2.0032459873    -1.2547792686
   43      H       7.7785645822    -0.4254108740    -1.3319468777
   44      H       6.5618091874     0.5456207191    -2.2154376856
   45      H       7.6802481003     1.0501500200     0.5360655744
   46      H       6.5329427619     2.1024344966    -0.3502335327
   47      H       5.5432499582     0.7141150713     1.8788900302
   48      H       0.2584155386    -2.2127460565    -0.4945592340
   49      H       1.1541594236    -2.8863605947     0.9274805512
   50      H      -6.5222738347     4.3332516050    -0.4773265689
   51      H      -5.5745093996     3.7800835965    -1.9152002279
   52      H      -4.7135398136     4.3495985037    -0.4419575440
   53      H      -0.6929390147     2.6865061544     0.4563406429
   54      H      -0.2101498597     1.7308877310    -0.9937047161
   55      H       0.4838717321     1.1716931458     1.9804900787
   56      H       0.5134310351    -0.1605667875     0.7710326373
 ----------------------------------------------------------------

    9   -1510.2672950054      2.92E-09 Convergence criterion met
 Total energy in the final basis set = -1510.26729501
 Final energy is   -1510.26729500544
 **  OPTIMIZATION CONVERGED  **

                    Orbital Energies (a.u.)
 --------------------------------------------------------------

 Alpha MOs
 -- Occupied --
-18.942 -18.937 -18.932 -18.915 -18.893 -18.884 -18.877 -18.876
-18.871 -18.868 -10.104 -10.100 -10.098 -10.094 -10.070 -10.064
-10.064 -10.063 -10.061 -10.059 -10.058 -10.055 -10.040 -10.040
-10.039 -10.033 -10.024 -10.023 -10.019 -10.017  -1.016  -1.013
 -1.008  -0.997  -0.975  -0.968  -0.939  -0.939  -0.932  -0.926
 -0.764  -0.760  -0.727  -0.721  -0.712  -0.705  -0.693  -0.664
 -0.663  -0.614  -0.598  -0.583  -0.547  -0.542  -0.541  -0.536
 -0.515  -0.509  -0.486  -0.475  -0.460  -0.456  -0.448  -0.440
 -0.436  -0.432  -0.423  -0.417  -0.413  -0.410  -0.409  -0.398
 -0.386  -0.382  -0.375  -0.371  -0.363  -0.354  -0.349  -0.347
 -0.342  -0.337  -0.336  -0.331  -0.329  -0.327  -0.323  -0.312
 -0.311  -0.310  -0.305  -0.303  -0.297  -0.287  -0.283  -0.276
 -0.270  -0.257  -0.250  -0.245  -0.239  -0.237  -0.232  -0.181
 -0.179  -0.173  -0.166  -0.159  -0.149  -0.149  -0.146  -0.143
 -0.142

          Ground-State Mulliken Net Atomic Charges

     Atom                 Charge (a.u.)
  ----------------------------------------
      1 O                    -0.216364
      2 C                     0.214225
      3 C                    -0.076735
      4 C                    -0.081093
      5 C                     0.218258
      6 O                    -0.182604
      7 C                    -0.053260
      8 C                    -0.045963
      9 O                    -0.158186
     10 C                     0.204849
     11 C                    -0.078243
     12 C                    -0.080329
     13 C                     0.206187
     14 O                    -0.203193
     15 O                    -0.168910
     16 O                    -0.172270
     17 O                    -0.217793
     18 C                    -0.129679
     19 C                     0.025560
     20 C                    -0.144737
     21 C                    -0.142903
     22 C                     0.027091
     23 O                    -0.186633
     24 H                     0.086168
     25 H                     0.086722
     26 H                     0.079966
     27 H                     0.078449
     28 H                     0.075141
     29 H                     0.078338
     30 H                     0.074835
     31 H                     0.084483
     32 O                    -0.209317
     33 C                    -0.136832
     34 C                     0.024884
     35 C                    -0.144629
     36 C                    -0.143609
     37 C                     0.024392
     38 O                    -0.190237
     39 H                     0.086883
     40 H                     0.083248
     41 H                     0.105969
     42 H                     0.087712
     43 H                     0.078372
     44 H                     0.073364
     45 H                     0.077789
     46 H                     0.073029
     47 H                     0.088308
     48 H                     0.088071
     49 H                     0.090684
     50 H                     0.089622
     51 H                     0.087742
     52 H                     0.088332
     53 H                     0.085827
     54 H                     0.098591
     55 H                     0.101385
     56 H                     0.089045
  ----------------------------------------
  Sum of atomic charges =    -0.000000

                    Cartesian Multipole Moments
 -----------------------------------------------------------------
    Charge (ESU x 10^10)
                 0.0000
    Dipole Moment (Debye)
         X      -2.4494      Y       1.1096      Z      -1.2600
       Tot       2.9696
    Quadrupole Moments (Debye-Ang)
        XX    -139.8059     XY       8.5916     YY    -153.2546
        XZ      -7.1106     YZ      -3.7101     ZZ    -168.9785

 Total job time:  154.86s(wall), 7378.42s(cpu)
        *  Thank you very much for using Q-Chem.  Have a nice day.  *
