 Q-Chem 5.0, Q-Chem, Inc., Pleasanton, CA (2017)
 Q-Chem 5.0.1 for Intel X86 EM64T Linux

User input:
--------------------------------------------------------------
$molecule
0  1
O 3.2999908452 -2.5684021501 -1.811864407
C 3.2126888656 -1.5552609166 -1.0813381667
C 4.2452617017 -0.3714898925 -1.094951004
C 4.2013244455 0.738525648 0.0397102567
C 2.9690855262 0.7439809898 1.0133455946
O 1.8812408605 1.4117447533 0.3494259745
C 0.5865068785 0.9384627043 0.9005540297
C -0.5329158024 1.6581491008 0.064830922
O -1.8310734844 0.9371360035 0.0117806306
C -2.2837181569 0.4801323882 1.2798303262
C -3.6572726731 -0.2639392531 1.1059498578
C -4.7106806802 0.2589593437 0.0354865777
C -4.5254663295 1.68376113 -0.5941464864
O -3.6021964318 2.1476789929 -1.294736114
O 2.1717638675 -1.3643584747 -0.1211964119
O -5.6918079229 2.4435517792 -0.2311449006
O -1.6958248944 0.6503280242 2.3717922949
C -5.6085284185 3.8053344801 -0.8066452009
C -3.3474864143 -1.7087131291 0.5033912727
C -4.619845807 -2.635227408 0.648444033
C -5.5238694668 -2.1035082675 -0.5246726694
C -4.6423431647 -0.9073838209 -1.0551362959
O -3.2646565312 -1.4338248366 -0.9477746216
H -4.1157347578 -0.3305106161 2.1084562098
H -5.7103138461 0.2713165684 0.5051201533
H -2.4021424496 -2.1560059469 0.8681141111
H -4.3451619155 -3.6920037316 0.5029596476
H -5.0970028571 -2.5290205721 1.6358936619
H -5.650252456 -2.8645000901 -1.3113397806
H -6.5186233098 -1.7739041086 -0.1851514702
H -4.8526560761 -0.5830855288 -2.0926148715
O 2.9202094286 0.2820394884 2.1727147562
C 1.2514783946 -2.5277314789 -0.1152715486
C 5.6908104742 -0.9865397641 -0.8342918691
C 6.794869018 0.0637767545 -1.2524307793
C 6.7415617844 1.0661469923 -0.040334288
C 5.5634797424 0.4457373388 0.8048962582
O 5.7621269855 -1.0130940631 0.6437072124
H 4.1850802554 0.0968527437 -2.0949493642
H 4.2316760449 1.7324637388 -0.4429915861
H 1.6660284571 -3.3227117058 -0.7675332877
H 5.8193408941 -2.0032459873 -1.2547792686
H 7.7785645822 -0.425410874 -1.3319468777
H 6.5618091874 0.5456207191 -2.2154376856
H 7.6802481003 1.05015002 0.5360655744
H 6.5329427619 2.1024344966 -0.3502335327
H 5.5432499582 0.7141150713 1.8788900302
H 0.2584155386 -2.2127460565 -0.494559234
H 1.1541594236 -2.8863605947 0.9274805512
H -6.5222738347 4.333251605 -0.4773265689
H -5.5745093996 3.7800835965 -1.9152002279
H -4.7135398136 4.3495985037 -0.441957544
H -0.6929390147 2.6865061544 0.4563406429
H -0.2101498597 1.730887731 -0.9937047161
H 0.4838717321 1.1716931458 1.9804900787
H 0.5134310351 -0.1605667875 0.7710326373
$end

$rem
JOBTYPE                   OPT
METHOD                    B3LYP
DFT_D                     d3_op
BASIS                     STO-3G
GEOM_OPT_MAX_CYCLES       100
GEOM_OPT_TOL_GRADIENT     300
GEOM_OPT_TOL_DISPLACEMENT 1200
GEOM_OPT_TOL_ENERGY       100
SYMMETRY                  False
THRESH                    12
SCF_CONVERGENCE           8
MAX_SUB_FILE_NUM          128
MEM_STATIC                400
MEM_TOTAL                 4000
$end
--------------------------------------------------------------

   16   -1510.2669593746      5.34E-09 Convergence criterion met
 Total energy in the final basis set = -1510.26695937
   14   -1510.2704936259      7.73E-09 Convergence criterion met
 Total energy in the final basis set = -1510.27049363
   14   -1510.2734528591      9.67E-09 Convergence criterion met
 Total energy in the final basis set = -1510.27345286
   14   -1510.2751445823      4.07E-09 Convergence criterion met
 Total energy in the final basis set = -1510.27514458
   13   -1510.2763281196      5.26E-09 Convergence criterion met
 Total energy in the final basis set = -1510.27632812
   13   -1510.2774675491      3.85E-09 Convergence criterion met
 Total energy in the final basis set = -1510.27746755
   13   -1510.2783321845      6.96E-09 Convergence criterion met
 Total energy in the final basis set = -1510.27833218
   13   -1510.2790874258      2.94E-09 Convergence criterion met
   13   -1510.3039332154      2.79E-09 Convergence criterion met
 Total energy in the final basis set = -1510.30393322
   12   -1510.3041885387      8.29E-09 Convergence criterion met
 Total energy in the final basis set = -1510.30418854
   11   -1510.3041864712      7.00E-09 Convergence criterion met
 Total energy in the final basis set = -1510.30418647
   11   -1510.3041997650      6.59E-09 Convergence criterion met
 Total energy in the final basis set = -1510.30419977
   10   -1510.3042008836      9.57E-09 Convergence criterion met
 Total energy in the final basis set = -1510.30420088
    9   -1510.3041972094      6.75E-09 Convergence criterion met
 Total energy in the final basis set = -1510.30419721

             Standard Nuclear Orientation (Angstroms)
    I     Atom           X                Y                Z
 ----------------------------------------------------------------
    1      O       1.3184089590    -1.7996733767    -1.8728598423
    2      C       1.7340745855    -0.6484836388    -1.6173009468
    3      C       3.1244694310    -0.2866093338    -0.9806393694
    4      C       3.0776722322     0.7473448090     0.2204304336
    5      C       1.6369963323     1.1813307162     0.6560043873
    6      O       1.4488216953     2.5572923709     0.3126087185
    7      C       0.1710012315     3.0722631719     0.8577595538
    8      C      -1.0869307082     2.7573983790    -0.0378323913
    9      O      -1.4849644357     1.3326938520    -0.0550501877
   10      C      -2.0146580233     0.9408990912     1.2204153684
   11      C      -2.4213746113    -0.5683149328     1.1642257873
   12      C      -3.5315671205    -0.9154555822     0.0841326118
   13      C      -3.8131885775     0.2677185712    -0.9101887188
   14      O      -3.6262423234     0.2874633017    -2.1446049355
   15      O       1.0354843903     0.5578661728    -1.9119030321
   16      O      -4.3589963131     1.3624303337    -0.1602348298
   17      O      -2.1187474687     1.7078544840     2.2018556696
   18      C      -4.6125235516     2.5102055646    -1.0599552360
   19      C      -1.2366307183    -1.5279054374     0.6996322641
   20      C      -1.5690498206    -2.9769111356     1.2195579599
   21      C      -2.7667260552    -3.3717026769     0.2723381294
   22      C      -2.8420692936    -2.1147188856    -0.6794633618
   23      O      -1.4330922383    -1.6673220535    -0.7622439757
   24      H      -2.7683983228    -0.8401655136     2.1763656637
   25      H      -4.4802691460    -1.2079687383     0.5698510369
   26      H      -0.2264257742    -1.1196732867     0.9245227503
   27      H      -0.7037717518    -3.6423535920     1.0703274929
   28      H      -1.8462173662    -2.9865803934     2.2855701006
   29      H      -2.5414857848    -4.2804562778    -0.3079069581
   30      H      -3.7084136913    -3.5278958166     0.8228393031
   31      H      -3.2466080613    -2.2969654128    -1.6938823435
   32      O       0.8041685485     0.4983696881     1.2942493722
   33      C      -0.2658120273     0.2387335227    -2.5601291115
   34      C       3.7661702211    -1.5521240681    -0.2760055272
   35      C       5.3107958276    -1.2939012710    -0.0862488794
   36      C       5.2972776967    -0.2378883483     1.0807948079
   37      C       3.7491547643    -0.1207052687     1.3718566050
   38      O       3.2340216033    -1.4820550176     1.1061770662
   39      H       3.7764132598     0.0982724152    -1.7866269405
   40      H       3.6550628425     1.6587757030    -0.0132582886
   41      H      -0.7861642220     1.2038847900    -2.6877717445
   42      H       3.4843189708    -2.5120277881    -0.7513981820
   43      H       5.8220931498    -2.2216209144     0.2162985524
   44      H       5.7862495963    -0.9110585301    -1.0032980685
   45      H       5.8285212288    -0.6108502958     1.9708047007
   46      H       5.7376617258     0.7280886525     0.7860047498
   47      H       3.4842300940     0.1989160523     2.3983111862
   48      H      -0.8614371806    -0.4537777129    -1.9111202925
   49      H      -0.1018646579    -0.2233133527    -3.5545629640
   50      H      -4.9202653241     3.3489478255    -0.4088058928
   51      H      -5.4233562201     2.2880130592    -1.7838006420
   52      H      -3.7031418578     2.7905925856    -1.6286807115
   53      H      -1.9251431863     3.3911668891     0.3273266276
   54      H      -0.8673618612     3.0124979011    -1.0939252944
   55      H       0.2952514529     4.1735371299     0.9002434658
   56      H      -0.0150430680     2.6819596574     1.8803794862
 ----------------------------------------------------------------

    9   -1510.3041974078      8.41E-09 Convergence criterion met
 Total energy in the final basis set = -1510.30419741
 Final energy is   -1510.30419740777
 **  OPTIMIZATION CONVERGED  **

                    Orbital Energies (a.u.)
 --------------------------------------------------------------

 Alpha MOs
 -- Occupied --
-18.936 -18.933 -18.931 -18.916 -18.895 -18.883 -18.875 -18.874
-18.870 -18.859 -10.102 -10.099 -10.098 -10.084 -10.074 -10.071
-10.065 -10.059 -10.057 -10.052 -10.048 -10.037 -10.035 -10.032
-10.030 -10.020 -10.018 -10.017 -10.016 -10.013  -1.017  -1.011
 -1.003  -0.993  -0.971  -0.966  -0.937  -0.936  -0.933  -0.919
 -0.762  -0.758  -0.725  -0.719  -0.709  -0.701  -0.694  -0.663
 -0.637  -0.617  -0.594  -0.580  -0.545  -0.539  -0.533  -0.532
 -0.508  -0.505  -0.478  -0.473  -0.463  -0.452  -0.446  -0.440
 -0.429  -0.427  -0.425  -0.414  -0.413  -0.403  -0.398  -0.390
 -0.385  -0.373  -0.370  -0.366  -0.359  -0.355  -0.348  -0.346
 -0.342  -0.338  -0.334  -0.327  -0.326  -0.322  -0.319  -0.307
 -0.304  -0.301  -0.300  -0.293  -0.289  -0.286  -0.278  -0.270
 -0.266  -0.253  -0.251  -0.246  -0.242  -0.231  -0.223  -0.191
 -0.177  -0.164  -0.160  -0.155  -0.153  -0.147  -0.142  -0.141
 -0.136

          Ground-State Mulliken Net Atomic Charges

     Atom                 Charge (a.u.)
  ----------------------------------------
      1 O                    -0.211045
      2 C                     0.206712
      3 C                    -0.079469
      4 C                    -0.078842
      5 C                     0.220116
      6 O                    -0.167809
      7 C                    -0.053131
      8 C                    -0.048457
      9 O                    -0.171889
     10 C                     0.220266
     11 C                    -0.080114
     12 C                    -0.078963
     13 C                     0.213536
     14 O                    -0.211514
     15 O                    -0.177252
     16 O                    -0.173446
     17 O                    -0.217212
     18 C                    -0.128937
     19 C                     0.019990
     20 C                    -0.142032
     21 C                    -0.143970
     22 C                     0.027299
     23 O                    -0.182986
     24 H                     0.085713
     25 H                     0.085689
     26 H                     0.112275
     27 H                     0.082663
     28 H                     0.074047
     29 H                     0.079643
     30 H                     0.072526
     31 H                     0.090047
     32 O                    -0.221069
     33 C                    -0.147308
     34 C                     0.023095
     35 C                    -0.143902
     36 C                    -0.144315
     37 C                     0.025513
     38 O                    -0.189058
     39 H                     0.082901
     40 H                     0.085827
     41 H                     0.075676
     42 H                     0.091328
     43 H                     0.077453
     44 H                     0.072971
     45 H                     0.077362
     46 H                     0.072946
     47 H                     0.082084
     48 H                     0.124795
     49 H                     0.073717
     50 H                     0.089792
     51 H                     0.087780
     52 H                     0.088892
     53 H                     0.088335
     54 H                     0.091445
     55 H                     0.088840
     56 H                     0.101447
  ----------------------------------------
  Sum of atomic charges =     0.000000

                    Cartesian Multipole Moments
 -----------------------------------------------------------------
    Charge (ESU x 10^10)
                 0.0000
    Dipole Moment (Debye)
         X       0.0351      Y       1.7924      Z       0.2357
       Tot       1.8081
    Quadrupole Moments (Debye-Ang)
        XX    -141.2844     XY       2.6902     YY    -152.2289
        XZ       0.5718     YZ      -4.3205     ZZ    -165.9900

 Total job time:  175.17s(wall), 8354.00s(cpu)
        *  Thank you very much for using Q-Chem.  Have a nice day.  *
