 Q-Chem 5.0, Q-Chem, Inc., Pleasanton, CA (2017)
 Q-Chem 5.0.1 for Intel X86 EM64T Linux

User input:
--------------------------------------------------------------
$molecule
0  1
O 4.873290945 -2.7595001658 1.1481314613
C 4.3034654443 -1.8436975558 0.515576587
C 5.0233050329 -0.7069202679 -0.2924138913
C 4.1428413776 0.4648423213 -0.8830279018
C 2.78197217 0.6778922215 -0.1316507978
O 1.7673432127 0.9314009316 -1.1205646772
C 0.4213485671 0.7681608309 -0.5230427657
C -0.1858752087 -0.5654816981 -1.1032733395
O -1.449410825 -1.0327778523 -0.4759579326
C -2.4619962569 -0.0187174568 -0.4098640122
C -3.735763505 -0.7326350614 0.1637649535
C -4.8207752877 0.1803897268 0.8686702963
C -4.7158608881 1.7185423607 0.5645975143
O -4.7579845067 2.2939330022 -0.5423661457
O 2.8925603604 -1.8282389735 0.2594417688
O -4.5507380593 2.4019998307 1.8163305745
O -2.3166254145 1.1662635197 -0.7754724495
C -4.4245263971 3.8583474737 1.5785505821
C -4.6166034683 -1.4655595274 -0.949099217
C -5.3724936143 -2.6526999136 -0.2356333483
C -6.4155829044 -1.854818358 0.6328462089
C -6.138794433 -0.3696954524 0.164605974
O -5.7037686718 -0.5089146091 -1.2447056795
H -3.3624381897 -1.4844893211 0.8823676807
H -4.825998811 0.0354602312 1.9628059552
H -4.0688758366 -1.7356510614 -1.872706369
H -5.8746448101 -3.2890503599 -0.9820750947
H -4.697516653 -3.2796899515 0.368449175
H -7.4506462146 -2.1489378438 0.3973052149
H -6.2507545698 -1.9802105591 1.715152908
H -7.0082284382 0.3123521378 0.2325493357
O 2.5836771138 0.7183077343 1.1013809064
C 2.232695479 -2.9328008245 0.9934548587
C 6.1357001106 0.0984531336 0.5135187503
C 7.229392526 0.5401148135 -0.5344381546
C 6.4263636602 1.6205365441 -1.3523874437
C 5.0801904636 1.7021879549 -0.5262313242
O 5.484297184 1.3807544837 0.8631333272
H 5.5127864258 -1.2340528446 -1.1340748583
H 3.9522859286 0.3537496846 -1.9640016155
H 2.4007798016 -2.851757008 2.086335606
H 6.5122223833 -0.4154746196 1.4192184296
H 8.0942300923 0.987869766 -0.0188402243
H 7.5808874047 -0.2980534598 -1.157073446
H 6.9390573911 2.5952482645 -1.3536464996
H 6.2483286038 1.3156187198 -2.3963592916
H 4.5677263243 2.6832297237 -0.5620279091
H 2.5970162838 -3.9233108176 0.651680152
H 1.1519680272 -2.8404802224 0.7793708338
H -4.2789478351 4.3199503024 2.5724777473
H -5.3365375467 4.2766941029 1.1054660237
H -3.5557696807 4.0897717877 0.9289182401
H -0.337368314 -0.438586808 -2.1981909034
H 0.5373584954 -1.3910461166 -0.9443026981
H -0.2182213237 1.6246796072 -0.8132557411
H 0.512710692 0.7204927066 0.583627649
$end

$rem
JOBTYPE                   OPT
METHOD                    B3LYP
DFT_D                     d3_op
BASIS                     STO-3G
GEOM_OPT_MAX_CYCLES       100
GEOM_OPT_TOL_GRADIENT     300
GEOM_OPT_TOL_DISPLACEMENT 1200
GEOM_OPT_TOL_ENERGY       100
SYMMETRY                  False
THRESH                    12
SCF_CONVERGENCE           8
MAX_SUB_FILE_NUM          128
MEM_STATIC                400
MEM_TOTAL                 4000
$end
--------------------------------------------------------------

   15   -1510.2706315515      8.67E-09 Convergence criterion met
 Total energy in the final basis set = -1510.27063155
   14   -1510.2738491026      7.14E-09 Convergence criterion met
 Total energy in the final basis set = -1510.27384910
   14   -1510.2763050221      6.32E-09 Convergence criterion met
 Total energy in the final basis set = -1510.27630502
   14   -1510.2783744315      4.67E-09 Convergence criterion met
 Total energy in the final basis set = -1510.27837443
   13   -1510.2803592780      6.78E-09 Convergence criterion met
 Total energy in the final basis set = -1510.28035928
   13   -1510.2823189518      7.27E-09 Convergence criterion met
 Total energy in the final basis set = -1510.28231895
   13   -1510.2838245171      6.03E-09 Convergence criterion met
 Total energy in the final basis set = -1510.28382452
   12   -1510.2849666887      9.90E-09 Convergence criterion met
   12   -1510.2890104762      3.31E-09 Convergence criterion met
 Total energy in the final basis set = -1510.28901048
   12   -1510.2890289244      2.37E-09 Convergence criterion met
 Total energy in the final basis set = -1510.28902892
   12   -1510.2890398492      3.98E-09 Convergence criterion met
 Total energy in the final basis set = -1510.28903985
   12   -1510.2890449872      3.06E-09 Convergence criterion met
 Total energy in the final basis set = -1510.28904499
   10   -1510.2890435771      6.28E-09 Convergence criterion met
 Total energy in the final basis set = -1510.28904358
    9   -1510.2890447694      9.99E-09 Convergence criterion met
 Total energy in the final basis set = -1510.28904477

             Standard Nuclear Orientation (Angstroms)
    I     Atom           X                Y                Z
 ----------------------------------------------------------------
    1      O       5.1129669756    -2.4098832389     1.1342696988
    2      C       4.6997228516    -1.9245944683     0.0606076289
    3      C       5.1202571557    -0.5540574420    -0.5890486013
    4      C       3.9723540655     0.5353614835    -0.6189202782
    5      C       2.6617807940     0.0534327478     0.0829220646
    6      O       1.5954691518     0.9314966809    -0.2913898044
    7      C       0.3287004363     0.5203598329     0.3624524624
    8      C      -0.3178242007    -0.7141585685    -0.3741377664
    9      O      -1.5865153304    -1.1232210273     0.2774575071
   10      C      -2.6479526463    -0.2372479528    -0.0917805614
   11      C      -3.9633830332    -0.7196464042     0.6021421588
   12      C      -5.1061669800     0.3762510092     0.5836898186
   13      C      -4.6799523516     1.7525788764    -0.0506968588
   14      O      -5.0911724946     2.2508249719    -1.1192128249
   15      O       3.8375525237    -2.6070799718    -0.8639770264
   16      O      -3.8149513850     2.4214819621     0.8804955681
   17      O      -2.5150499095     0.7343135078    -0.8697119964
   18      C      -3.3379818769     3.6914503441     0.2906225038
   19      C      -4.6520525142    -1.8776244057    -0.2485269726
   20      C      -5.7777240628    -2.5470847624     0.6357127819
   21      C      -6.9069016767    -1.4515121910     0.5735679107
   22      C      -6.2047550206    -0.3435862492    -0.3035458572
   23      O      -5.4069719725    -1.1283501620    -1.2756837927
   24      H      -3.7222166053    -1.0585168257     1.6252317779
   25      H      -5.4693315861     0.5697766245     1.6092009425
   26      H      -3.9401102384    -2.5830663322    -0.7198945903
   27      H      -6.1078152979    -3.4953698097     0.1825367109
   28      H      -5.4335715091    -2.7480613188     1.6628806453
   29      H      -7.8089327676    -1.8306646194     0.0674585561
   30      H      -7.1913249402    -1.0761335399     1.5695717354
   31      H      -6.8794898528     0.3538947706    -0.8365746529
   32      O       2.5344201526    -0.9117488531     0.8696927429
   33      C       3.3627224472    -3.8719654651    -0.2614799037
   34      C       6.2141283899     0.1795887687     0.2915986857
   35      C       6.9116546468     1.2817519612    -0.5963695077
   36      C       5.7770027874     2.3710552900    -0.6709436969
   37      C       4.6540561950     1.7054991924     0.2195287658
   38      O       5.4114945849     0.9701312234     1.2550755080
   39      H       5.4843195235    -0.7574638372    -1.6122932403
   40      H       3.7274012976     0.8615127933    -1.6452176750
   41      H       2.7602483078    -3.6802366763     0.6503615221
   42      H       6.8913132770    -0.5098290023     0.8319282510
   43      H       7.8116024918     1.6706434897    -0.0939641047
   44      H       7.1981686323     0.8970914569    -1.5882376718
   45      H       6.1020050197     3.3259588053    -0.2281514567
   46      H       5.4322506331     2.5587789837    -1.7004268107
   47      H       3.9375975016     2.4118069513     0.6827406934
   48      H       4.2051658181    -4.5418555150     0.0068424041
   49      H       2.7312651829    -4.3599090201    -1.0268108371
   50      H      -2.7042883354     4.1698957538     1.0600038420
   51      H      -4.1795446510     4.3655733437     0.0303694635
   52      H      -2.7376208608     3.5074695575    -0.6242014428
   53      H      -0.4829340888    -0.4615720113    -1.4431401016
   54      H       0.3568108757    -1.5897313937    -0.2942829856
   55      H      -0.3482461682     1.3942601428     0.2835713456
   56      H       0.4952805966     0.2672190992     1.4310418841
 ----------------------------------------------------------------

    9   -1510.2890449970      7.16E-09 Convergence criterion met
 Total energy in the final basis set = -1510.28904500
 Final energy is   -1510.28904499700
 **  OPTIMIZATION CONVERGED  **

                    Orbital Energies (a.u.)
 --------------------------------------------------------------

 Alpha MOs
 -- Occupied --
-18.945 -18.945 -18.922 -18.921 -18.888 -18.888 -18.888 -18.887
-18.865 -18.864 -10.109 -10.109 -10.092 -10.092 -10.078 -10.077
-10.063 -10.063 -10.057 -10.057 -10.057 -10.057 -10.042 -10.042
-10.035 -10.035 -10.022 -10.022 -10.020 -10.020  -1.025  -1.020
 -1.000  -1.000  -0.971  -0.971  -0.948  -0.945  -0.927  -0.927
 -0.765  -0.764  -0.730  -0.723  -0.715  -0.707  -0.697  -0.657
 -0.656  -0.625  -0.598  -0.585  -0.547  -0.546  -0.538  -0.538
 -0.514  -0.512  -0.488  -0.474  -0.462  -0.455  -0.455  -0.453
 -0.438  -0.432  -0.431  -0.410  -0.408  -0.407  -0.405  -0.399
 -0.394  -0.390  -0.373  -0.367  -0.359  -0.359  -0.351  -0.348
 -0.345  -0.343  -0.340  -0.334  -0.334  -0.327  -0.326  -0.316
 -0.312  -0.308  -0.304  -0.304  -0.295  -0.282  -0.280  -0.279
 -0.273  -0.264  -0.253  -0.247  -0.247  -0.235  -0.235  -0.199
 -0.177  -0.167  -0.167  -0.164  -0.161  -0.146  -0.146  -0.144
 -0.144

          Ground-State Mulliken Net Atomic Charges

     Atom                 Charge (a.u.)
  ----------------------------------------
      1 O                    -0.213801
      2 C                     0.215786
      3 C                    -0.080998
      4 C                    -0.078279
      5 C                     0.213874
      6 O                    -0.169308
      7 C                    -0.052560
      8 C                    -0.052417
      9 O                    -0.169241
     10 C                     0.213745
     11 C                    -0.078263
     12 C                    -0.080941
     13 C                     0.215753
     14 O                    -0.213748
     15 O                    -0.178213
     16 O                    -0.178041
     17 O                    -0.208698
     18 C                    -0.129120
     19 C                     0.025550
     20 C                    -0.143630
     21 C                    -0.143971
     22 C                     0.024945
     23 O                    -0.188469
     24 H                     0.087816
     25 H                     0.083909
     26 H                     0.083759
     27 H                     0.078547
     28 H                     0.074090
     29 H                     0.078427
     30 H                     0.073492
     31 H                     0.090475
     32 O                    -0.208574
     33 C                    -0.129137
     34 C                     0.024937
     35 C                    -0.143948
     36 C                    -0.143624
     37 C                     0.025522
     38 O                    -0.188469
     39 H                     0.083978
     40 H                     0.087912
     41 H                     0.091396
     42 H                     0.090519
     43 H                     0.078435
     44 H                     0.073493
     45 H                     0.078560
     46 H                     0.074099
     47 H                     0.083830
     48 H                     0.087453
     49 H                     0.085689
     50 H                     0.085787
     51 H                     0.087540
     52 H                     0.091448
     53 H                     0.094511
     54 H                     0.096669
     55 H                     0.096871
     56 H                     0.094636
  ----------------------------------------
  Sum of atomic charges =     0.000000

                    Cartesian Multipole Moments
 -----------------------------------------------------------------
    Charge (ESU x 10^10)
                 0.0000
    Dipole Moment (Debye)
         X      -0.0112      Y      -0.0211      Z      -0.0116
       Tot       0.0266
    Quadrupole Moments (Debye-Ang)
        XX    -157.1645     XY      11.6046     YY    -152.7724
        XZ     -26.0521     YZ       4.1434     ZZ    -167.3535

 Total job time:  107.93s(wall), 5137.10s(cpu)
        *  Thank you very much for using Q-Chem.  Have a nice day.  *
