 Q-Chem 5.0, Q-Chem, Inc., Pleasanton, CA (2017)
 Q-Chem 5.0.1 for Intel X86 EM64T Linux

User input:
--------------------------------------------------------------
$molecule
0  1
O -3.94934 -3.66094 2.70899
C -3.26408 -4.56952 2.26188
C -3.36658 -6.02376 2.66595
C -2.29944 -6.98322 2.11414
C -1.14731 -6.3515 1.36473
O -0.84326 -7.10076 0.26401
C -0.02324 -6.40569 -0.68135
C -0.84087 -6.03577 -1.91454
O -0.08015 -5.16009 -2.76152
C 1.16891 -5.58811 -3.071
C 1.87584 -4.68136 -4.05014
C 3.40878 -4.76868 -4.02264
C 3.98941 -5.97012 -3.30424
O 3.7621 -7.13916 -3.58037
O -2.52408 -4.23703 1.17029
O 4.84894 -5.69553 -2.2882
O 1.40711 -6.78736 -3.07178
C 5.4761 -6.65445 -1.52066
C 1.6056 -5.026 -5.52921
C 1.84327 -3.78794 -6.39281
C 3.35291 -3.66756 -6.30624
C 3.68631 -4.94482 -5.52517
O 2.67968 -5.85188 -5.90846
H 1.52228 -3.64267 -3.8541
H 3.86896 -3.85114 -3.5922
H 0.58616 -5.43371 -5.70521
H 1.56851 -4.06679 -7.43556
H 1.2776 -2.87774 -6.09892
H 3.76762 -3.71038 -7.33772
H 3.72811 -2.76332 -5.77967
H 4.73343 -5.26547 -5.72207
O -0.40857 -5.4978 1.84786
C -2.40456 -2.96919 0.63715
C -3.10951 -6.18305 4.17995
C -3.72404 -7.48991 4.68105
C -2.7623 -8.49686 4.08861
C -1.74725 -7.5557 3.43282
O -1.73076 -6.43407 4.27946
H -4.40755 -6.34655 2.44122
H -2.74683 -7.7898 1.48881
H -1.96777 -2.27842 1.38951
H -3.49362 -5.33051 4.78237
H -3.61494 -7.50764 5.7892
H -4.79271 -7.63705 4.41422
H -2.28047 -9.05535 4.92197
H -3.20705 -9.21032 3.36161
H -0.77357 -8.07615 3.29273
H -3.39838 -2.59433 0.31191
H -1.73216 -3.00913 -0.24442
H 6.11827 -6.15446 -0.76693
H 6.11313 -7.30125 -2.16115
H 4.72099 -7.27521 -0.99241
H -1.14309 -6.95776 -2.45804
H -1.76073 -5.49356 -1.60843
H 0.85576 -7.04779 -0.87303
H 0.38418 -5.44267 -0.29644
$end

$opt
CONSTRAINT
tors           1           2           3           4    -172.686
tors           3           4           5           6    -138.924
tors           4           5           6           7    +164.345
tors           5           6           7           8    -107.789
tors           6           7           8           9    +170.892
tors           7           8           9          10     +51.162
tors           8           9          10          11    +175.401
tors           9          10          11          12    +157.046
tors          11          12          13          14     +58.045
ENDCONSTRAINT
$end

$rem
JOBTYPE                   OPT
METHOD                    B3LYP
DFT_D                     d3_op
BASIS                     STO-3G
GEOM_OPT_MAX_CYCLES       100
GEOM_OPT_TOL_GRADIENT     300
GEOM_OPT_TOL_DISPLACEMENT 1200
GEOM_OPT_TOL_ENERGY       100
SYMMETRY                  False
THRESH                    12
SCF_CONVERGENCE           8
MAX_SUB_FILE_NUM          128
MEM_STATIC                400
MEM_TOTAL                 4000
$end
--------------------------------------------------------------

   15   -1510.1209977550      6.46E-09 Convergence criterion met
 Total energy in the final basis set = -1510.12099776
   14   -1510.1950773551      7.88E-09 Convergence criterion met
 Total energy in the final basis set = -1510.19507736
   14   -1510.2357116925      8.25E-09 Convergence criterion met
 Total energy in the final basis set = -1510.23571169
   15   -1510.2555880564      1.18E-09 Convergence criterion met
 Total energy in the final basis set = -1510.25558806
   14   -1510.2633068176      5.96E-09 Convergence criterion met
 Total energy in the final basis set = -1510.26330682
   14   -1510.2669759137      3.42E-09 Convergence criterion met
 Total energy in the final basis set = -1510.26697591
   13   -1510.2689235916      4.10E-09 Convergence criterion met
 Total energy in the final basis set = -1510.26892359
   13   -1510.2699315410      4.99E-09 Convergence criterion met
   11   -1510.2706560189      5.36E-09 Convergence criterion met
 Total energy in the final basis set = -1510.27065602
   11   -1510.2706662889      2.16E-09 Convergence criterion met
 Total energy in the final basis set = -1510.27066629
    9   -1510.2706722404      8.13E-09 Convergence criterion met
 Total energy in the final basis set = -1510.27067224
    9   -1510.2706752533      5.59E-09 Convergence criterion met
 Total energy in the final basis set = -1510.27067525
    9   -1510.2706772333      5.84E-09 Convergence criterion met
 Total energy in the final basis set = -1510.27067723
    9   -1510.2706785418      5.30E-09 Convergence criterion met
 Total energy in the final basis set = -1510.27067854

             Standard Nuclear Orientation (Angstroms)
    I     Atom           X                Y                Z
 ----------------------------------------------------------------
    1      O       4.8732909450    -2.7595001658     1.1481314613
    2      C       4.3034654443    -1.8436975558     0.5155765870
    3      C       5.0233050329    -0.7069202679    -0.2924138913
    4      C       4.1428413776     0.4648423213    -0.8830279018
    5      C       2.7819721700     0.6778922215    -0.1316507978
    6      O       1.7673432127     0.9314009316    -1.1205646772
    7      C       0.4213485671     0.7681608309    -0.5230427657
    8      C      -0.1858752087    -0.5654816981    -1.1032733395
    9      O      -1.4494108250    -1.0327778523    -0.4759579326
   10      C      -2.4619962569    -0.0187174568    -0.4098640122
   11      C      -3.7357635050    -0.7326350614     0.1637649535
   12      C      -4.8207752877     0.1803897268     0.8686702963
   13      C      -4.7158608881     1.7185423607     0.5645975143
   14      O      -4.7579845067     2.2939330022    -0.5423661457
   15      O       2.8925603604    -1.8282389735     0.2594417688
   16      O      -4.5507380593     2.4019998307     1.8163305745
   17      O      -2.3166254145     1.1662635197    -0.7754724495
   18      C      -4.4245263971     3.8583474737     1.5785505821
   19      C      -4.6166034683    -1.4655595274    -0.9490992170
   20      C      -5.3724936143    -2.6526999136    -0.2356333483
   21      C      -6.4155829044    -1.8548183580     0.6328462089
   22      C      -6.1387944330    -0.3696954524     0.1646059740
   23      O      -5.7037686718    -0.5089146091    -1.2447056795
   24      H      -3.3624381897    -1.4844893211     0.8823676807
   25      H      -4.8259988110     0.0354602312     1.9628059552
   26      H      -4.0688758366    -1.7356510614    -1.8727063690
   27      H      -5.8746448101    -3.2890503599    -0.9820750947
   28      H      -4.6975166530    -3.2796899515     0.3684491750
   29      H      -7.4506462146    -2.1489378438     0.3973052149
   30      H      -6.2507545698    -1.9802105591     1.7151529080
   31      H      -7.0082284382     0.3123521378     0.2325493357
   32      O       2.5836771138     0.7183077343     1.1013809064
   33      C       2.2326954790    -2.9328008245     0.9934548587
   34      C       6.1357001106     0.0984531336     0.5135187503
   35      C       7.2293925260     0.5401148135    -0.5344381546
   36      C       6.4263636602     1.6205365441    -1.3523874437
   37      C       5.0801904636     1.7021879549    -0.5262313242
   38      O       5.4842971840     1.3807544837     0.8631333272
   39      H       5.5127864258    -1.2340528446    -1.1340748583
   40      H       3.9522859286     0.3537496846    -1.9640016155
   41      H       2.4007798016    -2.8517570080     2.0863356060
   42      H       6.5122223833    -0.4154746196     1.4192184296
   43      H       8.0942300923     0.9878697660    -0.0188402243
   44      H       7.5808874047    -0.2980534598    -1.1570734460
   45      H       6.9390573911     2.5952482645    -1.3536464996
   46      H       6.2483286038     1.3156187198    -2.3963592916
   47      H       4.5677263243     2.6832297237    -0.5620279091
   48      H       2.5970162838    -3.9233108176     0.6516801520
   49      H       1.1519680272    -2.8404802224     0.7793708338
   50      H      -4.2789478351     4.3199503024     2.5724777473
   51      H      -5.3365375467     4.2766941029     1.1054660237
   52      H      -3.5557696807     4.0897717877     0.9289182401
   53      H      -0.3373683140    -0.4385868080    -2.1981909034
   54      H       0.5373584954    -1.3910461166    -0.9443026981
   55      H      -0.2182213237     1.6246796072    -0.8132557411
   56      H       0.5127106920     0.7204927066     0.5836276490
 ----------------------------------------------------------------

    9   -1510.2706792856      3.57E-09 Convergence criterion met
 Total energy in the final basis set = -1510.27067929
 Final energy is   -1510.27067928559
 **  OPTIMIZATION CONVERGED  **

                    Orbital Energies (a.u.)
 --------------------------------------------------------------

 Alpha MOs
 -- Occupied --
-18.940 -18.935 -18.926 -18.924 -18.890 -18.889 -18.883 -18.877
-18.871 -18.868 -10.105 -10.104 -10.097 -10.091 -10.071 -10.069
-10.063 -10.061 -10.061 -10.061 -10.059 -10.058 -10.041 -10.039
-10.038 -10.036 -10.022 -10.022 -10.021 -10.021  -1.017  -1.014
 -1.004  -1.002  -0.972  -0.972  -0.942  -0.940  -0.930  -0.926
 -0.765  -0.763  -0.727  -0.723  -0.714  -0.706  -0.693  -0.666
 -0.658  -0.620  -0.598  -0.581  -0.547  -0.545  -0.539  -0.538
 -0.514  -0.513  -0.482  -0.469  -0.462  -0.456  -0.450  -0.448
 -0.441  -0.433  -0.431  -0.415  -0.412  -0.409  -0.405  -0.395
 -0.390  -0.383  -0.376  -0.368  -0.361  -0.359  -0.353  -0.348
 -0.344  -0.335  -0.335  -0.332  -0.330  -0.329  -0.323  -0.314
 -0.313  -0.308  -0.307  -0.302  -0.296  -0.293  -0.280  -0.275
 -0.271  -0.261  -0.252  -0.248  -0.241  -0.235  -0.234  -0.189
 -0.180  -0.172  -0.163  -0.158  -0.154  -0.152  -0.146  -0.143
 -0.139

          Ground-State Mulliken Net Atomic Charges

     Atom                 Charge (a.u.)
  ----------------------------------------
      1 O                    -0.213516
      2 C                     0.211533
      3 C                    -0.079413
      4 C                    -0.078411
      5 C                     0.217975
      6 O                    -0.178206
      7 C                    -0.062015
      8 C                    -0.052095
      9 O                    -0.175795
     10 C                     0.209678
     11 C                    -0.079497
     12 C                    -0.079986
     13 C                     0.209447
     14 O                    -0.201993
     15 O                    -0.171601
     16 O                    -0.172907
     17 O                    -0.205710
     18 C                    -0.129291
     19 C                     0.026873
     20 C                    -0.142169
     21 C                    -0.145177
     22 C                     0.026343
     23 O                    -0.184261
     24 H                     0.085803
     25 H                     0.086019
     26 H                     0.084263
     27 H                     0.078290
     28 H                     0.074156
     29 H                     0.078424
     30 H                     0.074059
     31 H                     0.083313
     32 O                    -0.211145
     33 C                    -0.127967
     34 C                     0.025992
     35 C                    -0.141864
     36 C                    -0.145339
     37 C                     0.025590
     38 O                    -0.185967
     39 H                     0.084896
     40 H                     0.087179
     41 H                     0.093730
     42 H                     0.089155
     43 H                     0.078719
     44 H                     0.073773
     45 H                     0.078849
     46 H                     0.073852
     47 H                     0.083725
     48 H                     0.089769
     49 H                     0.090762
     50 H                     0.088284
     51 H                     0.087073
     52 H                     0.091547
     53 H                     0.084740
     54 H                     0.090065
     55 H                     0.103473
     56 H                     0.096975
  ----------------------------------------
  Sum of atomic charges =    -0.000000

                    Cartesian Multipole Moments
 -----------------------------------------------------------------
    Charge (ESU x 10^10)
                 0.0000
    Dipole Moment (Debye)
         X       0.1244      Y      -1.9474      Z      -0.3067
       Tot       1.9753
    Quadrupole Moments (Debye-Ang)
        XX    -153.1989     XY       8.2534     YY    -155.4604
        XZ     -23.0153     YZ       3.1729     ZZ    -163.3285

 Total job time:  53.92s(wall), 2563.73s(cpu)
        *  Thank you very much for using Q-Chem.  Have a nice day.  *
