 Q-Chem 5.0, Q-Chem, Inc., Pleasanton, CA (2017)
 Q-Chem 5.0.1 for Intel X86 EM64T Linux

User input:
--------------------------------------------------------------
$molecule
0  1
O -2.3180489268 0.5917850411 1.7310201152
C -3.1929993362 1.0998330481 0.9966788285
C -4.3426557098 0.3688597992 0.2302527425
C -3.8565167684 -0.524818542 -0.990495902
C -2.293556436 -0.6090921115 -1.1709688343
O -1.8210695658 0.6838990311 -1.5576561886
C -0.3989742563 0.9625731937 -1.2099384658
C 0.1365741136 0.4087964261 0.1745159633
O 1.5327063499 -0.1101039105 0.2104055629
C 2.1020544053 -0.6443062889 -0.9744853972
C 3.5601655 -1.0986998106 -0.6114838049
C 4.5496982749 0.117704268 -0.3315342473
C 3.8182780262 1.5060657845 -0.3075265109
O 3.346311631 2.1166639312 0.6743046663
O -3.3199145646 2.507009495 0.7562097395
O 3.6931747472 1.9563077816 -1.6648074785
O 1.5848094052 -0.7324261619 -2.1150479692
C 2.9186755562 3.2172474617 -1.7111980163
C 3.6614553924 -1.8907839529 0.762606975
C 5.0328140575 -2.6753962839 0.7669062936
C 6.0527313047 -1.4972798197 0.9886516866
C 5.0737413707 -0.26268549 1.1151601537
O 3.8717897694 -0.8282775036 1.7700113144
H 3.9263609017 -1.7057376164 -1.4580800184
H 5.3563281282 0.1504118485 -1.0855188278
H 2.767142785 -2.4934288389 1.0130548057
H 5.0598131589 -3.3958465206 1.5999562155
H 5.2055417879 -3.2184493176 -0.1760771852
H 6.629928167 -1.6305755164 1.917411456
H 6.7558044745 -1.3810695111 0.1485010597
H 5.459841594 0.595445162 1.6983473384
O -1.5795517203 -1.6203647893 -0.9954918157
C -2.2517347575 3.2468836839 1.4668889503
C -5.0549637943 -0.7304284382 1.1336658013
C -6.4502039516 -1.0733970916 0.4786383652
C -5.9983724678 -1.9325197381 -0.7605659424
C -4.4308966489 -1.9410860453 -0.5720725161
O -4.2515257743 -1.9497488498 0.8992186525
H -5.0562901296 1.1373451017 -0.1152399111
H -4.2998447353 -0.1565668843 -1.9339165151
H -1.2702757228 3.1155646082 0.967162813
H -5.0842661986 -0.4875389351 2.2134649109
H -7.0662677853 -1.6633765733 1.1758464053
H -7.0095500321 -0.1692763529 0.1898153287
H -6.3991203473 -2.9573003684 -0.7109681779
H -6.2960809469 -1.481758004 -1.7207939807
H -3.8929718347 -2.7944338247 -1.0286416978
H -2.1560899705 2.9157414514 2.5205708769
H -2.5382220713 4.3139865499 1.4318260035
H 2.8147219567 3.4735538481 -2.7815312519
H 3.4415343021 4.040104349 -1.1819334377
H 1.9132155528 3.0943590735 -1.2598184618
H 0.1249629511 1.2042491326 0.9467124815
H -0.5273716138 -0.4089515473 0.5268658694
H -0.3210192444 2.0664067712 -1.2432581318
H 0.2616411963 0.5044866801 -1.9855604778
$end

$rem
JOBTYPE                   OPT
METHOD                    B3LYP
DFT_D                     d3_op
BASIS                     STO-3G
GEOM_OPT_MAX_CYCLES       100
GEOM_OPT_TOL_GRADIENT     300
GEOM_OPT_TOL_DISPLACEMENT 1200
GEOM_OPT_TOL_ENERGY       100
SYMMETRY                  False
THRESH                    12
SCF_CONVERGENCE           8
MAX_SUB_FILE_NUM          128
MEM_STATIC                400
MEM_TOTAL                 4000
$end
--------------------------------------------------------------

   16   -1510.2672756275      5.63E-09 Convergence criterion met
 Total energy in the final basis set = -1510.26727563
   14   -1510.2696716863      4.13E-09 Convergence criterion met
 Total energy in the final basis set = -1510.26967169
   13   -1510.2728660295      6.59E-09 Convergence criterion met
 Total energy in the final basis set = -1510.27286603
   14   -1510.2756542786      3.86E-09 Convergence criterion met
 Total energy in the final basis set = -1510.27565428
   14   -1510.2778646753      4.40E-09 Convergence criterion met
 Total energy in the final basis set = -1510.27786468
   14   -1510.2794881330      2.72E-09 Convergence criterion met
 Total energy in the final basis set = -1510.27948813
   13   -1510.2810956114      9.05E-09 Convergence criterion met
 Total energy in the final basis set = -1510.28109561
   13   -1510.2825645994      5.12E-09 Convergence criterion met
   13   -1510.2898616167      4.03E-09 Convergence criterion met
 Total energy in the final basis set = -1510.28986162
   12   -1510.2898420217      4.93E-09 Convergence criterion met
 Total energy in the final basis set = -1510.28984202
   12   -1510.2898765718      3.59E-09 Convergence criterion met
 Total energy in the final basis set = -1510.28987657
   12   -1510.2898691122      3.23E-09 Convergence criterion met
 Total energy in the final basis set = -1510.28986911
   12   -1510.2898917761      2.87E-09 Convergence criterion met
 Total energy in the final basis set = -1510.28989178
   11   -1510.2898823000      5.39E-09 Convergence criterion met
 Total energy in the final basis set = -1510.28988230

             Standard Nuclear Orientation (Angstroms)
    I     Atom           X                Y                Z
 ----------------------------------------------------------------
    1      O      -1.9463295756    -0.4269873040     1.1680426995
    2      C      -3.0131729937     0.1761067764     1.4298868392
    3      C      -4.2197562576     0.4215629261     0.4660044031
    4      C      -3.8063555740     0.4094363428    -1.0630870894
    5      C      -2.2605454534     0.3016046098    -1.3246462611
    6      O      -1.6516706822     1.5288756555    -0.8869678922
    7      C      -0.1772113747     1.4352524936    -1.0118256252
    8      C       0.4385149390     1.1615581544     0.4125377996
    9      O       1.8467293410     0.7038090368     0.3508412686
   10      C       1.9046393289    -0.6944853197     0.0331280339
   11      C       3.3931101884    -1.1671835690     0.1243171510
   12      C       4.4488481503    -0.1954638741    -0.5465706945
   13      C       3.8373994938     1.0331980405    -1.3083394578
   14      O       4.0919443722     2.2427001786    -1.1308229698
   15      O      -3.3281328662     0.7234165465     2.7104619306
   16      O       2.9775454059     0.5288941744    -2.3417988334
   17      O       0.9052477551    -1.4059860995    -0.2037637612
   18      C       2.4985517696     1.6409545674    -3.1931758658
   19      C       3.8962433367    -1.1333347508     1.6358340454
   20      C       5.2486137249    -1.9464924394     1.7318854913
   21      C       6.2669719937    -0.9241335105     1.1026344486
   22      C       5.2988078234     0.2595386676     0.7111533540
   23      O       4.3135803017     0.2734992442     1.8176602552
   24      H       3.4484311752    -2.1852838942    -0.2989227016
   25      H       5.0722224894    -0.7545116415    -1.2690104168
   26      H       3.1257727410    -1.4113992460     2.3811731661
   27      H       5.4924418282    -2.1672561544     2.7832239583
   28      H       5.1984112236    -2.8954521216     1.1743962557
   29      H       7.0097016501    -0.5865450140     1.8432181563
   30      H       6.7985962891    -1.3351434077     0.2296213351
   31      H       5.7675363574     1.2565031690     0.5985459118
   32      O      -1.6551535827    -0.6236924995    -1.9053135037
   33      C      -2.2130863211     0.4777044938     3.6563632191
   34      C      -5.2152212115    -0.8222232418     0.5057419177
   35      C      -6.5508619675    -0.4264936243    -0.2408305399
   36      C      -6.0983830277    -0.5107397122    -1.7460690219
   37      C      -4.5733303044    -0.8785143343    -1.5801022281
   38      O      -4.5676782946    -1.7869163400    -0.4085927656
   39      H      -4.7241240613     1.3592457833     0.7580655471
   40      H      -4.1708645963     1.3257609639    -1.5622985630
   41      H      -1.2922001673     1.0109697744     3.3436594484
   42      H      -5.3515158420    -1.2659808347     1.5112341944
   43      H      -7.3462585014    -1.1543102886    -0.0149379648
   44      H      -6.9017807127     0.5788316231     0.0429054125
   45      H      -6.6312644719    -1.3123724770    -2.2820680202
   46      H      -6.2435295915     0.4363730979    -2.2899555217
   47      H      -4.0928927591    -1.3696205383    -2.4487333849
   48      H      -1.9825481528    -0.6035338171     3.7430041399
   49      H      -2.5512131134     0.8671819453     4.6339838227
   50      H       1.6503520046     1.2433094409    -3.7801641164
   51      H       3.2948739220     1.9839861934    -3.8859277546
   52      H       2.1667579577     2.5066659280    -2.5868992050
   53      H       0.4548909000     2.0936304386     1.0110117039
   54      H      -0.2150596791     0.4045993572     0.9084426720
   55      H       0.1834750204     2.3942752302    -1.4327004904
   56      H       0.0728444540     0.5929875277    -1.6920303207
 ----------------------------------------------------------------

   11   -1510.2898828102      4.98E-09 Convergence criterion met
 Total energy in the final basis set = -1510.28988281
 Final energy is   -1510.28988281020
 **  OPTIMIZATION CONVERGED  **

                    Orbital Energies (a.u.)
 --------------------------------------------------------------

 Alpha MOs
 -- Occupied --
-18.945 -18.926 -18.924 -18.920 -18.888 -18.886 -18.883 -18.871
-18.869 -18.868 -10.107 -10.095 -10.093 -10.089 -10.070 -10.062
-10.060 -10.057 -10.056 -10.056 -10.053 -10.052 -10.041 -10.036
-10.033 -10.031 -10.021 -10.019 -10.017 -10.016  -1.020  -1.008
 -1.002  -0.998  -0.970  -0.966  -0.943  -0.930  -0.930  -0.925
 -0.764  -0.759  -0.725  -0.720  -0.708  -0.702  -0.687  -0.668
 -0.659  -0.611  -0.594  -0.580  -0.545  -0.540  -0.536  -0.533
 -0.512  -0.506  -0.478  -0.476  -0.461  -0.460  -0.454  -0.440
 -0.432  -0.428  -0.425  -0.417  -0.413  -0.408  -0.402  -0.398
 -0.385  -0.375  -0.369  -0.365  -0.357  -0.355  -0.351  -0.347
 -0.343  -0.342  -0.333  -0.329  -0.326  -0.324  -0.318  -0.311
 -0.305  -0.303  -0.301  -0.300  -0.290  -0.286  -0.281  -0.272
 -0.268  -0.259  -0.248  -0.246  -0.234  -0.233  -0.230  -0.185
 -0.178  -0.171  -0.162  -0.155  -0.150  -0.149  -0.144  -0.141
 -0.139

          Ground-State Mulliken Net Atomic Charges

     Atom                 Charge (a.u.)
  ----------------------------------------
      1 O                    -0.207420
      2 C                     0.216991
      3 C                    -0.077683
      4 C                    -0.079556
      5 C                     0.215884
      6 O                    -0.181845
      7 C                    -0.058106
      8 C                    -0.061720
      9 O                    -0.171876
     10 C                     0.209306
     11 C                    -0.078374
     12 C                    -0.078591
     13 C                     0.216235
     14 O                    -0.214227
     15 O                    -0.166684
     16 O                    -0.174455
     17 O                    -0.202873
     18 C                    -0.129710
     19 C                     0.025768
     20 C                    -0.144139
     21 C                    -0.143760
     22 C                     0.024610
     23 O                    -0.187284
     24 H                     0.085811
     25 H                     0.083444
     26 H                     0.081779
     27 H                     0.077068
     28 H                     0.073903
     29 H                     0.077247
     30 H                     0.072679
     31 H                     0.089665
     32 O                    -0.204009
     33 C                    -0.128974
     34 C                     0.025788
     35 C                    -0.143922
     36 C                    -0.143721
     37 C                     0.025036
     38 O                    -0.186854
     39 H                     0.087833
     40 H                     0.084221
     41 H                     0.090130
     42 H                     0.083114
     43 H                     0.078510
     44 H                     0.073770
     45 H                     0.078484
     46 H                     0.073198
     47 H                     0.091686
     48 H                     0.092853
     49 H                     0.092914
     50 H                     0.090280
     51 H                     0.083928
     52 H                     0.090964
     53 H                     0.081990
     54 H                     0.107819
     55 H                     0.079370
     56 H                     0.103506
  ----------------------------------------
  Sum of atomic charges =    -0.000000

                    Cartesian Multipole Moments
 -----------------------------------------------------------------
    Charge (ESU x 10^10)
                -0.0000
    Dipole Moment (Debye)
         X      -1.2142      Y       0.9300      Z       0.4271
       Tot       1.5880
    Quadrupole Moments (Debye-Ang)
        XX    -139.0447     XY     -13.9235     YY    -165.7995
        XZ      -3.1326     YZ      -6.2073     ZZ    -149.7630

 Total job time:  85.52s(wall), 4076.41s(cpu)
        *  Thank you very much for using Q-Chem.  Have a nice day.  *
