 Q-Chem 5.0, Q-Chem, Inc., Pleasanton, CA (2017)
 Q-Chem 5.0.1 for Intel X86 EM64T Linux

User input:
--------------------------------------------------------------
$molecule
0  1
O -3.94934 -3.66094 2.70899
C -3.26408 -4.56952 2.26188
C -3.36658 -6.02376 2.66595
C -2.89052 -6.39538 4.07985
C -2.53128 -5.2454 4.99451
O -1.41285 -4.61443 4.52928
C -1.32572 -3.24623 4.9412
C -2.70911 -2.60422 4.92806
O -2.84251 -1.70624 6.04104
C -2.08942 -2.00847 7.12763
C -2.27361 -1.02881 8.26209
C -1.68622 0.36803 8.01293
C -1.33185 0.68894 6.57482
O -2.06708 1.2428 5.7703
O -2.39784 -4.29246 1.25202
O -0.15177 0.17883 6.13524
O -1.75756 -3.14254 7.45721
C 0.31337 0.3005 4.84269
C -3.74797 -0.68733 8.55659
C -3.88567 -0.2009 9.99808
C -3.20101 1.14701 9.90519
C -2.9254 1.21048 8.39759
O -3.98728 0.48671 7.82476
H -1.83257 -1.48684 9.17851
H -0.814 0.63146 8.6508
H -4.44089 -1.53596 8.36555
H -4.97188 -0.03695 10.18192
H -3.48302 -0.88443 10.77623
H -3.93015 1.93109 10.20787
H -2.26434 1.24731 10.49516
H -2.82858 2.27001 8.07159
O -3.03158 -5.06807 6.10045
C -2.1832 -3.03108 0.73725
C -4.8235 -6.51381 2.71009
C -4.86958 -8.0322 2.54885
C -4.32683 -8.4747 3.89146
C -4.15682 -7.11898 4.58616
O -5.19966 -6.33689 4.05452
H -2.79371 -6.60696 1.90876
H -2.00912 -7.07512 4.06093
H -1.80091 -2.35431 1.53121
H -5.47093 -6.02474 1.94931
H -5.94138 -8.3277 2.4855
H -4.32639 -8.42593 1.66293
H -5.11173 -9.07252 4.40634
H -3.37624 -9.04955 3.85497
H -4.16215 -7.26062 5.68898
H -3.12724 -2.6226 0.31744
H -1.42863 -3.09254 -0.07343
H 1.29443 -0.21031 4.75959
H 0.44353 1.3727 4.58259
H -0.39805 -0.17364 4.13328
H -2.78891 -1.98375 4.00881
H -3.64846 -3.1805 4.94651
H -0.78465 -2.72234 4.12313
H -0.50121 -3.1084 5.6673
$end

$opt
CONSTRAINT
tors           1           2           3           4     -70.043
tors           3           4           5           6     -67.452
tors           4           5           6           7    +154.648
tors           5           6           7           8     -37.910
tors           6           7           8           9    +142.210
tors           7           8           9          10     -27.790
tors           8           9          10          11    -180.000
tors           9          10          11          12     -70.081
tors          11          12          13          14     +92.817
ENDCONSTRAINT
$end

$rem
JOBTYPE                   OPT
METHOD                    B3LYP
DFT_D                     d3_op
BASIS                     STO-3G
GEOM_OPT_MAX_CYCLES       100
GEOM_OPT_TOL_GRADIENT     300
GEOM_OPT_TOL_DISPLACEMENT 1200
GEOM_OPT_TOL_ENERGY       100
SYMMETRY                  False
THRESH                    12
SCF_CONVERGENCE           8
MAX_SUB_FILE_NUM          128
MEM_STATIC                400
MEM_TOTAL                 4000
$end
--------------------------------------------------------------

   15   -1510.0936879505      7.39E-09 Convergence criterion met
 Total energy in the final basis set = -1510.09368795
   14   -1510.1717199493      6.61E-09 Convergence criterion met
 Total energy in the final basis set = -1510.17171995
   14   -1510.2163198019      5.85E-09 Convergence criterion met
 Total energy in the final basis set = -1510.21631980
   14   -1510.2424712163      6.11E-09 Convergence criterion met
 Total energy in the final basis set = -1510.24247122
   14   -1510.2545791348      4.09E-09 Convergence criterion met
 Total energy in the final basis set = -1510.25457913
   14   -1510.2604270198      4.61E-09 Convergence criterion met
 Total energy in the final basis set = -1510.26042702
   13   -1510.2640903656      3.97E-09 Convergence criterion met
 Total energy in the final basis set = -1510.26409037
   13   -1510.2660197396      6.96E-09 Convergence criterion met
   10   -1510.2673190545      9.46E-09 Convergence criterion met
 Total energy in the final basis set = -1510.26731905
    9   -1510.2673214819      4.85E-09 Convergence criterion met
 Total energy in the final basis set = -1510.26732148
   11   -1510.2673249784      3.08E-09 Convergence criterion met
 Total energy in the final basis set = -1510.26732498
    9   -1510.2673278756      5.58E-09 Convergence criterion met
 Total energy in the final basis set = -1510.26732788
    9   -1510.2673296606      7.78E-09 Convergence criterion met
 Total energy in the final basis set = -1510.26732966
    9   -1510.2673307869      5.82E-09 Convergence criterion met
 Total energy in the final basis set = -1510.26733079

             Standard Nuclear Orientation (Angstroms)
    I     Atom           X                Y                Z
 ----------------------------------------------------------------
    1      O      -2.3180489268     0.5917850411     1.7310201152
    2      C      -3.1929993362     1.0998330481     0.9966788285
    3      C      -4.3426557098     0.3688597992     0.2302527425
    4      C      -3.8565167684    -0.5248185420    -0.9904959020
    5      C      -2.2935564360    -0.6090921115    -1.1709688343
    6      O      -1.8210695658     0.6838990311    -1.5576561886
    7      C      -0.3989742563     0.9625731937    -1.2099384658
    8      C       0.1365741136     0.4087964261     0.1745159633
    9      O       1.5327063499    -0.1101039105     0.2104055629
   10      C       2.1020544053    -0.6443062889    -0.9744853972
   11      C       3.5601655000    -1.0986998106    -0.6114838049
   12      C       4.5496982749     0.1177042680    -0.3315342473
   13      C       3.8182780262     1.5060657845    -0.3075265109
   14      O       3.3463116310     2.1166639312     0.6743046663
   15      O      -3.3199145646     2.5070094950     0.7562097395
   16      O       3.6931747472     1.9563077816    -1.6648074785
   17      O       1.5848094052    -0.7324261619    -2.1150479692
   18      C       2.9186755562     3.2172474617    -1.7111980163
   19      C       3.6614553924    -1.8907839529     0.7626069750
   20      C       5.0328140575    -2.6753962839     0.7669062936
   21      C       6.0527313047    -1.4972798197     0.9886516866
   22      C       5.0737413707    -0.2626854900     1.1151601537
   23      O       3.8717897694    -0.8282775036     1.7700113144
   24      H       3.9263609017    -1.7057376164    -1.4580800184
   25      H       5.3563281282     0.1504118485    -1.0855188278
   26      H       2.7671427850    -2.4934288389     1.0130548057
   27      H       5.0598131589    -3.3958465206     1.5999562155
   28      H       5.2055417879    -3.2184493176    -0.1760771852
   29      H       6.6299281670    -1.6305755164     1.9174114560
   30      H       6.7558044745    -1.3810695111     0.1485010597
   31      H       5.4598415940     0.5954451620     1.6983473384
   32      O      -1.5795517203    -1.6203647893    -0.9954918157
   33      C      -2.2517347575     3.2468836839     1.4668889503
   34      C      -5.0549637943    -0.7304284382     1.1336658013
   35      C      -6.4502039516    -1.0733970916     0.4786383652
   36      C      -5.9983724678    -1.9325197381    -0.7605659424
   37      C      -4.4308966489    -1.9410860453    -0.5720725161
   38      O      -4.2515257743    -1.9497488498     0.8992186525
   39      H      -5.0562901296     1.1373451017    -0.1152399111
   40      H      -4.2998447353    -0.1565668843    -1.9339165151
   41      H      -1.2702757228     3.1155646082     0.9671628130
   42      H      -5.0842661986    -0.4875389351     2.2134649109
   43      H      -7.0662677853    -1.6633765733     1.1758464053
   44      H      -7.0095500321    -0.1692763529     0.1898153287
   45      H      -6.3991203473    -2.9573003684    -0.7109681779
   46      H      -6.2960809469    -1.4817580040    -1.7207939807
   47      H      -3.8929718347    -2.7944338247    -1.0286416978
   48      H      -2.1560899705     2.9157414514     2.5205708769
   49      H      -2.5382220713     4.3139865499     1.4318260035
   50      H       2.8147219567     3.4735538481    -2.7815312519
   51      H       3.4415343021     4.0401043490    -1.1819334377
   52      H       1.9132155528     3.0943590735    -1.2598184618
   53      H       0.1249629511     1.2042491326     0.9467124815
   54      H      -0.5273716138    -0.4089515473     0.5268658694
   55      H      -0.3210192444     2.0664067712    -1.2432581318
   56      H       0.2616411963     0.5044866801    -1.9855604778
 ----------------------------------------------------------------

    9   -1510.2673310961      2.86E-09 Convergence criterion met
 Total energy in the final basis set = -1510.26733110
 Final energy is   -1510.26733109611
 **  OPTIMIZATION CONVERGED  **

                    Orbital Energies (a.u.)
 --------------------------------------------------------------

 Alpha MOs
 -- Occupied --
-18.939 -18.937 -18.933 -18.927 -18.886 -18.885 -18.879 -18.879
-18.876 -18.875 -10.105 -10.101 -10.100 -10.097 -10.066 -10.066
-10.066 -10.060 -10.057 -10.056 -10.056 -10.056 -10.038 -10.037
-10.036 -10.035 -10.020 -10.019 -10.018 -10.017  -1.015  -1.013
 -1.008  -1.004  -0.969  -0.966  -0.941  -0.938  -0.935  -0.934
 -0.763  -0.761  -0.726  -0.721  -0.710  -0.704  -0.693  -0.666
 -0.664  -0.619  -0.596  -0.587  -0.547  -0.544  -0.536  -0.535
 -0.512  -0.510  -0.479  -0.471  -0.462  -0.456  -0.451  -0.444
 -0.438  -0.430  -0.428  -0.414  -0.414  -0.411  -0.406  -0.394
 -0.382  -0.377  -0.371  -0.365  -0.363  -0.359  -0.357  -0.351
 -0.348  -0.344  -0.336  -0.331  -0.329  -0.328  -0.326  -0.309
 -0.306  -0.305  -0.304  -0.301  -0.297  -0.285  -0.279  -0.276
 -0.272  -0.263  -0.255  -0.252  -0.233  -0.231  -0.227  -0.188
 -0.179  -0.178  -0.169  -0.158  -0.153  -0.147  -0.143  -0.141
 -0.139

          Ground-State Mulliken Net Atomic Charges

     Atom                 Charge (a.u.)
  ----------------------------------------
      1 O                    -0.216014
      2 C                     0.206642
      3 C                    -0.079879
      4 C                    -0.077765
      5 C                     0.211837
      6 O                    -0.177357
      7 C                    -0.073524
      8 C                    -0.057211
      9 O                    -0.162947
     10 C                     0.214879
     11 C                    -0.077702
     12 C                    -0.077996
     13 C                     0.206854
     14 O                    -0.207583
     15 O                    -0.167525
     16 O                    -0.171904
     17 O                    -0.210447
     18 C                    -0.128620
     19 C                     0.026980
     20 C                    -0.143449
     21 C                    -0.144627
     22 C                     0.025849
     23 O                    -0.182771
     24 H                     0.085390
     25 H                     0.085707
     26 H                     0.087202
     27 H                     0.078248
     28 H                     0.073549
     29 H                     0.077774
     30 H                     0.072690
     31 H                     0.085780
     32 O                    -0.203992
     33 C                    -0.129568
     34 C                     0.025822
     35 C                    -0.143610
     36 C                    -0.144418
     37 C                     0.024240
     38 O                    -0.186344
     39 H                     0.086871
     40 H                     0.085404
     41 H                     0.083166
     42 H                     0.083884
     43 H                     0.078202
     44 H                     0.073421
     45 H                     0.078308
     46 H                     0.073199
     47 H                     0.090006
     48 H                     0.093550
     49 H                     0.091135
     50 H                     0.091403
     51 H                     0.087935
     52 H                     0.084385
     53 H                     0.094045
     54 H                     0.106854
     55 H                     0.079145
     56 H                     0.114899
  ----------------------------------------
  Sum of atomic charges =     0.000000

                    Cartesian Multipole Moments
 -----------------------------------------------------------------
    Charge (ESU x 10^10)
                 0.0000
    Dipole Moment (Debye)
         X      -0.4078      Y       1.8601      Z      -1.2284
       Tot       2.2661
    Quadrupole Moments (Debye-Ang)
        XX    -133.2525     XY      -4.5946     YY    -153.6228
        XZ      -1.3998     YZ       0.5095     ZZ    -166.8731

 Total job time:  83.12s(wall), 3958.06s(cpu)
        *  Thank you very much for using Q-Chem.  Have a nice day.  *
