 Q-Chem 5.0, Q-Chem, Inc., Pleasanton, CA (2017)
 Q-Chem 5.0.1 for Intel X86 EM64T Linux

User input:
--------------------------------------------------------------
$molecule
0  1
O -5.1651274916 0.5723866848 1.6802101766
C -4.5742089384 0.6782907888 0.5848566716
C -4.3094089671 -0.4659547605 -0.4568843484
C -2.9896770805 -0.319698285 -1.3099904488
C -1.9500046892 0.6433605082 -0.6304670852
O -1.1100239432 1.1520665275 -1.6544575572
C -0.1818447209 2.2680501247 -1.3069857088
C 0.3816299526 2.2753783548 0.1637671871
O 1.6566496672 1.5649491579 0.4233417113
C 2.5950774485 1.4147995781 -0.6204678963
C 3.9437167974 0.9488031674 0.0481237024
C 3.8761174598 -0.2295602972 1.1244301041
C 2.5001974484 -0.9765285458 1.3258189103
O 2.2614002897 -2.1582729506 0.9847550268
O -4.2240452703 1.9331165707 -0.0195975025
O 1.6262316099 -0.196592694 2.1450129171
O 2.4481660902 1.6552005403 -1.8447473369
C 0.3178796164 -0.8803153865 2.3110776049
C 4.9441153341 0.3370741461 -1.0174602101
C 6.4093098197 0.4535710035 -0.4445142265
C 6.3811166498 -0.655785022 0.6728058837
C 4.924264429 -1.2394468146 0.4927548673
O 4.6699964814 -1.1169956496 -0.9615995095
H 4.3779717956 1.8480653307 0.5248518214
H 4.199910432 0.1463920866 2.1121754514
H 4.7879910921 0.725503147 -2.0430456034
H 7.147835092 0.2166052503 -1.2269177683
H 6.625955774 1.4574640298 -0.0457030267
H 7.1358538714 -1.4360562936 0.4866057266
H 6.539856636 -0.2454575356 1.6830070063
H 4.7816245474 -2.288017443 0.8181003
O -1.849381159 0.8003637981 0.6156486373
C -4.4802637884 3.0398586452 0.9280903926
C -4.1200714512 -1.9046243305 0.1873192543
C -4.5401136784 -2.9645458389 -0.9030448037
C -3.3543110174 -2.815534892 -1.9277865496
C -2.4113830554 -1.7992490678 -1.1697519433
O -2.6500973181 -2.0800916148 0.2651497982
H -5.1851407511 -0.4710412484 -1.1336958538
H -3.1683139998 -0.0160105129 -2.3553170909
H -3.8057580631 2.9811521378 1.8069656895
H -4.5843190877 -2.0212872876 1.1861403512
H -4.5668780233 -3.9752015609 -0.4650437096
H -5.5231638223 -2.744033901 -1.3486245692
H -2.8349119837 -3.7729347608 -2.0918836309
H -3.6822307605 -2.4217537565 -2.9033845857
H -1.3339944989 -1.890625086 -1.4103119778
H -5.5292600993 3.0363352047 1.2880742703
H -4.2801181909 3.9738261997 0.3713133463
H 0.0534562919 -0.852004711 3.3850228878
H 0.3988334919 -1.9291524322 1.9627038448
H -0.4636411251 -0.3476004111 1.7256868544
H 0.5328427511 3.336674559 0.4597203024
H -0.3880441868 1.8018637999 0.8146953773
H -0.7267315381 3.2220367759 -1.4759215371
H 0.6824419135 2.1765789941 -2.0046388774
$end

$rem
JOBTYPE                   OPT
METHOD                    B3LYP
DFT_D                     d3_op
BASIS                     STO-3G
GEOM_OPT_MAX_CYCLES       100
GEOM_OPT_TOL_GRADIENT     300
GEOM_OPT_TOL_DISPLACEMENT 1200
GEOM_OPT_TOL_ENERGY       100
SYMMETRY                  False
THRESH                    12
SCF_CONVERGENCE           8
MAX_SUB_FILE_NUM          128
MEM_STATIC                400
MEM_TOTAL                 4000
$end
--------------------------------------------------------------

   16   -1510.2656188216      5.95E-09 Convergence criterion met
 Total energy in the final basis set = -1510.26561882
   15   -1510.2677379973      5.60E-09 Convergence criterion met
 Total energy in the final basis set = -1510.26773800
   15   -1510.2701900417      4.54E-09 Convergence criterion met
 Total energy in the final basis set = -1510.27019004
   15   -1510.2611071285      4.89E-09 Convergence criterion met
 Total energy in the final basis set = -1510.26110713
   14   -1510.2672434522      5.75E-09 Convergence criterion met
 Total energy in the final basis set = -1510.26724345
   15   -1510.2732291487      2.72E-09 Convergence criterion met
 Total energy in the final basis set = -1510.27322915
   15   -1510.2793381480      3.42E-09 Convergence criterion met
 Total energy in the final basis set = -1510.27933815
   14   -1510.2598659855      6.15E-09 Convergence criterion met
   12   -1510.2998669379      5.23E-09 Convergence criterion met
 Total energy in the final basis set = -1510.29986694
   12   -1510.2998613931      4.61E-09 Convergence criterion met
 Total energy in the final basis set = -1510.29986139
   11   -1510.2998918242      6.51E-09 Convergence criterion met
 Total energy in the final basis set = -1510.29989182
   10   -1510.2998765002      8.36E-09 Convergence criterion met
 Total energy in the final basis set = -1510.29987650
   11   -1510.2998853987      2.25E-09 Convergence criterion met
 Total energy in the final basis set = -1510.29988540
    9   -1510.2998935668      9.90E-09 Convergence criterion met
 Total energy in the final basis set = -1510.29989357

             Standard Nuclear Orientation (Angstroms)
    I     Atom           X                Y                Z
 ----------------------------------------------------------------
    1      O      -3.4418617726     0.3929701813     2.0597870248
    2      C      -3.9347975282     0.4654180630     0.9138582371
    3      C      -3.7855912060    -0.5728730809    -0.2613200442
    4      C      -2.5274650610    -0.3225093549    -1.1900088595
    5      C      -1.7736562652     1.0117437073    -0.8602918363
    6      O      -0.6005568714     1.0940421669    -1.6676351365
    7      C       0.0236737318     2.4376333214    -1.5993027092
    8      C       0.6384903098     2.8572958664    -0.2086358865
    9      O       1.6194210144     1.9046318557     0.3571691730
   10      C       2.8232141226     1.8642168687    -0.4165912892
   11      C       3.8322792147     0.8541867992     0.2399201441
   12      C       3.1994657485    -0.4625858725     0.8636931407
   13      C       1.6336691556    -0.5318769284     0.7573095954
   14      O       0.9876348214    -0.7825677674    -0.2854735558
   15      O      -4.8689685373     1.4711892547     0.4932381464
   16      O       1.1056138945    -0.3266111441     2.0620189972
   17      O       3.0262381882     2.5629970398    -1.4330122218
   18      C      -0.3709953895    -0.1652069330     2.0653734282
   19      C       4.7819813402     0.2410788476    -0.8713216764
   20      C       6.0346313741    -0.4067336782    -0.1619359287
   21      C       5.3993187182    -1.7167272131     0.4368777211
   22      C       3.8988328149    -1.5716419397    -0.0344502255
   23      O       4.0125166045    -0.9255417795    -1.3618861645
   24      H       4.4094158654     1.4067886696     1.0050866969
   25      H       3.4749389084    -0.5594596148     1.9282527347
   26      H       5.0015794544     0.9409127374    -1.7013732821
   27      H       6.8196460220    -0.6374255581    -0.8994789206
   28      H       6.4581190307     0.2534795877     0.6115380715
   29      H       5.8545893031    -2.6213807229     0.0032597865
   30      H       5.4853045385    -1.7685924488     1.5339823742
   31      H       3.3319341831    -2.5192593234    -0.1147954256
   32      O      -2.1386605207     1.8950243888    -0.0485574523
   33      C      -4.9944429504     2.5039402099     1.5446590255
   34      C      -3.4527121843    -2.0176836475     0.2960437042
   35      C      -3.6331685154    -3.0712150653    -0.8672379389
   36      C      -2.3318250195    -2.8190372085    -1.7229229405
   37      C      -1.6677169291    -1.6349204100    -0.9251818573
   38      O      -1.9832914479    -1.9796173598     0.4803737589
   39      H      -4.7189872116    -0.5595157608    -0.8506320257
   40      H      -2.8260271088    -0.2733321953    -2.2535348819
   41      H      -4.0355850082     3.0422520772     1.6917254760
   42      H      -3.9555564458    -2.2677693973     1.2501526090
   43      H      -3.6558490547    -4.0943268541    -0.4593655219
   44      H      -4.5581439230    -2.8993812494    -1.4409891619
   45      H      -1.6723110974    -3.7014420927    -1.7188343900
   46      H      -2.5538188780    -2.5486922196    -2.7674606586
   47      H      -0.5693814726    -1.4736766576    -1.0083671683
   48      H      -5.3059687803     2.0665550161     2.5153132972
   49      H      -5.7663214266     3.2122822507     1.1913553740
   50      H      -0.6692741644    -0.2090138811     3.1282538256
   51      H      -0.9253480152    -0.9495742507     1.4879684912
   52      H      -0.6451351621     0.8300649219     1.6634584996
   53      H       1.1032922647     3.8584680596    -0.3459406140
   54      H      -0.1733569942     2.9230904653     0.5426118519
   55      H      -0.7166726924     3.2198301061    -1.8783485134
   56      H       0.8309657737     2.4128589431    -2.3583116155
 ----------------------------------------------------------------

    9   -1510.2998940039      5.83E-09 Convergence criterion met
 Total energy in the final basis set = -1510.29989400
 Final energy is   -1510.29989400394
 **  OPTIMIZATION CONVERGED  **

                    Orbital Energies (a.u.)
 --------------------------------------------------------------

 Alpha MOs
 -- Occupied --
-18.944 -18.943 -18.920 -18.917 -18.894 -18.884 -18.883 -18.881
-18.858 -18.857 -10.108 -10.105 -10.091 -10.089 -10.077 -10.076
-10.060 -10.055 -10.055 -10.054 -10.045 -10.037 -10.036 -10.032
-10.029 -10.021 -10.018 -10.018 -10.016 -10.016  -1.023  -1.015
 -0.997  -0.992  -0.972  -0.966  -0.946  -0.941  -0.923  -0.921
 -0.762  -0.759  -0.728  -0.719  -0.711  -0.700  -0.696  -0.654
 -0.640  -0.620  -0.593  -0.582  -0.545  -0.540  -0.535  -0.534
 -0.510  -0.505  -0.479  -0.465  -0.456  -0.452  -0.450  -0.446
 -0.436  -0.430  -0.424  -0.418  -0.406  -0.402  -0.396  -0.392
 -0.390  -0.378  -0.369  -0.365  -0.362  -0.355  -0.348  -0.344
 -0.340  -0.338  -0.330  -0.328  -0.325  -0.324  -0.318  -0.314
 -0.309  -0.303  -0.299  -0.294  -0.291  -0.287  -0.276  -0.275
 -0.269  -0.254  -0.248  -0.246  -0.243  -0.231  -0.220  -0.194
 -0.174  -0.164  -0.163  -0.159  -0.156  -0.143  -0.141  -0.140
 -0.137

          Ground-State Mulliken Net Atomic Charges

     Atom                 Charge (a.u.)
  ----------------------------------------
      1 O                    -0.221444
      2 C                     0.213922
      3 C                    -0.082425
      4 C                    -0.079369
      5 C                     0.217721
      6 O                    -0.160046
      7 C                    -0.051030
      8 C                    -0.051747
      9 O                    -0.167752
     10 C                     0.214693
     11 C                    -0.078170
     12 C                    -0.080128
     13 C                     0.221563
     14 O                    -0.226831
     15 O                    -0.173780
     16 O                    -0.172045
     17 O                    -0.214569
     18 C                    -0.150547
     19 C                     0.023679
     20 C                    -0.144174
     21 C                    -0.143991
     22 C                     0.025429
     23 O                    -0.188459
     24 H                     0.085134
     25 H                     0.085325
     26 H                     0.088995
     27 H                     0.077680
     28 H                     0.072599
     29 H                     0.077223
     30 H                     0.073480
     31 H                     0.084231
     32 O                    -0.215567
     33 C                    -0.128129
     34 C                     0.027442
     35 C                    -0.143986
     36 C                    -0.143578
     37 C                     0.011622
     38 O                    -0.189882
     39 H                     0.084714
     40 H                     0.086307
     41 H                     0.090088
     42 H                     0.086265
     43 H                     0.077791
     44 H                     0.073124
     45 H                     0.079017
     46 H                     0.073602
     47 H                     0.123140
     48 H                     0.086623
     49 H                     0.085983
     50 H                     0.083131
     51 H                     0.115889
     52 H                     0.074926
     53 H                     0.090589
     54 H                     0.103892
     55 H                     0.087836
     56 H                     0.103990
  ----------------------------------------
  Sum of atomic charges =    -0.000000

                    Cartesian Multipole Moments
 -----------------------------------------------------------------
    Charge (ESU x 10^10)
                 0.0000
    Dipole Moment (Debye)
         X      -0.3608      Y       0.6185      Z      -0.2423
       Tot       0.7559
    Quadrupole Moments (Debye-Ang)
        XX    -144.1764     XY       0.7026     YY    -151.4467
        XZ       9.7800     YZ       1.4410     ZZ    -164.5276

 Total job time:  113.54s(wall), 5415.94s(cpu)
        *  Thank you very much for using Q-Chem.  Have a nice day.  *
