 Q-Chem 5.0, Q-Chem, Inc., Pleasanton, CA (2017)
 Q-Chem 5.0.1 for Intel X86 EM64T Linux

User input:
--------------------------------------------------------------
$molecule
0  1
O -3.94934 -3.66094 2.70899
C -3.26408 -4.56952 2.26188
C -3.36658 -6.02376 2.66595
C -2.07712 -6.85959 2.6155
C -0.79533 -6.10594 2.33781
O 0.13218 -6.95093 1.79825
C 1.28808 -6.27183 1.29629
C 1.57586 -5.03226 2.13698
O 2.46689 -5.36653 3.21271
C 3.29098 -6.41852 2.98176
C 4.40818 -6.52371 3.99244
C 3.97188 -6.37573 5.45737
C 2.48482 -6.50361 5.72008
O 1.94509 -7.43417 6.30086
O -2.55548 -4.32362 1.12701
O 1.76707 -5.35737 5.57878
O 2.93238 -7.52526 2.60105
C 0.49957 -5.16502 6.08597
C 5.16333 -7.87397 4.05069
C 6.55806 -7.66377 4.63809
C 6.21472 -7.38788 6.08566
C 4.69754 -7.60286 6.05434
O 4.51222 -8.58974 5.06896
H 5.1372 -5.73461 3.70126
H 4.31683 -5.43347 5.9381
H 5.245 -8.38106 3.06452
H 7.08934 -8.64093 4.57956
H 7.17155 -6.88346 4.1385
H 6.70546 -8.16289 6.71565
H 6.48088 -6.37341 6.45372
H 4.33273 -7.85702 7.07405
O -0.60767 -5.23782 3.17757
C -2.41031 -3.07999 0.54878
C -3.76885 -6.22092 4.14171
C -4.39656 -7.60235 4.33162
C -3.17373 -8.48877 4.21153
C -2.07832 -7.43108 4.04833
O -2.54514 -6.34968 4.81996
H -4.1554 -6.45474 2.00931
H -2.15951 -7.67003 1.85512
H -1.91374 -2.38529 1.25957
H -4.45878 -5.43596 4.52047
H -4.77159 -7.65963 5.37861
H -5.2262 -7.83791 3.63083
H -3.03622 -9.03007 5.17413
H -3.19127 -9.21354 3.3691
H -1.08805 -7.84976 4.33384
H -3.40201 -2.67418 0.25562
H -1.77939 -3.17305 -0.35883
H 0.13774 -4.15746 5.79573
H 0.51954 -5.2341 7.19442
H -0.19002 -5.93145 5.68626
H 2.25054 -4.4854 1.43804
H 0.95531 -4.13034 2.30932
H 0.91254 -5.80643 0.3545
H 2.02964 -6.91283 0.77776
$end

$opt
CONSTRAINT
tors           1           2           3           4    -148.962
tors           3           4           5           6    -155.715
tors           4           5           6           7    +169.910
tors           5           6           7           8     +32.484
tors           6           7           8           9     +90.679
tors           7           8           9          10     +27.016
tors           8           9          10          11    +166.604
tors           9          10          11          12     +46.577
tors          11          12          13          14    +110.140
ENDCONSTRAINT
$end

$rem
JOBTYPE                   OPT
METHOD                    B3LYP
DFT_D                     d3_op
BASIS                     STO-3G
GEOM_OPT_MAX_CYCLES       100
GEOM_OPT_TOL_GRADIENT     300
GEOM_OPT_TOL_DISPLACEMENT 1200
GEOM_OPT_TOL_ENERGY       100
SYMMETRY                  False
THRESH                    12
SCF_CONVERGENCE           8
MAX_SUB_FILE_NUM          128
MEM_STATIC                400
MEM_TOTAL                 4000
$end
--------------------------------------------------------------

   16   -1510.0174398611      3.82E-09 Convergence criterion met
 Total energy in the final basis set = -1510.01743986
   15   -1510.1043528256      3.94E-09 Convergence criterion met
 Total energy in the final basis set = -1510.10435283
   14   -1510.1584725201      9.33E-09 Convergence criterion met
 Total energy in the final basis set = -1510.15847252
   14   -1510.1928312748      8.90E-09 Convergence criterion met
 Total energy in the final basis set = -1510.19283127
   14   -1510.2139643734      4.53E-09 Convergence criterion met
 Total energy in the final basis set = -1510.21396437
   14   -1510.2279670241      4.10E-09 Convergence criterion met
 Total energy in the final basis set = -1510.22796702
   13   -1510.2381405763      8.45E-09 Convergence criterion met
 Total energy in the final basis set = -1510.23814058
   13   -1510.2458511033      7.45E-09 Convergence criterion met
   12   -1510.2654943457      6.48E-09 Convergence criterion met
 Total energy in the final basis set = -1510.26549435
   12   -1510.2655451843      8.60E-09 Convergence criterion met
 Total energy in the final basis set = -1510.26554518
   12   -1510.2655916316      3.23E-09 Convergence criterion met
 Total energy in the final basis set = -1510.26559163
   12   -1510.2656448959      2.79E-09 Convergence criterion met
 Total energy in the final basis set = -1510.26564490
   10   -1510.2656555777      7.90E-09 Convergence criterion met
 Total energy in the final basis set = -1510.26565558
    9   -1510.2656622890      8.96E-09 Convergence criterion met
 Total energy in the final basis set = -1510.26566229

             Standard Nuclear Orientation (Angstroms)
    I     Atom           X                Y                Z
 ----------------------------------------------------------------
    1      O      -5.1651274916     0.5723866848     1.6802101766
    2      C      -4.5742089384     0.6782907888     0.5848566716
    3      C      -4.3094089671    -0.4659547605    -0.4568843484
    4      C      -2.9896770805    -0.3196982850    -1.3099904488
    5      C      -1.9500046892     0.6433605082    -0.6304670852
    6      O      -1.1100239432     1.1520665275    -1.6544575572
    7      C      -0.1818447209     2.2680501247    -1.3069857088
    8      C       0.3816299526     2.2753783548     0.1637671871
    9      O       1.6566496672     1.5649491579     0.4233417113
   10      C       2.5950774485     1.4147995781    -0.6204678963
   11      C       3.9437167974     0.9488031674     0.0481237024
   12      C       3.8761174598    -0.2295602972     1.1244301041
   13      C       2.5001974484    -0.9765285458     1.3258189103
   14      O       2.2614002897    -2.1582729506     0.9847550268
   15      O      -4.2240452703     1.9331165707    -0.0195975025
   16      O       1.6262316099    -0.1965926940     2.1450129171
   17      O       2.4481660902     1.6552005403    -1.8447473369
   18      C       0.3178796164    -0.8803153865     2.3110776049
   19      C       4.9441153341     0.3370741461    -1.0174602101
   20      C       6.4093098197     0.4535710035    -0.4445142265
   21      C       6.3811166498    -0.6557850220     0.6728058837
   22      C       4.9242644290    -1.2394468146     0.4927548673
   23      O       4.6699964814    -1.1169956496    -0.9615995095
   24      H       4.3779717956     1.8480653307     0.5248518214
   25      H       4.1999104320     0.1463920866     2.1121754514
   26      H       4.7879910921     0.7255031470    -2.0430456034
   27      H       7.1478350920     0.2166052503    -1.2269177683
   28      H       6.6259557740     1.4574640298    -0.0457030267
   29      H       7.1358538714    -1.4360562936     0.4866057266
   30      H       6.5398566360    -0.2454575356     1.6830070063
   31      H       4.7816245474    -2.2880174430     0.8181003000
   32      O      -1.8493811590     0.8003637981     0.6156486373
   33      C      -4.4802637884     3.0398586452     0.9280903926
   34      C      -4.1200714512    -1.9046243305     0.1873192543
   35      C      -4.5401136784    -2.9645458389    -0.9030448037
   36      C      -3.3543110174    -2.8155348920    -1.9277865496
   37      C      -2.4113830554    -1.7992490678    -1.1697519433
   38      O      -2.6500973181    -2.0800916148     0.2651497982
   39      H      -5.1851407511    -0.4710412484    -1.1336958538
   40      H      -3.1683139998    -0.0160105129    -2.3553170909
   41      H      -3.8057580631     2.9811521378     1.8069656895
   42      H      -4.5843190877    -2.0212872876     1.1861403512
   43      H      -4.5668780233    -3.9752015609    -0.4650437096
   44      H      -5.5231638223    -2.7440339010    -1.3486245692
   45      H      -2.8349119837    -3.7729347608    -2.0918836309
   46      H      -3.6822307605    -2.4217537565    -2.9033845857
   47      H      -1.3339944989    -1.8906250860    -1.4103119778
   48      H      -5.5292600993     3.0363352047     1.2880742703
   49      H      -4.2801181909     3.9738261997     0.3713133463
   50      H       0.0534562919    -0.8520047110     3.3850228878
   51      H       0.3988334919    -1.9291524322     1.9627038448
   52      H      -0.4636411251    -0.3476004111     1.7256868544
   53      H       0.5328427511     3.3366745590     0.4597203024
   54      H      -0.3880441868     1.8018637999     0.8146953773
   55      H      -0.7267315381     3.2220367759    -1.4759215371
   56      H       0.6824419135     2.1765789941    -2.0046388774
 ----------------------------------------------------------------

    9   -1510.2656632038      7.42E-09 Convergence criterion met
 Total energy in the final basis set = -1510.26566320
 Final energy is   -1510.26566320380
 **  OPTIMIZATION CONVERGED  **

                    Orbital Energies (a.u.)
 --------------------------------------------------------------

 Alpha MOs
 -- Occupied --
-18.944 -18.940 -18.932 -18.922 -18.888 -18.884 -18.881 -18.879
-18.875 -18.863 -10.113 -10.108 -10.100 -10.089 -10.065 -10.064
-10.061 -10.059 -10.059 -10.053 -10.052 -10.039 -10.038 -10.038
-10.035 -10.033 -10.021 -10.020 -10.016 -10.015  -1.020  -1.013
 -1.008  -0.998  -0.971  -0.964  -0.947  -0.943  -0.935  -0.922
 -0.765  -0.757  -0.729  -0.720  -0.711  -0.702  -0.695  -0.662
 -0.646  -0.623  -0.596  -0.585  -0.547  -0.540  -0.537  -0.532
 -0.514  -0.507  -0.481  -0.466  -0.460  -0.454  -0.448  -0.439
 -0.435  -0.429  -0.424  -0.420  -0.412  -0.411  -0.405  -0.402
 -0.387  -0.379  -0.376  -0.369  -0.364  -0.361  -0.356  -0.348
 -0.344  -0.335  -0.332  -0.329  -0.328  -0.326  -0.324  -0.312
 -0.310  -0.306  -0.303  -0.300  -0.293  -0.289  -0.280  -0.274
 -0.269  -0.256  -0.251  -0.242  -0.235  -0.230  -0.228  -0.186
 -0.180  -0.173  -0.167  -0.157  -0.153  -0.148  -0.145  -0.139
 -0.138

          Ground-State Mulliken Net Atomic Charges

     Atom                 Charge (a.u.)
  ----------------------------------------
      1 O                    -0.212704
      2 C                     0.215189
      3 C                    -0.079503
      4 C                    -0.076646
      5 C                     0.226759
      6 O                    -0.169220
      7 C                    -0.069570
      8 C                    -0.071546
      9 O                    -0.166285
     10 C                     0.215034
     11 C                    -0.077348
     12 C                    -0.076803
     13 C                     0.207790
     14 O                    -0.217089
     15 O                    -0.175443
     16 O                    -0.164354
     17 O                    -0.217498
     18 C                    -0.142148
     19 C                     0.022079
     20 C                    -0.143644
     21 C                    -0.144998
     22 C                     0.024399
     23 O                    -0.189727
     24 H                     0.082764
     25 H                     0.084311
     26 H                     0.089233
     27 H                     0.077347
     28 H                     0.071673
     29 H                     0.077411
     30 H                     0.072135
     31 H                     0.089128
     32 O                    -0.218101
     33 C                    -0.128799
     34 C                     0.024428
     35 C                    -0.142366
     36 C                    -0.144593
     37 C                     0.024500
     38 O                    -0.189317
     39 H                     0.084521
     40 H                     0.088794
     41 H                     0.090125
     42 H                     0.090963
     43 H                     0.078940
     44 H                     0.073335
     45 H                     0.080055
     46 H                     0.074299
     47 H                     0.086216
     48 H                     0.090564
     49 H                     0.088060
     50 H                     0.082741
     51 H                     0.099379
     52 H                     0.095568
     53 H                     0.079014
     54 H                     0.125338
     55 H                     0.082200
     56 H                     0.123410
  ----------------------------------------
  Sum of atomic charges =     0.000000

                    Cartesian Multipole Moments
 -----------------------------------------------------------------
    Charge (ESU x 10^10)
                 0.0000
    Dipole Moment (Debye)
         X      -0.6384      Y       2.5145      Z      -0.4984
       Tot       2.6417
    Quadrupole Moments (Debye-Ang)
        XX    -145.7880     XY       5.0824     YY    -153.3473
        XZ      14.1861     YZ       2.2038     ZZ    -164.1479

 Total job time:  110.18s(wall), 5249.64s(cpu)
        *  Thank you very much for using Q-Chem.  Have a nice day.  *
