 Q-Chem 5.0, Q-Chem, Inc., Pleasanton, CA (2017)
 Q-Chem 5.0.1 for Intel X86 EM64T Linux

User input:
--------------------------------------------------------------
$molecule
0  1
O 4.5118993322 -2.5587063839 0.0699136845
C 3.9198113569 -1.4917578433 -0.206129149
C 4.599214208 -0.0854309985 -0.3409617696
C 3.678889721 1.1952435998 -0.3172740348
C 2.3137680043 0.991892783 0.4327368373
O 1.389933932 1.9824303524 -0.0611066142
C -0.0034019915 1.5121496381 0.1050281891
C -0.3456779486 0.4560667089 -1.0158670805
O -1.7200376938 -0.0958697462 -0.8974516989
C -2.6975177536 0.9182520229 -1.1316866073
C -4.1779751052 0.366045145 -1.0455108229
C -4.4500125211 -0.824504163 -0.0430721539
C -3.343438406 -1.9128928138 0.1723255729
O -3.095995314 -2.5292248077 1.2316528864
O 2.5696962366 -1.4382186512 -0.6958940796
O -2.8744796035 -2.3315664807 -1.1172299198
O -2.4107549617 2.1037552376 -1.4145351878
C -1.9121031006 -3.4441048865 -0.9630331414
C -4.9676289242 1.512581856 -0.2798369045
C -6.5039378798 1.1664308957 -0.1473012549
C -6.5003879792 0.1696742898 1.0726474256
C -4.9498452065 -0.0477208775 1.251336209
O -4.4243921778 1.3300335295 1.0929233504
H -4.5531906085 0.1519831675 -2.0629631393
H -5.3044607756 -1.3971175432 -0.4538655271
H -4.7330688051 2.5277647314 -0.6550452988
H -7.0905376913 2.0737605893 0.0659052472
H -6.8954584886 0.7023051145 -1.0670620516
H -6.9266102278 0.639348841 1.9739019822
H -7.044054103 -0.7664106948 0.8674605236
H -4.6222518345 -0.4924061655 2.2113233908
O 2.0509520796 0.1775408729 1.3418437609
C 1.9462906439 -2.7791375112 -0.6225350276
C 5.6676799209 0.2601429616 0.7869750153
C 6.7618603149 1.1769871522 0.1173170001
C 5.9293049237 2.4927151065 -0.1203555602
C 4.5705389777 2.1397161721 0.607096428
O 4.9645589569 1.2037619405 1.6871708111
H 5.1171801649 -0.1212451313 -1.3192884639
H 3.4919019471 1.614093943 -1.3206349837
H 1.2310245112 -2.8104155278 0.2243786459
H 6.0446525801 -0.6178462316 1.3468034382
H 7.5948741858 1.3506548853 0.8172501215
H 7.1639865783 0.7476124361 -0.8142588257
H 6.4054576077 3.3679213441 0.3491848626
H 5.7753909191 2.7075162982 -1.1902444011
H 4.0238129835 3.0076188063 1.0246305622
H 2.7319182863 -3.5464617306 -0.470146314
H 1.4041629902 -2.9585415681 -1.5705888207
H -1.0256787517 -3.1353001171 -0.3737868959
H -1.5971578314 -3.7201456457 -1.9862324465
H -2.3746683581 -4.3220131554 -0.4666266396
H -0.2030956285 0.9287913694 -2.0114948967
H 0.3337706785 -0.4162653269 -0.9280583753
H -0.6551520826 2.3992031362 -0.0180007902
H -0.1626897659 1.0608276633 1.1079735335
$end

$rem
JOBTYPE                   OPT
METHOD                    B3LYP
DFT_D                     d3_op
BASIS                     STO-3G
GEOM_OPT_MAX_CYCLES       100
GEOM_OPT_TOL_GRADIENT     300
GEOM_OPT_TOL_DISPLACEMENT 1200
GEOM_OPT_TOL_ENERGY       100
SYMMETRY                  False
THRESH                    12
SCF_CONVERGENCE           8
MAX_SUB_FILE_NUM          128
MEM_STATIC                400
MEM_TOTAL                 4000
$end
--------------------------------------------------------------

   16   -1510.2652859455      5.46E-09 Convergence criterion met
 Total energy in the final basis set = -1510.26528595
   13   -1510.2696692180      9.44E-09 Convergence criterion met
 Total energy in the final basis set = -1510.26966922
   13   -1510.2732046519      6.54E-09 Convergence criterion met
 Total energy in the final basis set = -1510.27320465
   13   -1510.2759216206      9.59E-09 Convergence criterion met
 Total energy in the final basis set = -1510.27592162
   13   -1510.2782840708      6.71E-09 Convergence criterion met
 Total energy in the final basis set = -1510.27828407
   13   -1510.2797004503      7.73E-09 Convergence criterion met
 Total energy in the final basis set = -1510.27970045
   13   -1510.2811198649      6.32E-09 Convergence criterion met
 Total energy in the final basis set = -1510.28111986
   13   -1510.2823074296      4.11E-09 Convergence criterion met
   11   -1510.3069060438      6.87E-09 Convergence criterion met
 Total energy in the final basis set = -1510.30690604
   10   -1510.3069132465      7.64E-09 Convergence criterion met
 Total energy in the final basis set = -1510.30691325
   10   -1510.3069189481      7.61E-09 Convergence criterion met
 Total energy in the final basis set = -1510.30691895
    9   -1510.3069215158      5.72E-09 Convergence criterion met
 Total energy in the final basis set = -1510.30692152
    9   -1510.3069204209      5.31E-09 Convergence criterion met
 Total energy in the final basis set = -1510.30692042
    9   -1510.3069216561      3.48E-09 Convergence criterion met
 Total energy in the final basis set = -1510.30692166

             Standard Nuclear Orientation (Angstroms)
    I     Atom           X                Y                Z
 ----------------------------------------------------------------
    1      O       0.8804213401    -2.4513505307    -0.0500011101
    2      C       1.6008760580    -1.7605558571    -0.8018408491
    3      C       3.0445500863    -1.2007902989    -0.4971616845
    4      C       3.1408102044     0.3780036031    -0.5933237490
    5      C       1.7075764433     0.9971065485    -0.6778216032
    6      O       1.7390924849     2.3439105050    -1.1270395390
    7      C       0.3612706809     2.9114672726    -1.1301236166
    8      C      -0.5183957556     2.4040923103    -2.3385986970
    9      O      -1.2421242125     1.1572216781    -2.0010832661
   10      C      -2.5118069623     1.4578507891    -1.3864701615
   11      C      -3.1291584906     0.1003906096    -0.8984705346
   12      C      -2.4865791386    -0.4721894056     0.4308553958
   13      C      -1.4670298975     0.5058126587     1.1094663673
   14      O      -1.3901126632     1.7480449005     0.9384451148
   15      O       1.3263219441    -1.4675714157    -2.1815577953
   16      O      -0.6806754785    -0.2532340152     2.0138721220
   17      O      -3.0321833781     2.5925262105    -1.3787045839
   18      C       0.3732933078     0.5766058729     2.6519571803
   19      C      -4.6476675177     0.2549692941    -0.4647265003
   20      C      -5.3048395150    -1.1797414189    -0.4856136005
   21      C      -4.6501033087    -1.8273816381     0.7909228205
   22      C      -3.7849599331    -0.6230501907     1.3379140805
   23      O      -4.5740832498     0.5764516124     0.9793463981
   24      H      -3.0197960149    -0.6323818647    -1.7177785230
   25      H      -1.9794402412    -1.4395557907     0.2670168820
   26      H      -5.1967639725     1.0480550585    -1.0082906144
   27      H      -6.3991953278    -1.1041342502    -0.3834710429
   28      H      -5.0721479193    -1.7317736520    -1.4102700517
   29      H      -5.4098992910    -2.1259320160     1.5305957704
   30      H      -4.0272569368    -2.7036585749     0.5499472053
   31      H      -3.5794058881    -0.6468016132     2.4257374619
   32      O       0.6623205651     0.3873835035    -0.3546318059
   33      C      -0.1125861465    -1.6662287306    -2.4746569947
   34      C       3.4862419064    -1.4509952557     1.0025462611
   35      C       5.0573231886    -1.3529749851     1.0709983955
   36      C       5.2692323425     0.1929732485     0.8554266979
   37      C       3.7789082132     0.7145543414     0.8224779963
   38      O       3.0622064021    -0.2210036979     1.7209659251
   39      H       3.7519531726    -1.6720595432    -1.2030410655
   40      H       3.7657617720     0.7293688114    -1.4328225791
   41      H      -0.6417072573    -0.6918248769    -2.3468402399
   42      H       3.0255064946    -2.3443087526     1.4678215404
   43      H       5.4209293072    -1.6732292101     2.0605597780
   44      H       5.5481012772    -1.9637350439     0.2966782568
   45      H       5.8200669548     0.6487805735     1.6934072172
   46      H       5.8007520063     0.4208186455    -0.0824364676
   47      H       3.6337673051     1.7611567079     1.1544773004
   48      H      -0.5465132700    -2.4224773010    -1.7908858203
   49      H      -0.1942499541    -2.0102232395    -3.5226795408
   50      H       1.3742868331     0.2391147453     2.2790776687
   51      H       0.3048171969     0.4256368435     3.7462194833
   52      H       0.2052283342     1.6441208791     2.4088586324
   53      H      -1.2547666473     3.1956013634    -2.5968784423
   54      H       0.1189645520     2.1771849729    -3.2176307325
   55      H       0.5086441633     4.0062902545    -1.2147690144
   56      H      -0.1829212634     2.6612720540    -0.1842840879
 ----------------------------------------------------------------

    9   -1510.3069218730      2.23E-09 Convergence criterion met
 Total energy in the final basis set = -1510.30692187
 Final energy is   -1510.30692187301
 **  OPTIMIZATION CONVERGED  **

                    Orbital Energies (a.u.)
 --------------------------------------------------------------

 Alpha MOs
 -- Occupied --
-18.943 -18.928 -18.926 -18.909 -18.906 -18.884 -18.882 -18.872
-18.865 -18.858 -10.107 -10.096 -10.096 -10.090 -10.072 -10.069
-10.065 -10.062 -10.055 -10.053 -10.045 -10.037 -10.035 -10.032
-10.030 -10.030 -10.028 -10.026 -10.016 -10.015  -1.023  -1.006
 -0.999  -0.993  -0.982  -0.965  -0.943  -0.932  -0.926  -0.921
 -0.769  -0.758  -0.730  -0.720  -0.713  -0.704  -0.695  -0.648
 -0.646  -0.618  -0.594  -0.578  -0.551  -0.543  -0.539  -0.532
 -0.511  -0.505  -0.483  -0.467  -0.460  -0.458  -0.454  -0.446
 -0.438  -0.428  -0.418  -0.418  -0.407  -0.402  -0.399  -0.394
 -0.389  -0.378  -0.374  -0.361  -0.357  -0.353  -0.350  -0.346
 -0.344  -0.341  -0.336  -0.331  -0.328  -0.327  -0.321  -0.318
 -0.307  -0.305  -0.302  -0.299  -0.288  -0.281  -0.278  -0.275
 -0.263  -0.255  -0.245  -0.243  -0.236  -0.235  -0.229  -0.194
 -0.172  -0.165  -0.158  -0.153  -0.152  -0.149  -0.146  -0.141
 -0.139

          Ground-State Mulliken Net Atomic Charges

     Atom                 Charge (a.u.)
  ----------------------------------------
      1 O                    -0.220369
      2 C                     0.218036
      3 C                    -0.080558
      4 C                    -0.077698
      5 C                     0.217387
      6 O                    -0.170500
      7 C                    -0.063141
      8 C                    -0.053283
      9 O                    -0.175668
     10 C                     0.218561
     11 C                    -0.080126
     12 C                    -0.076610
     13 C                     0.231185
     14 O                    -0.228426
     15 O                    -0.184515
     16 O                    -0.163770
     17 O                    -0.210337
     18 C                    -0.151283
     19 C                     0.024765
     20 C                    -0.143638
     21 C                    -0.144012
     22 C                     0.025271
     23 O                    -0.188927
     24 H                     0.083204
     25 H                     0.095146
     26 H                     0.087734
     27 H                     0.077239
     28 H                     0.072255
     29 H                     0.077438
     30 H                     0.075114
     31 H                     0.084540
     32 O                    -0.207133
     33 C                    -0.146474
     34 C                     0.025850
     35 C                    -0.142350
     36 C                    -0.143441
     37 C                     0.026004
     38 O                    -0.188744
     39 H                     0.084497
     40 H                     0.088944
     41 H                     0.102100
     42 H                     0.095061
     43 H                     0.079834
     44 H                     0.075914
     45 H                     0.080002
     46 H                     0.076142
     47 H                     0.086467
     48 H                     0.086820
     49 H                     0.077204
     50 H                     0.111989
     51 H                     0.077516
     52 H                     0.085998
     53 H                     0.098326
     54 H                     0.088629
     55 H                     0.088013
     56 H                     0.117821
  ----------------------------------------
  Sum of atomic charges =    -0.000000

                    Cartesian Multipole Moments
 -----------------------------------------------------------------
    Charge (ESU x 10^10)
                -0.0000
    Dipole Moment (Debye)
         X       2.9304      Y      -0.9140      Z      -1.5107
       Tot       3.4212
    Quadrupole Moments (Debye-Ang)
        XX    -147.8635     XY      10.1309     YY    -162.7422
        XZ       4.3318     YZ      -0.5547     ZZ    -156.6855

 Total job time:  208.81s(wall), 9960.57s(cpu)
        *  Thank you very much for using Q-Chem.  Have a nice day.  *
