 Q-Chem 5.0, Q-Chem, Inc., Pleasanton, CA (2017)
 Q-Chem 5.0.1 for Intel X86 EM64T Linux

User input:
--------------------------------------------------------------
$molecule
0  1
O -3.94934 -3.66094 2.70899
C -3.26408 -4.56952 2.26188
C -3.36658 -6.02376 2.66595
C -2.19568 -6.94363 2.28296
C -0.97418 -6.27165 1.69605
O -0.25722 -7.17233 0.96109
C 0.53751 -6.56026 -0.0602
C -0.33996 -6.16691 -1.24403
O 0.45597 -5.52027 -2.24963
C 1.38565 -6.30377 -2.85045
C 2.16878 -5.57534 -3.91663
C 2.37868 -4.07667 -3.65543
C 2.10241 -3.60737 -2.24117
O 2.69768 -2.70943 -1.66332
O -2.82814 -4.38269 0.98508
O 0.77433 -3.35964 -2.00313
O 1.35636 -7.52821 -2.81045
C 0.21637 -2.67603 -0.92562
C 3.63225 -6.0593 -4.00612
C 4.18651 -5.75226 -5.39544
C 4.2933 -4.24466 -5.32493
C 3.91008 -4.01401 -3.85757
O 4.35447 -5.17059 -3.19556
H 1.66977 -5.79194 -4.88787
H 1.85092 -3.40139 -4.36465
H 3.76055 -7.13988 -3.77763
H 5.21402 -6.18069 -5.43389
H 3.59515 -6.14643 -6.24972
H 5.3526 -3.95998 -5.51182
H 3.61971 -3.68669 -6.01094
H 4.35134 -3.05617 -3.50408
O -0.48532 -5.23447 2.12886
C -3.02441 -3.22374 0.25712
C -3.34079 -6.16905 4.201
C -3.95789 -7.50568 4.61293
C -2.86209 -8.46098 4.19367
C -1.8134 -7.47057 3.68004
O -1.98122 -6.34577 4.50638
H -4.34157 -6.39141 2.27504
H -2.50277 -7.77966 1.61384
H -2.50513 -2.37114 0.74493
H -3.85528 -5.33747 4.7307
H -4.03041 -7.51795 5.72407
H -4.95929 -7.70693 4.17514
H -2.47807 -8.9759 5.10259
H -3.15129 -9.21224 3.42732
H -0.80432 -7.9397 3.69562
H -4.11001 -3.00286 0.17377
H -2.6336 -3.36165 -0.7704
H -0.40348 -3.37219 -0.33954
H -0.40714 -1.83962 -1.30184
H 0.96623 -2.27007 -0.21444
H -0.87047 -7.05211 -1.6607
H -1.11603 -5.45418 -0.90631
H 1.28427 -7.31234 -0.38136
H 1.11558 -5.69062 0.32714
$end

$opt
CONSTRAINT
tors           1           2           3           4    -164.211
tors           3           4           5           6    -157.343
tors           4           5           6           7    +154.648
tors           5           6           7           8     -77.284
tors           6           7           8           9    +178.417
tors           7           8           9          10     +65.941
tors           8           9          10          11    +178.784
tors           9          10          11          12     +31.814
tors          11          12          13          14    +146.432
ENDCONSTRAINT
$end

$rem
JOBTYPE                   OPT
METHOD                    B3LYP
DFT_D                     d3_op
BASIS                     STO-3G
GEOM_OPT_MAX_CYCLES       100
GEOM_OPT_TOL_GRADIENT     300
GEOM_OPT_TOL_DISPLACEMENT 1200
GEOM_OPT_TOL_ENERGY       100
SYMMETRY                  False
THRESH                    12
SCF_CONVERGENCE           8
MAX_SUB_FILE_NUM          128
MEM_STATIC                400
MEM_TOTAL                 4000
$end
--------------------------------------------------------------

   16   -1510.0787524752      3.63E-09 Convergence criterion met
 Total energy in the final basis set = -1510.07875248
   14   -1510.1562450996      3.93E-09 Convergence criterion met
 Total energy in the final basis set = -1510.15624510
   14   -1510.1999482598      4.09E-09 Convergence criterion met
 Total energy in the final basis set = -1510.19994826
   14   -1510.2280788491      4.62E-09 Convergence criterion met
 Total energy in the final basis set = -1510.22807885
   13   -1510.2418037725      6.54E-09 Convergence criterion met
 Total energy in the final basis set = -1510.24180377
   13   -1510.2496880872      6.51E-09 Convergence criterion met
 Total energy in the final basis set = -1510.24968809
   13   -1510.2546768093      6.02E-09 Convergence criterion met
 Total energy in the final basis set = -1510.25467681
   13   -1510.2577211577      3.53E-09 Convergence criterion met
   11   -1510.2653331830      7.57E-09 Convergence criterion met
 Total energy in the final basis set = -1510.26533318
    9   -1510.2653502207      9.18E-09 Convergence criterion met
 Total energy in the final basis set = -1510.26535022
    9   -1510.2653556767      6.18E-09 Convergence criterion met
 Total energy in the final basis set = -1510.26535568
    9   -1510.2653601550      7.12E-09 Convergence criterion met
 Total energy in the final basis set = -1510.26536015
    9   -1510.2653612327      3.32E-09 Convergence criterion met
 Total energy in the final basis set = -1510.26536123
    9   -1510.2653626370      4.16E-09 Convergence criterion met
 Total energy in the final basis set = -1510.26536264

             Standard Nuclear Orientation (Angstroms)
    I     Atom           X                Y                Z
 ----------------------------------------------------------------
    1      O       4.5118993322    -2.5587063839     0.0699136845
    2      C       3.9198113569    -1.4917578433    -0.2061291490
    3      C       4.5992142080    -0.0854309985    -0.3409617696
    4      C       3.6788897210     1.1952435998    -0.3172740348
    5      C       2.3137680043     0.9918927830     0.4327368373
    6      O       1.3899339320     1.9824303524    -0.0611066142
    7      C      -0.0034019915     1.5121496381     0.1050281891
    8      C      -0.3456779486     0.4560667089    -1.0158670805
    9      O      -1.7200376938    -0.0958697462    -0.8974516989
   10      C      -2.6975177536     0.9182520229    -1.1316866073
   11      C      -4.1779751052     0.3660451450    -1.0455108229
   12      C      -4.4500125211    -0.8245041630    -0.0430721539
   13      C      -3.3434384060    -1.9128928138     0.1723255729
   14      O      -3.0959953140    -2.5292248077     1.2316528864
   15      O       2.5696962366    -1.4382186512    -0.6958940796
   16      O      -2.8744796035    -2.3315664807    -1.1172299198
   17      O      -2.4107549617     2.1037552376    -1.4145351878
   18      C      -1.9121031006    -3.4441048865    -0.9630331414
   19      C      -4.9676289242     1.5125818560    -0.2798369045
   20      C      -6.5039378798     1.1664308957    -0.1473012549
   21      C      -6.5003879792     0.1696742898     1.0726474256
   22      C      -4.9498452065    -0.0477208775     1.2513362090
   23      O      -4.4243921778     1.3300335295     1.0929233504
   24      H      -4.5531906085     0.1519831675    -2.0629631393
   25      H      -5.3044607756    -1.3971175432    -0.4538655271
   26      H      -4.7330688051     2.5277647314    -0.6550452988
   27      H      -7.0905376913     2.0737605893     0.0659052472
   28      H      -6.8954584886     0.7023051145    -1.0670620516
   29      H      -6.9266102278     0.6393488410     1.9739019822
   30      H      -7.0440541030    -0.7664106948     0.8674605236
   31      H      -4.6222518345    -0.4924061655     2.2113233908
   32      O       2.0509520796     0.1775408729     1.3418437609
   33      C       1.9462906439    -2.7791375112    -0.6225350276
   34      C       5.6676799209     0.2601429616     0.7869750153
   35      C       6.7618603149     1.1769871522     0.1173170001
   36      C       5.9293049237     2.4927151065    -0.1203555602
   37      C       4.5705389777     2.1397161721     0.6070964280
   38      O       4.9645589569     1.2037619405     1.6871708111
   39      H       5.1171801649    -0.1212451313    -1.3192884639
   40      H       3.4919019471     1.6140939430    -1.3206349837
   41      H       1.2310245112    -2.8104155278     0.2243786459
   42      H       6.0446525801    -0.6178462316     1.3468034382
   43      H       7.5948741858     1.3506548853     0.8172501215
   44      H       7.1639865783     0.7476124361    -0.8142588257
   45      H       6.4054576077     3.3679213441     0.3491848626
   46      H       5.7753909191     2.7075162982    -1.1902444011
   47      H       4.0238129835     3.0076188063     1.0246305622
   48      H       2.7319182863    -3.5464617306    -0.4701463140
   49      H       1.4041629902    -2.9585415681    -1.5705888207
   50      H      -1.0256787517    -3.1353001171    -0.3737868959
   51      H      -1.5971578314    -3.7201456457    -1.9862324465
   52      H      -2.3746683581    -4.3220131554    -0.4666266396
   53      H      -0.2030956285     0.9287913694    -2.0114948967
   54      H       0.3337706785    -0.4162653269    -0.9280583753
   55      H      -0.6551520826     2.3992031362    -0.0180007902
   56      H      -0.1626897659     1.0608276633     1.1079735335
 ----------------------------------------------------------------

    8   -1510.2653621063      9.58E-09 Convergence criterion met
 Total energy in the final basis set = -1510.26536211
 Final energy is   -1510.26536210626
 **  OPTIMIZATION CONVERGED  **

                    Orbital Energies (a.u.)
 --------------------------------------------------------------

 Alpha MOs
 -- Occupied --
-18.941 -18.936 -18.930 -18.923 -18.888 -18.885 -18.878 -18.878
-18.874 -18.872 -10.104 -10.103 -10.099 -10.099 -10.070 -10.064
-10.063 -10.062 -10.061 -10.060 -10.058 -10.057 -10.041 -10.041
-10.038 -10.037 -10.022 -10.021 -10.020 -10.019  -1.018  -1.015
 -1.007  -1.005  -0.971  -0.969  -0.940  -0.939  -0.933  -0.932
 -0.765  -0.764  -0.727  -0.723  -0.710  -0.704  -0.695  -0.664
 -0.660  -0.619  -0.600  -0.585  -0.547  -0.544  -0.538  -0.537
 -0.512  -0.509  -0.484  -0.478  -0.463  -0.460  -0.455  -0.448
 -0.435  -0.432  -0.430  -0.416  -0.413  -0.409  -0.407  -0.395
 -0.393  -0.381  -0.376  -0.371  -0.361  -0.360  -0.356  -0.348
 -0.345  -0.343  -0.334  -0.331  -0.329  -0.323  -0.321  -0.314
 -0.312  -0.309  -0.307  -0.302  -0.297  -0.292  -0.291  -0.274
 -0.270  -0.259  -0.252  -0.248  -0.239  -0.234  -0.234  -0.188
 -0.179  -0.172  -0.162  -0.161  -0.156  -0.152  -0.148  -0.144
 -0.144

          Ground-State Mulliken Net Atomic Charges

     Atom                 Charge (a.u.)
  ----------------------------------------
      1 O                    -0.214006
      2 C                     0.215730
      3 C                    -0.079079
      4 C                    -0.077843
      5 C                     0.216342
      6 O                    -0.178690
      7 C                    -0.055679
      8 C                    -0.052829
      9 O                    -0.165710
     10 C                     0.212629
     11 C                    -0.074285
     12 C                    -0.081073
     13 C                     0.215096
     14 O                    -0.215524
     15 O                    -0.174041
     16 O                    -0.167201
     17 O                    -0.218275
     18 C                    -0.127318
     19 C                     0.022563
     20 C                    -0.146282
     21 C                    -0.140953
     22 C                     0.022034
     23 O                    -0.193329
     24 H                     0.087038
     25 H                     0.083701
     26 H                     0.090030
     27 H                     0.078827
     28 H                     0.073004
     29 H                     0.078441
     30 H                     0.073239
     31 H                     0.090328
     32 O                    -0.204150
     33 C                    -0.136817
     34 C                     0.025526
     35 C                    -0.141861
     36 C                    -0.145233
     37 C                     0.025095
     38 O                    -0.187908
     39 H                     0.084960
     40 H                     0.087149
     41 H                     0.087192
     42 H                     0.090547
     43 H                     0.078898
     44 H                     0.073569
     45 H                     0.079007
     46 H                     0.073768
     47 H                     0.084978
     48 H                     0.103686
     49 H                     0.084589
     50 H                     0.086478
     51 H                     0.087280
     52 H                     0.087910
     53 H                     0.088140
     54 H                     0.094249
     55 H                     0.102038
     56 H                     0.094023
  ----------------------------------------
  Sum of atomic charges =     0.000000

                    Cartesian Multipole Moments
 -----------------------------------------------------------------
    Charge (ESU x 10^10)
                 0.0000
    Dipole Moment (Debye)
         X      -0.7895      Y      -0.4208      Z      -3.5385
       Tot       3.6498
    Quadrupole Moments (Debye-Ang)
        XX    -140.7618     XY       9.1533     YY    -161.2680
        XZ      -4.7755     YZ       4.1325     ZZ    -164.6630

 Total job time:  147.15s(wall), 7011.69s(cpu)
        *  Thank you very much for using Q-Chem.  Have a nice day.  *
