 Q-Chem 5.0, Q-Chem, Inc., Pleasanton, CA (2017)
 Q-Chem 5.0.1 for Intel X86 EM64T Linux

User input:
--------------------------------------------------------------
$molecule
0  1
O 4.048549737 -2.6393920106 1.0098556067
C 3.7768061506 -1.7053497256 0.2256546275
C 4.638544986 -0.4182190047 -0.0237088948
C 3.8891738004 0.833927365 -0.6251938098
C 2.3399177411 0.8121881775 -0.3700990252
O 1.7272662954 1.5749029648 -1.4141624647
C 0.2415745205 1.6350246867 -1.3150627791
C -0.4078512701 0.1971525006 -1.2491084306
O -1.8712071508 0.057886808 -1.015219478
C -2.6646995565 1.2317500494 -0.9141414717
C -4.1671357356 0.8188173658 -0.6684431578
C -4.4578031287 -0.6053605817 -0.0325018729
C -3.2187781448 -1.5465240123 0.1790344494
O -2.5227614851 -1.6838988495 1.2071312488
O 2.7399446748 -1.7735713178 -0.7644489952
O -3.1148768281 -2.3878346339 -0.9832624954
O -2.2712929913 2.4119051469 -1.0297730648
C -1.9730040497 -3.3136729817 -0.82746165
C -4.795827925 1.7719878372 0.4356676795
C -6.3699993052 1.665246844 0.3714411162
C -6.6097764792 0.2681672772 1.0555508376
C -5.1250542742 -0.1835285574 1.3463066014
O -4.4446607599 1.0842045024 1.6986553653
H -4.6938295031 0.9259935596 -1.6354412215
H -5.1733950841 -1.1544860587 -0.6698674112
H -4.3832382774 2.7998493683 0.41779411
H -6.8351211809 2.4826164017 0.9449506624
H -6.7447103638 1.7027207298 -0.6639737482
H -7.1709209358 0.3716826514 1.9979942807
H -7.1423661755 -0.4419129322 0.4028761466
H -4.9991141413 -0.9253135988 2.1585954891
O 1.7443100083 0.3254226944 0.6166424905
C 1.9381881674 -3.0026589343 -0.5779967298
C 5.3081514537 0.1985170919 1.2789676447
C 6.6332763844 0.9223567919 0.8242410827
C 6.0385320448 2.1410888522 0.0239386737
C 4.4915636313 1.9766344213 0.3078887506
O 4.4296628137 1.3347989475 1.6425625551
H 5.433523798 -0.7328023511 -0.7273843083
H 4.0933833657 0.9916579522 -1.698058896
H 1.3190601352 -2.9420232998 0.3409242879
H 5.4064710872 -0.5124274694 2.1223218682
H 7.2026506744 1.2616926707 1.7044189093
H 7.2811174354 0.2777746281 0.2088503851
H 6.4051480182 3.1038324312 0.4136284567
H 6.2628871962 2.0897122941 -1.0536948844
H 3.9100879704 2.9192167709 0.3028742223
H 2.5796451059 -3.9046737923 -0.5121851212
H 1.2792718972 -3.0762727054 -1.4626799637
H -1.9645594901 -3.9493020124 -1.7320019738
H -2.0806107029 -3.9519189413 0.0735629305
H -1.0131861388 -2.7648153011 -0.752561933
H -0.1857416711 -0.347671094 -2.1922131938
H 0.0867893967 -0.3327028816 -0.4056899173
H -0.081386145 2.189878242 -2.2165750989
H -0.0464386689 2.2153822693 -0.4134858284
$end

$rem
JOBTYPE                   OPT
METHOD                    B3LYP
DFT_D                     d3_op
BASIS                     STO-3G
GEOM_OPT_MAX_CYCLES       100
GEOM_OPT_TOL_GRADIENT     300
GEOM_OPT_TOL_DISPLACEMENT 1200
GEOM_OPT_TOL_ENERGY       100
SYMMETRY                  False
THRESH                    12
SCF_CONVERGENCE           8
MAX_SUB_FILE_NUM          128
MEM_STATIC                400
MEM_TOTAL                 4000
$end
--------------------------------------------------------------

   16   -1510.2689002789      5.20E-09 Convergence criterion met
 Total energy in the final basis set = -1510.26890028
   12   -1510.2712405082      9.53E-09 Convergence criterion met
 Total energy in the final basis set = -1510.27124051
   13   -1510.2730956112      2.57E-09 Convergence criterion met
 Total energy in the final basis set = -1510.27309561
   13   -1510.2745925569      5.34E-09 Convergence criterion met
 Total energy in the final basis set = -1510.27459256
   13   -1510.2757456620      9.08E-09 Convergence criterion met
 Total energy in the final basis set = -1510.27574566
   14   -1510.2769733191      5.60E-09 Convergence criterion met
 Total energy in the final basis set = -1510.27697332
   13   -1510.2776365109      6.05E-09 Convergence criterion met
 Total energy in the final basis set = -1510.27763651
   14   -1510.2786551079      5.10E-09 Convergence criterion met
   11   -1510.3005720074      7.86E-09 Convergence criterion met
 Total energy in the final basis set = -1510.30057201
   12   -1510.3006127157      3.73E-09 Convergence criterion met
 Total energy in the final basis set = -1510.30061272
   12   -1510.3006028041      3.90E-09 Convergence criterion met
 Total energy in the final basis set = -1510.30060280
   11   -1510.3006310640      7.72E-09 Convergence criterion met
 Total energy in the final basis set = -1510.30063106
    9   -1510.3006302583      7.89E-09 Convergence criterion met
 Total energy in the final basis set = -1510.30063026
    9   -1510.3006315112      5.89E-09 Convergence criterion met
 Total energy in the final basis set = -1510.30063151

             Standard Nuclear Orientation (Angstroms)
    I     Atom           X                Y                Z
 ----------------------------------------------------------------
    1      O      -3.0745663680     0.6982809039     2.9167899598
    2      C      -2.7575156835     1.0323143690     1.7565446232
    3      C      -3.6601141890     1.0022747283     0.4699365067
    4      C      -3.2126606915    -0.0767579578    -0.6027057204
    5      C      -2.0200028989    -0.9584633100    -0.1048919214
    6      O      -1.2517183961    -1.3927420106    -1.2365845378
    7      C      -0.1183648136    -2.2405110579    -0.7774824872
    8      C       0.9013026530    -2.3719050509    -1.9654240315
    9      O       1.9525771231    -1.3261467868    -1.8996680831
   10      C       3.0371150847    -1.7765639509    -1.0710169575
   11      C       4.0800818675    -0.6143999148    -0.9025106655
   12      C       3.4567731428     0.7541660267    -0.3894898992
   13      C       1.8980071927     0.7021464345    -0.2423089721
   14      O       1.2465989995     0.0285748046     0.5933505260
   15      O      -1.4926966250     1.6147544813     1.3982957760
   16      O       1.3344541197     1.5742135169    -1.2117275678
   17      O       3.1170035193    -2.9280607836    -0.5927434058
   18      C      -0.1458855020     1.4583750970    -1.2384547442
   19      C       5.0718853681    -0.9585250832     0.2820013025
   20      C       6.3082162224     0.0196472566     0.2142829727
   21      C       5.6737333061     1.3517160533     0.7637961773
   22      C       4.1830409483     0.8954243978     1.0180205965
   23      O       4.3246042421    -0.5040660354     1.4784281222
   24      H       4.6057508879    -0.4708182535    -1.8648234478
   25      H       3.7085819167     1.5847301981    -1.0714705912
   26      H       5.3080029463    -2.0374377732     0.3623755331
   27      H       7.1209840198    -0.3391629476     0.8654106508
   28      H       6.6968953008     0.1245234230    -0.8113275700
   29      H       6.1451201198     1.6619010516     1.7098419771
   30      H       5.7395857653     2.1848099492     0.0458935276
   31      H       3.6239481335     1.4929265421     1.7638862477
   32      O      -1.7519531573    -1.2527725395     1.0800690847
   33      C      -0.5138850566     1.4880298318     2.5045230867
   34      C      -5.1289383759     0.5098275100     0.8058086840
   35      C      -6.0717331948     0.9245179270    -0.3898251444
   36      C      -5.6281063405    -0.1057121627    -1.4937823416
   37      C      -4.5423556682    -0.9466502466    -0.7114437119
   38      O      -5.0408832939    -0.9645348543     0.6802207804
   39      H      -3.6599086694     2.0123884352     0.0219903582
   40      H      -2.9458758757     0.3808893729    -1.5708741882
   41      H       0.3314979948     0.8797927196     2.1145941220
   42      H      -5.4785684728     0.7881269861     1.8189225049
   43      H      -7.1292250117     0.7884320560    -0.1129306539
   44      H      -5.9174600019     1.9710426071    -0.6974514005
   45      H      -6.4639625735    -0.7523053507    -1.8049287267
   46      H      -5.2073928277     0.3821289296    -2.3877093855
   47      H      -4.3863593958    -1.9775551149    -1.0848179612
   48      H      -0.9954630390     0.9952629534     3.3712971521
   49      H      -0.1626622292     2.4991541327     2.7890534335
   50      H      -0.4453954587     0.4526855188    -1.6040063046
   51      H      -0.4911176785     2.2339322176    -1.9454109180
   52      H      -0.6107486453     1.6153238027    -0.2333324077
   53      H       1.3741414156    -3.3761687985    -1.9297898159
   54      H       0.3782028644    -2.2316364757    -2.9332235160
   55      H      -0.4922633923    -3.2425910600    -0.4754570657
   56      H       0.3783100542    -1.7536462207     0.0939014430
 ----------------------------------------------------------------

   11   -1510.3006328829      1.95E-09 Convergence criterion met
 Total energy in the final basis set = -1510.30063288
 Final energy is   -1510.30063288287
 **  OPTIMIZATION CONVERGED  **

                    Orbital Energies (a.u.)
 --------------------------------------------------------------

 Alpha MOs
 -- Occupied --
-18.939 -18.938 -18.932 -18.928 -18.889 -18.888 -18.884 -18.883
-18.873 -18.867 -10.105 -10.103 -10.100 -10.098 -10.076 -10.067
-10.063 -10.060 -10.059 -10.058 -10.041 -10.041 -10.041 -10.038
-10.037 -10.034 -10.022 -10.021 -10.021 -10.020  -1.021  -1.015
 -1.005  -1.003  -0.972  -0.970  -0.945  -0.939  -0.932  -0.931
 -0.765  -0.764  -0.729  -0.724  -0.713  -0.706  -0.699  -0.653
 -0.651  -0.618  -0.596  -0.581  -0.548  -0.544  -0.538  -0.538
 -0.514  -0.510  -0.483  -0.476  -0.460  -0.457  -0.454  -0.453
 -0.435  -0.432  -0.429  -0.418  -0.417  -0.405  -0.400  -0.398
 -0.393  -0.377  -0.371  -0.370  -0.360  -0.356  -0.354  -0.351
 -0.342  -0.342  -0.337  -0.333  -0.331  -0.328  -0.325  -0.312
 -0.310  -0.307  -0.305  -0.300  -0.296  -0.288  -0.281  -0.274
 -0.272  -0.259  -0.255  -0.251  -0.237  -0.235  -0.234  -0.184
 -0.180  -0.169  -0.167  -0.163  -0.158  -0.150  -0.149  -0.146
 -0.144

          Ground-State Mulliken Net Atomic Charges

     Atom                 Charge (a.u.)
  ----------------------------------------
      1 O                    -0.206080
      2 C                     0.220941
      3 C                    -0.079820
      4 C                    -0.079057
      5 C                     0.213915
      6 O                    -0.175420
      7 C                    -0.058008
      8 C                    -0.052480
      9 O                    -0.173259
     10 C                     0.211531
     11 C                    -0.077933
     12 C                    -0.080159
     13 C                     0.217101
     14 O                    -0.229511
     15 O                    -0.180020
     16 O                    -0.167447
     17 O                    -0.208101
     18 C                    -0.157723
     19 C                     0.024254
     20 C                    -0.144363
     21 C                    -0.143585
     22 C                     0.025362
     23 O                    -0.186873
     24 H                     0.085932
     25 H                     0.086598
     26 H                     0.091009
     27 H                     0.078755
     28 H                     0.073095
     29 H                     0.078392
     30 H                     0.073730
     31 H                     0.083209
     32 O                    -0.199874
     33 C                    -0.143374
     34 C                     0.025342
     35 C                    -0.143925
     36 C                    -0.143859
     37 C                     0.025684
     38 O                    -0.186368
     39 H                     0.084130
     40 H                     0.085501
     41 H                     0.105716
     42 H                     0.090954
     43 H                     0.078778
     44 H                     0.073236
     45 H                     0.078610
     46 H                     0.073404
     47 H                     0.082947
     48 H                     0.101299
     49 H                     0.077940
     50 H                     0.088832
     51 H                     0.076973
     52 H                     0.107862
     53 H                     0.098878
     54 H                     0.094187
     55 H                     0.087144
     56 H                     0.115997
  ----------------------------------------
  Sum of atomic charges =    -0.000000

                    Cartesian Multipole Moments
 -----------------------------------------------------------------
    Charge (ESU x 10^10)
                -0.0000
    Dipole Moment (Debye)
         X       0.7984      Y       2.1915      Z      -4.0193
       Tot       4.6470
    Quadrupole Moments (Debye-Ang)
        XX    -145.7213     XY      -0.2213     YY    -158.4011
        XZ       6.7776     YZ       8.1957     ZZ    -165.3021

 Total job time:  156.32s(wall), 7453.86s(cpu)
        *  Thank you very much for using Q-Chem.  Have a nice day.  *
