 Q-Chem 5.0, Q-Chem, Inc., Pleasanton, CA (2017)
 Q-Chem 5.0.1 for Intel X86 EM64T Linux

User input:
--------------------------------------------------------------
$molecule
0  1
O -3.94934 -3.66094 2.70899
C -3.26408 -4.56952 2.26188
C -3.36658 -6.02376 2.66595
C -2.13978 -6.91333 2.40619
C -0.88529 -6.21141 1.93539
O -0.11297 -7.07607 1.21337
C 1.09071 -6.47853 0.72008
C 0.76367 -5.22508 -0.08493
O 1.97685 -4.5543 -0.46059
C 3.1247 -5.17521 -0.09174
C 4.3633 -4.42185 -0.5148
C 4.15819 -2.91789 -0.74784
C 2.87541 -2.33212 -0.19281
O 2.75493 -1.79774 0.90011
O -2.6071 -4.32132 1.09648
O 1.89992 -2.10484 -1.11656
O 3.37978 -6.37129 -0.02722
C 0.72938 -1.42229 -0.85948
C 5.46846 -4.39541 0.56312
C 6.82409 -4.17113 -0.10425
C 6.68662 -2.72685 -0.54078
C 5.33427 -2.37789 0.09357
O 5.27557 -3.18291 1.24556
H 4.76248 -4.92409 -1.42758
H 4.24391 -2.62071 -1.81687
H 5.49736 -5.31097 1.19333
H 7.59173 -4.22794 0.70086
H 7.08991 -4.887 -0.91156
H 7.51002 -2.14063 -0.07578
H 6.67128 -2.56123 -1.63985
H 5.25934 -1.28053 0.2619
O -0.43 -5.24562 2.54265
C -2.53599 -3.08847 0.48176
C -3.47456 -6.16537 4.20106
C -4.10469 -7.51104 4.56105
C -2.96369 -8.4506 4.23753
C -1.88486 -7.4433 3.82965
O -2.14753 -6.32187 4.63489
H -4.30152 -6.4158 2.20726
H -2.36772 -7.74474 1.70061
H -2.03981 -2.35589 1.15341
H -4.04933 -5.34352 4.68145
H -4.2674 -7.52068 5.66273
H -5.06438 -7.73103 4.0458
H -2.66221 -8.97307 5.17277
H -3.17057 -9.19423 3.43776
H -0.87401 -7.89592 3.93804
H -3.55453 -2.72996 0.22105
H -1.94506 -3.18287 -0.45193
H 0.10733 -1.4052 -1.77763
H 0.95416 -0.37698 -0.55824
H 0.16503 -1.92842 -0.04971
H 0.17966 -5.49268 -0.99088
H 0.18297 -4.46808 0.46803
H 1.46652 -7.29433 0.06601
H 1.71814 -6.26537 1.62071
$end

$opt
CONSTRAINT
tors           1           2           3           4    -158.399
tors           3           4           5           6    -153.795
tors           4           5           6           7    +179.408
tors           5           6           7           8     -54.751
tors           6           7           8           9    +174.098
tors           7           8           9          10      +2.733
tors           8           9          10          11    -180.000
tors           9          10          11          12     +23.320
tors          11          12          13          14     +94.129
ENDCONSTRAINT
$end

$rem
JOBTYPE                   OPT
METHOD                    B3LYP
DFT_D                     d3_op
BASIS                     STO-3G
GEOM_OPT_MAX_CYCLES       100
GEOM_OPT_TOL_GRADIENT     300
GEOM_OPT_TOL_DISPLACEMENT 1200
GEOM_OPT_TOL_ENERGY       100
SYMMETRY                  False
THRESH                    12
SCF_CONVERGENCE           8
MAX_SUB_FILE_NUM          128
MEM_STATIC                400
MEM_TOTAL                 4000
$end
--------------------------------------------------------------

   15   -1510.0993323979      8.72E-09 Convergence criterion met
 Total energy in the final basis set = -1510.09933240
   14   -1510.1750272764      9.73E-09 Convergence criterion met
 Total energy in the final basis set = -1510.17502728
   15   -1510.2172562794      2.66E-09 Convergence criterion met
 Total energy in the final basis set = -1510.21725628
   15   -1510.2421176782      1.92E-09 Convergence criterion met
 Total energy in the final basis set = -1510.24211768
   14   -1510.2548363729      4.68E-09 Convergence criterion met
 Total energy in the final basis set = -1510.25483637
   14   -1510.2606824847      2.65E-09 Convergence criterion met
 Total energy in the final basis set = -1510.26068248
   13   -1510.2641300106      9.38E-09 Convergence criterion met
 Total energy in the final basis set = -1510.26413001
   13   -1510.2660926612      2.65E-09 Convergence criterion met
    9   -1510.2689284556      9.52E-09 Convergence criterion met
 Total energy in the final basis set = -1510.26892846
    9   -1510.2689392388      6.87E-09 Convergence criterion met
 Total energy in the final basis set = -1510.26893924
    9   -1510.2689406945      3.64E-09 Convergence criterion met
 Total energy in the final basis set = -1510.26894069
    9   -1510.2689420946      2.34E-09 Convergence criterion met
 Total energy in the final basis set = -1510.26894209
    9   -1510.2689436445      3.79E-09 Convergence criterion met
 Total energy in the final basis set = -1510.26894364
    9   -1510.2689450423      3.41E-09 Convergence criterion met
 Total energy in the final basis set = -1510.26894504

             Standard Nuclear Orientation (Angstroms)
    I     Atom           X                Y                Z
 ----------------------------------------------------------------
    1      O       4.0485497370    -2.6393920106     1.0098556067
    2      C       3.7768061506    -1.7053497256     0.2256546275
    3      C       4.6385449860    -0.4182190047    -0.0237088948
    4      C       3.8891738004     0.8339273650    -0.6251938098
    5      C       2.3399177411     0.8121881775    -0.3700990252
    6      O       1.7272662954     1.5749029648    -1.4141624647
    7      C       0.2415745205     1.6350246867    -1.3150627791
    8      C      -0.4078512701     0.1971525006    -1.2491084306
    9      O      -1.8712071508     0.0578868080    -1.0152194780
   10      C      -2.6646995565     1.2317500494    -0.9141414717
   11      C      -4.1671357356     0.8188173658    -0.6684431578
   12      C      -4.4578031287    -0.6053605817    -0.0325018729
   13      C      -3.2187781448    -1.5465240123     0.1790344494
   14      O      -2.5227614851    -1.6838988495     1.2071312488
   15      O       2.7399446748    -1.7735713178    -0.7644489952
   16      O      -3.1148768281    -2.3878346339    -0.9832624954
   17      O      -2.2712929913     2.4119051469    -1.0297730648
   18      C      -1.9730040497    -3.3136729817    -0.8274616500
   19      C      -4.7958279250     1.7719878372     0.4356676795
   20      C      -6.3699993052     1.6652468440     0.3714411162
   21      C      -6.6097764792     0.2681672772     1.0555508376
   22      C      -5.1250542742    -0.1835285574     1.3463066014
   23      O      -4.4446607599     1.0842045024     1.6986553653
   24      H      -4.6938295031     0.9259935596    -1.6354412215
   25      H      -5.1733950841    -1.1544860587    -0.6698674112
   26      H      -4.3832382774     2.7998493683     0.4177941100
   27      H      -6.8351211809     2.4826164017     0.9449506624
   28      H      -6.7447103638     1.7027207298    -0.6639737482
   29      H      -7.1709209358     0.3716826514     1.9979942807
   30      H      -7.1423661755    -0.4419129322     0.4028761466
   31      H      -4.9991141413    -0.9253135988     2.1585954891
   32      O       1.7443100083     0.3254226944     0.6166424905
   33      C       1.9381881674    -3.0026589343    -0.5779967298
   34      C       5.3081514537     0.1985170919     1.2789676447
   35      C       6.6332763844     0.9223567919     0.8242410827
   36      C       6.0385320448     2.1410888522     0.0239386737
   37      C       4.4915636313     1.9766344213     0.3078887506
   38      O       4.4296628137     1.3347989475     1.6425625551
   39      H       5.4335237980    -0.7328023511    -0.7273843083
   40      H       4.0933833657     0.9916579522    -1.6980588960
   41      H       1.3190601352    -2.9420232998     0.3409242879
   42      H       5.4064710872    -0.5124274694     2.1223218682
   43      H       7.2026506744     1.2616926707     1.7044189093
   44      H       7.2811174354     0.2777746281     0.2088503851
   45      H       6.4051480182     3.1038324312     0.4136284567
   46      H       6.2628871962     2.0897122941    -1.0536948844
   47      H       3.9100879704     2.9192167709     0.3028742223
   48      H       2.5796451059    -3.9046737923    -0.5121851212
   49      H       1.2792718972    -3.0762727054    -1.4626799637
   50      H      -1.9645594901    -3.9493020124    -1.7320019738
   51      H      -2.0806107029    -3.9519189413     0.0735629305
   52      H      -1.0131861388    -2.7648153011    -0.7525619330
   53      H      -0.1857416711    -0.3476710940    -2.1922131938
   54      H       0.0867893967    -0.3327028816    -0.4056899173
   55      H      -0.0813861450     2.1898782420    -2.2165750989
   56      H      -0.0464386689     2.2153822693    -0.4134858284
 ----------------------------------------------------------------

    9   -1510.2689458820      5.58E-09 Convergence criterion met
 Total energy in the final basis set = -1510.26894588
 Final energy is   -1510.26894588201
 **  OPTIMIZATION CONVERGED  **

                    Orbital Energies (a.u.)
 --------------------------------------------------------------

 Alpha MOs
 -- Occupied --
-18.947 -18.935 -18.934 -18.921 -18.888 -18.884 -18.878 -18.876
-18.875 -18.861 -10.109 -10.102 -10.101 -10.093 -10.074 -10.072
-10.066 -10.061 -10.059 -10.059 -10.056 -10.055 -10.039 -10.038
-10.038 -10.032 -10.022 -10.020 -10.018 -10.017  -1.018  -1.014
 -1.007  -0.999  -0.971  -0.967  -0.945  -0.940  -0.935  -0.925
 -0.765  -0.761  -0.729  -0.722  -0.711  -0.703  -0.697  -0.664
 -0.658  -0.625  -0.597  -0.589  -0.546  -0.542  -0.538  -0.535
 -0.513  -0.510  -0.483  -0.474  -0.463  -0.457  -0.454  -0.447
 -0.437  -0.433  -0.428  -0.414  -0.411  -0.408  -0.405  -0.395
 -0.387  -0.379  -0.378  -0.365  -0.363  -0.361  -0.355  -0.348
 -0.345  -0.337  -0.334  -0.331  -0.328  -0.327  -0.324  -0.314
 -0.313  -0.306  -0.305  -0.300  -0.296  -0.291  -0.290  -0.274
 -0.271  -0.261  -0.252  -0.247  -0.234  -0.232  -0.232  -0.185
 -0.182  -0.173  -0.166  -0.158  -0.155  -0.149  -0.143  -0.142
 -0.141

          Ground-State Mulliken Net Atomic Charges

     Atom                 Charge (a.u.)
  ----------------------------------------
      1 O                    -0.212118
      2 C                     0.214779
      3 C                    -0.079320
      4 C                    -0.076969
      5 C                     0.217723
      6 O                    -0.173107
      7 C                    -0.048974
      8 C                    -0.059097
      9 O                    -0.166882
     10 C                     0.216448
     11 C                    -0.076871
     12 C                    -0.081306
     13 C                     0.218111
     14 O                    -0.218421
     15 O                    -0.173904
     16 O                    -0.173825
     17 O                    -0.216410
     18 C                    -0.128996
     19 C                     0.024049
     20 C                    -0.144410
     21 C                    -0.143785
     22 C                     0.025047
     23 O                    -0.188714
     24 H                     0.084560
     25 H                     0.083967
     26 H                     0.088744
     27 H                     0.078227
     28 H                     0.072654
     29 H                     0.077850
     30 H                     0.072750
     31 H                     0.086983
     32 O                    -0.211980
     33 C                    -0.129855
     34 C                     0.025253
     35 C                    -0.142090
     36 C                    -0.145026
     37 C                     0.024856
     38 O                    -0.187324
     39 H                     0.084181
     40 H                     0.087342
     41 H                     0.092449
     42 H                     0.091164
     43 H                     0.078875
     44 H                     0.073410
     45 H                     0.078772
     46 H                     0.073588
     47 H                     0.083589
     48 H                     0.092593
     49 H                     0.086397
     50 H                     0.085595
     51 H                     0.087081
     52 H                     0.083347
     53 H                     0.083774
     54 H                     0.108867
     55 H                     0.096818
     56 H                     0.099543
  ----------------------------------------
  Sum of atomic charges =     0.000000

                    Cartesian Multipole Moments
 -----------------------------------------------------------------
    Charge (ESU x 10^10)
                 0.0000
    Dipole Moment (Debye)
         X      -0.0720      Y      -0.5811      Z      -3.9418
       Tot       3.9850
    Quadrupole Moments (Debye-Ang)
        XX    -135.3787     XY       5.1916     YY    -158.1863
        XZ      -3.4776     YZ       2.4481     ZZ    -166.2466

 Total job time:  68.09s(wall), 3241.67s(cpu)
        *  Thank you very much for using Q-Chem.  Have a nice day.  *
