 Q-Chem 5.0, Q-Chem, Inc., Pleasanton, CA (2017)
 Q-Chem 5.0.1 for Intel X86 EM64T Linux

User input:
--------------------------------------------------------------
$molecule
0  1
O -3.94934 -3.66094 2.70899
C -3.26408 -4.56952 2.26188
C -3.36658 -6.02376 2.66595
C -2.06889 -6.84826 2.65836
C -0.7856 -6.08389 2.41963
O -0.14561 -6.58319 1.3212
C 0.71172 -5.62848 0.68656
C -0.10875 -4.68189 -0.18346
O 0.47529 -3.36987 -0.16468
C 1.3914 -3.15331 0.81153
C 1.98986 -1.76773 0.7599
C 1.83065 -1.04354 -0.58489
C 0.81429 -1.63778 -1.53914
O -0.25638 -1.13038 -1.84044
O -3.01473 -4.43563 0.9438
O 1.29797 -2.62747 -2.3471
O 1.26769 -3.53306 1.96885
C 0.6233 -3.14602 -3.43369
C 1.31323 -0.74314 1.70657
C 2.29738 0.37921 2.02933
C 2.3596 1.08957 0.69452
C 1.28842 0.31029 -0.07798
O 0.36648 -0.08321 0.90678
H 3.05768 -1.87442 1.05805
H 2.78542 -0.91534 -1.14133
H 0.92608 -1.18125 2.65168
H 1.79313 1.04776 2.76397
H 3.27766 0.05826 2.44264
H 2.05264 2.14821 0.84645
H 3.34268 1.04616 0.17754
H 0.88284 0.93863 -0.90165
O -0.42125 -5.12176 3.08096
C -3.23872 -3.28467 0.20236
C -3.74952 -6.16981 4.15838
C -4.3673 -7.54574 4.41075
C -3.14112 -8.42704 4.31393
C -2.05574 -7.36722 4.10498
O -2.51995 -6.2589 4.83415
H -4.17945 -6.47462 2.05262
H -2.13164 -7.68776 1.92799
H -2.63087 -2.44635 0.6064
H -4.44572 -5.38082 4.51744
H -4.72924 -7.56122 5.46388
H -5.20406 -7.81629 3.7314
H -2.99457 -8.93524 5.29308
H -3.15842 -9.17907 3.49564
H -1.06087 -7.76745 4.40226
H -4.31601 -3.01419 0.22239
H -2.94203 -3.46367 -0.85169
H 1.23772 -3.94545 -3.89592
H 0.44632 -2.34966 -4.18769
H -0.34925 -3.57706 -3.11574
H -0.26121 -5.06897 -1.2135
H -1.04028 -4.56491 0.26382
H 1.28178 -6.18375 -0.0892
H 1.60754 -5.51183 1.32425
$end

$opt
CONSTRAINT
tors           1           2           3           4    -147.072
tors           3           4           5           6    -121.833
tors           4           5           6           7    +154.648
tors           5           6           7           8     -79.602
tors           6           7           8           9    +145.752
tors           7           8           9          10     -14.592
tors           8           9          10          11    +178.748
tors           9          10          11          12     -19.071
tors          11          12          13          14    +109.898
ENDCONSTRAINT
$end

$rem
JOBTYPE                   OPT
METHOD                    B3LYP
DFT_D                     d3_op
BASIS                     STO-3G
GEOM_OPT_MAX_CYCLES       100
GEOM_OPT_TOL_GRADIENT     300
GEOM_OPT_TOL_DISPLACEMENT 1200
GEOM_OPT_TOL_ENERGY       100
SYMMETRY                  False
THRESH                    12
SCF_CONVERGENCE           8
MAX_SUB_FILE_NUM          128
MEM_STATIC                400
MEM_TOTAL                 4000
$end
--------------------------------------------------------------

   16   -1510.0520345541      4.42E-09 Convergence criterion met
 Total energy in the final basis set = -1510.05203455
   14   -1510.1381207402      7.24E-09 Convergence criterion met
 Total energy in the final basis set = -1510.13812074
   14   -1510.1914072159      8.43E-09 Convergence criterion met
 Total energy in the final basis set = -1510.19140722
   15   -1510.2248251230      2.15E-09 Convergence criterion met
 Total energy in the final basis set = -1510.22482512
   15   -1510.2416244552      1.95E-09 Convergence criterion met
 Total energy in the final basis set = -1510.24162446
   14   -1510.2553773297      7.17E-09 Convergence criterion met
 Total energy in the final basis set = -1510.25537733
   14   -1510.2623619921      5.97E-09 Convergence criterion met
 Total energy in the final basis set = -1510.26236199
   13   -1510.2681230902      7.39E-09 Convergence criterion met
   12   -1510.2770781265      4.03E-09 Convergence criterion met
 Total energy in the final basis set = -1510.27707813
   11   -1510.2771304594      9.60E-09 Convergence criterion met
 Total energy in the final basis set = -1510.27713046
   11   -1510.2771630849      5.29E-09 Convergence criterion met
 Total energy in the final basis set = -1510.27716308
   11   -1510.2771813996      2.86E-09 Convergence criterion met
 Total energy in the final basis set = -1510.27718140
    9   -1510.2771871419      5.61E-09 Convergence criterion met
 Total energy in the final basis set = -1510.27718714
    9   -1510.2771897344      8.98E-09 Convergence criterion met
 Total energy in the final basis set = -1510.27718973

             Standard Nuclear Orientation (Angstroms)
    I     Atom           X                Y                Z
 ----------------------------------------------------------------
    1      O       2.5101205767     1.5890436084     2.4222811814
    2      C       2.4748671548     0.6766187885     1.5682190184
    3      C       3.7365847953    -0.0728411496     1.0030342348
    4      C       3.7418991083    -0.5843358056    -0.5006838817
    5      C       2.4494809638    -0.3040917525    -1.3431266578
    6      O       1.9516085499    -1.5785778279    -1.8001524460
    7      C       0.4952327908    -1.5159470067    -2.0580185210
    8      C      -0.2694711761    -1.6308511560    -0.6822277848
    9      O      -1.5452334381    -0.8749569428    -0.5036717246
   10      C      -1.8892610397     0.1535445180    -1.4150634510
   11      C      -3.2866594887     0.7387418677    -0.9939052600
   12      C      -4.2027405948    -0.1454599405    -0.0477231993
   13      C      -3.7046322478    -1.6026769930     0.2706793477
   14      O      -3.2764275084    -2.0416380681     1.3588034258
   15      O       1.2506947955     0.0951277811     1.1037584409
   16      O      -3.9238135644    -2.4068316533    -0.8990314282
   17      O      -1.2156450044     0.5943768750    -2.3778969084
   18      C      -3.5224420296    -3.8057640115    -0.6327568067
   19      C      -3.0460600999     2.0052755944    -0.0559280660
   20      C      -4.3896378359     2.8299634924     0.0479761440
   21      C      -5.2212362690     1.9390206977     1.0441592012
   22      C      -4.2264029903     0.7375954876     1.2706063093
   23      O      -2.8957499600     1.3906255654     1.2810018250
   24      H      -3.8167869930     1.0244335987    -1.9195658412
   25      H      -5.2122035222    -0.2301304955    -0.4894330175
   26      H      -2.1486019526     2.5992350272    -0.3180791993
   27      H      -4.1966881021     3.8326445184     0.4611298835
   28      H      -4.8789965769     2.9395543973    -0.9330385289
   29      H      -5.4140735216     2.4659859207     1.9923304693
   30      H      -6.1826243797     1.6079897158     0.6202535226
   31      H      -4.3724819649     0.1511453068     2.1985919567
   32      O       1.9103891131     0.7962468971    -1.5839661347
   33      C       0.0930461802     0.8109394210     1.6989938005
   34      C       4.9829503495     0.9098523983     0.9957128015
   35      C       6.3056750952     0.0498877460     0.9717474248
   36      C       6.3139962088    -0.4508903028    -0.5204044701
   37      C       4.9940060519     0.2192223664    -1.0723377991
   38      O       4.9315509517     1.5118177656    -0.3557713669
   39      H       3.9167247687    -0.9305032676     1.6793985923
   40      H       3.9175072851    -1.6737406836    -0.5329009140
   41      H       0.1508463352     1.8976944987     1.4925774432
   42      H       4.9266450312     1.6936133944     1.7766766834
   43      H       7.1805209202     0.6825087912     1.1907893634
   44      H       6.2770706324    -0.7775876153     1.6987123522
   45      H       7.1936423380    -0.0772964548    -1.0681724534
   46      H       6.2856738485    -1.5491350867    -0.6016475192
   47      H       4.9694101099     0.3819524179    -2.1673273001
   48      H       0.0557065636     0.6621384940     2.7967523529
   49      H      -0.8238869469     0.3942444661     1.2359273838
   50      H      -3.6690716117    -4.3535248800    -1.5819479307
   51      H      -4.1473166378    -4.2673070148     0.1594372736
   52      H      -2.4600193236    -3.8789149366    -0.3240948309
   53      H      -0.5311090479    -2.6834803645    -0.4510424645
   54      H       0.4219171482    -1.2460164298     0.1069848626
   55      H       0.2577935007    -2.3679532098    -2.7232340667
   56      H       0.1808756837    -0.5544129059    -2.5273677350
 ----------------------------------------------------------------

    9   -1510.2771898109      5.80E-09 Convergence criterion met
 Total energy in the final basis set = -1510.27718981
 Final energy is   -1510.27718981089
 **  OPTIMIZATION CONVERGED  **

                    Orbital Energies (a.u.)
 --------------------------------------------------------------

 Alpha MOs
 -- Occupied --
-18.949 -18.940 -18.928 -18.918 -18.893 -18.886 -18.886 -18.876
-18.874 -18.867 -10.113 -10.102 -10.099 -10.094 -10.064 -10.064
-10.061 -10.060 -10.058 -10.056 -10.051 -10.051 -10.041 -10.040
-10.037 -10.034 -10.023 -10.022 -10.019 -10.018  -1.020  -1.013
 -1.004  -1.000  -0.975  -0.969  -0.948  -0.937  -0.931  -0.930
 -0.766  -0.761  -0.728  -0.721  -0.711  -0.705  -0.693  -0.663
 -0.655  -0.620  -0.599  -0.585  -0.547  -0.542  -0.540  -0.536
 -0.514  -0.510  -0.485  -0.474  -0.462  -0.458  -0.448  -0.443
 -0.441  -0.432  -0.429  -0.414  -0.410  -0.408  -0.402  -0.394
 -0.392  -0.380  -0.372  -0.366  -0.361  -0.357  -0.350  -0.346
 -0.344  -0.339  -0.338  -0.334  -0.329  -0.327  -0.322  -0.312
 -0.311  -0.308  -0.306  -0.302  -0.301  -0.292  -0.286  -0.276
 -0.271  -0.259  -0.252  -0.247  -0.239  -0.232  -0.230  -0.183
 -0.181  -0.173  -0.172  -0.155  -0.151  -0.150  -0.147  -0.144
 -0.142

          Ground-State Mulliken Net Atomic Charges

     Atom                 Charge (a.u.)
  ----------------------------------------
      1 O                    -0.209593
      2 C                     0.214798
      3 C                    -0.078737
      4 C                    -0.081254
      5 C                     0.210554
      6 O                    -0.180667
      7 C                    -0.073929
      8 C                    -0.065563
      9 O                    -0.169840
     10 C                     0.219426
     11 C                    -0.077804
     12 C                    -0.080979
     13 C                     0.219594
     14 O                    -0.219490
     15 O                    -0.175041
     16 O                    -0.176062
     17 O                    -0.206343
     18 C                    -0.128149
     19 C                     0.024340
     20 C                    -0.143829
     21 C                    -0.143617
     22 C                     0.024585
     23 O                    -0.191631
     24 H                     0.087721
     25 H                     0.084130
     26 H                     0.086237
     27 H                     0.079551
     28 H                     0.075124
     29 H                     0.078777
     30 H                     0.074071
     31 H                     0.089909
     32 O                    -0.202965
     33 C                    -0.133465
     34 C                     0.024507
     35 C                    -0.144142
     36 C                    -0.144097
     37 C                     0.025899
     38 O                    -0.187398
     39 H                     0.084765
     40 H                     0.085324
     41 H                     0.091113
     42 H                     0.091904
     43 H                     0.078413
     44 H                     0.072789
     45 H                     0.078019
     46 H                     0.073347
     47 H                     0.083741
     48 H                     0.088269
     49 H                     0.109250
     50 H                     0.088518
     51 H                     0.086762
     52 H                     0.084949
     53 H                     0.081226
     54 H                     0.112242
     55 H                     0.080722
     56 H                     0.124021
  ----------------------------------------
  Sum of atomic charges =     0.000000

                    Cartesian Multipole Moments
 -----------------------------------------------------------------
    Charge (ESU x 10^10)
                 0.0000
    Dipole Moment (Debye)
         X      -1.5665      Y      -2.5333      Z      -0.0826
       Tot       2.9796
    Quadrupole Moments (Debye-Ang)
        XX    -139.1730     XY     -11.2417     YY    -157.6035
        XZ       4.0351     YZ       2.3762     ZZ    -166.8270

 Total job time:  67.18s(wall), 3199.50s(cpu)
        *  Thank you very much for using Q-Chem.  Have a nice day.  *
