 Q-Chem 5.0, Q-Chem, Inc., Pleasanton, CA (2017)
 Q-Chem 5.0.1 for Intel X86 EM64T Linux

User input:
--------------------------------------------------------------
$molecule
0  1
O 2.5101205767 1.5890436084 2.4222811814
C 2.4748671548 0.6766187885 1.5682190184
C 3.7365847953 -0.0728411496 1.0030342348
C 3.7418991083 -0.5843358056 -0.5006838817
C 2.4494809638 -0.3040917525 -1.3431266578
O 1.9516085499 -1.5785778279 -1.800152446
C 0.4952327908 -1.5159470067 -2.058018521
C -0.2694711761 -1.630851156 -0.6822277848
O -1.5452334381 -0.8749569428 -0.5036717246
C -1.8892610397 0.153544518 -1.415063451
C -3.2866594887 0.7387418677 -0.99390526
C -4.2027405948 -0.1454599405 -0.0477231993
C -3.7046322478 -1.602676993 0.2706793477
O -3.2764275084 -2.0416380681 1.3588034258
O 1.2506947955 0.0951277811 1.1037584409
O -3.9238135644 -2.4068316533 -0.8990314282
O -1.2156450044 0.594376875 -2.3778969084
C -3.5224420296 -3.8057640115 -0.6327568067
C -3.0460600999 2.0052755944 -0.055928066
C -4.3896378359 2.8299634924 0.047976144
C -5.221236269 1.9390206977 1.0441592012
C -4.2264029903 0.7375954876 1.2706063093
O -2.89574996 1.3906255654 1.281001825
H -3.816786993 1.0244335987 -1.9195658412
H -5.2122035222 -0.2301304955 -0.4894330175
H -2.1486019526 2.5992350272 -0.3180791993
H -4.1966881021 3.8326445184 0.4611298835
H -4.8789965769 2.9395543973 -0.9330385289
H -5.4140735216 2.4659859207 1.9923304693
H -6.1826243797 1.6079897158 0.6202535226
H -4.3724819649 0.1511453068 2.1985919567
O 1.9103891131 0.7962468971 -1.5839661347
C 0.0930461802 0.810939421 1.6989938005
C 4.9829503495 0.9098523983 0.9957128015
C 6.3056750952 0.049887746 0.9717474248
C 6.3139962088 -0.4508903028 -0.5204044701
C 4.9940060519 0.2192223664 -1.0723377991
O 4.9315509517 1.5118177656 -0.3557713669
H 3.9167247687 -0.9305032676 1.6793985923
H 3.9175072851 -1.6737406836 -0.532900914
H 0.1508463352 1.8976944987 1.4925774432
H 4.9266450312 1.6936133944 1.7766766834
H 7.1805209202 0.6825087912 1.1907893634
H 6.2770706324 -0.7775876153 1.6987123522
H 7.193642338 -0.0772964548 -1.0681724534
H 6.2856738485 -1.5491350867 -0.6016475192
H 4.9694101099 0.3819524179 -2.1673273001
H 0.0557065636 0.662138494 2.7967523529
H -0.8238869469 0.3942444661 1.2359273838
H -3.6690716117 -4.35352488 -1.5819479307
H -4.1473166378 -4.2673070148 0.1594372736
H -2.4600193236 -3.8789149366 -0.3240948309
H -0.5311090479 -2.6834803645 -0.4510424645
H 0.4219171482 -1.2460164298 0.1069848626
H 0.2577935007 -2.3679532098 -2.7232340667
H 0.1808756837 -0.5544129059 -2.527367735
$end

$rem
JOBTYPE                   OPT
METHOD                    B3LYP
DFT_D                     d3_op
BASIS                     STO-3G
GEOM_OPT_MAX_CYCLES       100
GEOM_OPT_TOL_GRADIENT     300
GEOM_OPT_TOL_DISPLACEMENT 1200
GEOM_OPT_TOL_ENERGY       100
SYMMETRY                  False
THRESH                    12
SCF_CONVERGENCE           8
MAX_SUB_FILE_NUM          128
MEM_STATIC                400
MEM_TOTAL                 4000
$end
--------------------------------------------------------------

   16   -1510.2771383545      5.95E-09 Convergence criterion met
 Total energy in the final basis set = -1510.27713835
   15   -1510.2763956493      2.81E-09 Convergence criterion met
 Total energy in the final basis set = -1510.27639565
   14   -1510.2785719813      7.00E-09 Convergence criterion met
 Total energy in the final basis set = -1510.27857198
   14   -1510.2749384500      4.54E-09 Convergence criterion met
 Total energy in the final basis set = -1510.27493845
   15   -1510.2776427967      1.70E-09 Convergence criterion met
 Total energy in the final basis set = -1510.27764280
   15   -1510.2786082960      2.32E-09 Convergence criterion met
 Total energy in the final basis set = -1510.27860830
   14   -1510.2806037619      5.82E-09 Convergence criterion met
 Total energy in the final basis set = -1510.28060376
   13   -1510.2824717052      6.46E-09 Convergence criterion met
   12   -1510.2860000551      7.01E-09 Convergence criterion met
 Total energy in the final basis set = -1510.28600006
   12   -1510.2859277361      6.53E-09 Convergence criterion met
 Total energy in the final basis set = -1510.28592774
   12   -1510.2860066681      4.22E-09 Convergence criterion met
 Total energy in the final basis set = -1510.28600667
   11   -1510.2860013762      2.13E-09 Convergence criterion met
 Total energy in the final basis set = -1510.28600138
   11   -1510.2860069898      2.85E-09 Convergence criterion met
 Total energy in the final basis set = -1510.28600699
    9   -1510.2860084950      7.21E-09 Convergence criterion met
 Total energy in the final basis set = -1510.28600850

             Standard Nuclear Orientation (Angstroms)
    I     Atom           X                Y                Z
 ----------------------------------------------------------------
    1      O       2.6912655653    -2.5271781304     0.5011790091
    2      C       2.5747311101    -1.5414285169    -0.2553697469
    3      C       3.7386837759    -0.6120071793    -0.7672354729
    4      C       3.7017822326     0.8781699118    -0.2122907468
    5      C       2.4114803637     1.1437285981     0.6245717248
    6      O       1.7567400288     2.3152225129     0.1072178252
    7      C       0.3229377203     2.2757898230     0.4897678369
    8      C      -0.3730743644     1.3073015197    -0.5438569347
    9      O      -1.7482449385     0.8593863918    -0.2231830155
   10      C      -1.9262808112     0.3091567698     1.0803882546
   11      C      -3.3293293158    -0.3996253143     1.1144912826
   12      C      -4.3321968468     0.0594241284    -0.0200442335
   13      C      -3.9884619520     1.4146917673    -0.7381799394
   14      O      -3.9041681979     1.6192250257    -1.9673478966
   15      O       1.3195675830    -1.1538883651    -0.8552263896
   16      O      -3.9187772401     2.4422608493     0.2644305779
   17      O      -1.0873191131     0.3267719680     2.0085060950
   18      C      -3.5500274213     3.7281886459    -0.3660095945
   19      C      -3.1045458742    -1.9157545682     0.6855762954
   20      C      -4.4502894857    -2.7288307549     0.8485303200
   21      C      -5.2404990129    -2.2872556151    -0.4393725554
   22      C      -4.2715652979    -1.1835649980    -1.0088769811
   23      O      -2.9316152289    -1.7834583502    -0.7799850958
   24      H      -3.7562670433    -0.3044124826     2.1283527776
   25      H      -5.3477816366     0.1608447915     0.4055788847
   26      H      -2.2167556445    -2.3898613002     1.1462782417
   27      H      -4.2496872400    -3.8117671217     0.8546355116
   28      H      -4.9755531563    -2.4619938666     1.7795367402
   29      H      -5.3382438526    -3.1190620789    -1.1554456439
   30      H      -6.2439962288    -1.8927371337    -0.2137546410
   31      H      -4.4009279140    -0.9157864676    -2.0758537098
   32      O       1.9623761766     0.4298139830     1.5482235485
   33      C       0.2498204512    -2.0789691576    -0.3993761517
   34      C       5.1145272434    -1.1176196988    -0.1643143504
   35      C       6.2997186389    -0.4248042457    -0.9443311099
   36      C       6.2552892933     1.0287634669    -0.3412077067
   37      C       5.0354101507     0.9046945693     0.6545766888
   38      O       5.1468100795    -0.4760951277     1.1707469499
   39      H       3.7328221138    -0.6181903734    -1.8726977452
   40      H       3.7380541242     1.6132031530    -1.0348750385
   41      H       0.1469619455    -2.0447509300     0.7041474687
   42      H       5.1800091872    -2.2180396168    -0.0617269696
   43      H       7.2540428494    -0.9266879388    -0.7194366968
   44      H       6.1416019132    -0.4382183223    -2.0346972135
   45      H       7.1790506030     1.2653377113     0.2105422917
   46      H       6.0902776078     1.8044837933    -1.1056733703
   47      H       5.0275260609     1.6321460208     1.4894559855
   48      H       0.4671258107    -3.1223874731    -0.7024195680
   49      H      -0.6967518018    -1.7423855318    -0.8697558030
   50      H      -3.5799664820     4.4864753942     0.4380245746
   51      H      -4.2580579483     4.0108104972    -1.1716883514
   52      H      -2.5283069568     3.6874670584    -0.7969238662
   53      H      -0.4744793840     1.8088369274    -1.5272988847
   54      H       0.2925121300     0.4155508803    -0.6706315439
   55      H      -0.0665857461     3.3098745144     0.4272061802
   56      H       0.1851117135     1.8525853083     1.5079862689
 ----------------------------------------------------------------

    9   -1510.2860075432      4.73E-09 Convergence criterion met
 Total energy in the final basis set = -1510.28600754
 Final energy is   -1510.28600754322
 **  OPTIMIZATION CONVERGED  **

                    Orbital Energies (a.u.)
 --------------------------------------------------------------

 Alpha MOs
 -- Occupied --
-18.941 -18.936 -18.928 -18.924 -18.892 -18.888 -18.881 -18.880
-18.878 -18.864 -10.106 -10.100 -10.098 -10.097 -10.064 -10.061
-10.061 -10.060 -10.059 -10.059 -10.058 -10.055 -10.040 -10.040
-10.038 -10.036 -10.024 -10.022 -10.021 -10.019  -1.018  -1.013
 -1.006  -1.001  -0.974  -0.970  -0.943  -0.936  -0.935  -0.929
 -0.766  -0.763  -0.729  -0.723  -0.709  -0.706  -0.693  -0.660
 -0.658  -0.618  -0.598  -0.585  -0.547  -0.546  -0.540  -0.536
 -0.512  -0.510  -0.488  -0.475  -0.463  -0.461  -0.452  -0.445
 -0.437  -0.432  -0.429  -0.411  -0.410  -0.408  -0.405  -0.395
 -0.387  -0.380  -0.373  -0.363  -0.363  -0.357  -0.355  -0.348
 -0.343  -0.341  -0.336  -0.333  -0.332  -0.327  -0.323  -0.312
 -0.310  -0.307  -0.305  -0.302  -0.300  -0.292  -0.282  -0.275
 -0.274  -0.256  -0.254  -0.250  -0.239  -0.234  -0.233  -0.191
 -0.177  -0.171  -0.166  -0.156  -0.154  -0.150  -0.149  -0.145
 -0.144

          Ground-State Mulliken Net Atomic Charges

     Atom                 Charge (a.u.)
  ----------------------------------------
      1 O                    -0.201427
      2 C                     0.214534
      3 C                    -0.078613
      4 C                    -0.080621
      5 C                     0.207207
      6 O                    -0.174948
      7 C                    -0.064773
      8 C                    -0.064442
      9 O                    -0.170706
     10 C                     0.215969
     11 C                    -0.076561
     12 C                    -0.079760
     13 C                     0.221525
     14 O                    -0.221492
     15 O                    -0.176077
     16 O                    -0.177406
     17 O                    -0.207472
     18 C                    -0.128353
     19 C                     0.023468
     20 C                    -0.144576
     21 C                    -0.142376
     22 C                     0.024426
     23 O                    -0.194413
     24 H                     0.087440
     25 H                     0.083103
     26 H                     0.083458
     27 H                     0.079034
     28 H                     0.075249
     29 H                     0.078334
     30 H                     0.074303
     31 H                     0.091932
     32 O                    -0.202675
     33 C                    -0.137128
     34 C                     0.025634
     35 C                    -0.144607
     36 C                    -0.143392
     37 C                     0.026214
     38 O                    -0.184918
     39 H                     0.084966
     40 H                     0.086332
     41 H                     0.091351
     42 H                     0.090459
     43 H                     0.078687
     44 H                     0.073098
     45 H                     0.078439
     46 H                     0.073741
     47 H                     0.084401
     48 H                     0.087609
     49 H                     0.105382
     50 H                     0.087975
     51 H                     0.088712
     52 H                     0.083510
     53 H                     0.086138
     54 H                     0.105539
     55 H                     0.082928
     56 H                     0.115643
  ----------------------------------------
  Sum of atomic charges =     0.000000

                    Cartesian Multipole Moments
 -----------------------------------------------------------------
    Charge (ESU x 10^10)
                 0.0000
    Dipole Moment (Debye)
         X      -1.1231      Y       1.0212      Z      -1.6829
       Tot       2.2663
    Quadrupole Moments (Debye-Ang)
        XX    -142.7844     XY       8.1387     YY    -153.5634
        XZ     -15.3355     YZ       2.9123     ZZ    -168.8173

 Total job time:  89.94s(wall), 4287.47s(cpu)
        *  Thank you very much for using Q-Chem.  Have a nice day.  *
