 Q-Chem 5.0, Q-Chem, Inc., Pleasanton, CA (2017)
 Q-Chem 5.0.1 for Intel X86 EM64T Linux

User input:
--------------------------------------------------------------
$molecule
0  1
O -3.94934 -3.66094 2.70899
C -3.26408 -4.56952 2.26188
C -3.36658 -6.02376 2.66595
C -2.0843 -6.86803 2.58331
C -0.80453 -6.1224 2.27622
O -0.23442 -6.62668 1.14215
C 0.22908 -5.61152 0.24556
C -0.74342 -4.43667 0.23381
O -0.22056 -3.37669 -0.58224
C 1.12296 -3.20242 -0.52134
C 1.61403 -2.09475 -1.42278
C 0.73403 -1.82191 -2.65137
C -0.65614 -2.42427 -2.61534
O -1.64729 -1.95229 -3.15331
O -3.24971 -4.50414 0.913
O -0.55662 -3.78113 -2.8211
O 1.77288 -3.38555 0.50076
C -1.54518 -4.60764 -3.32074
C 1.60287 -0.71176 -0.7399
C 2.60036 0.20971 -1.43808
C 1.89189 0.44075 -2.75569
C 0.57192 -0.29344 -2.48862
O 0.36999 -0.14836 -1.10493
H 2.65961 -2.35305 -1.70622
H 1.20675 -2.08029 -3.62508
H 1.81721 -0.75175 0.35037
H 2.61185 1.16627 -0.86759
H 3.63795 -0.17979 -1.51932
H 1.72112 1.53393 -2.87374
H 2.40881 0.03524 -3.65233
H -0.22681 0.12516 -3.13966
O -0.30878 -5.24688 2.977
C -3.68954 -3.4245 0.15258
C -3.64392 -6.15987 4.18564
C -4.28256 -7.51692 4.48394
C -3.09665 -8.43563 4.28643
C -1.99444 -7.40635 4.01811
O -2.37596 -6.28911 4.7795
H -4.24142 -6.46309 2.13357
H -2.2079 -7.68873 1.83956
H -3.09522 -2.5171 0.39436
H -4.28984 -5.35211 4.59387
H -4.55447 -7.52096 5.56406
H -5.1826 -7.76355 3.8807
H -2.90393 -8.97265 5.24179
H -3.1936 -9.16499 3.45323
H -0.9942 -7.83739 4.24601
H -4.76685 -3.23005 0.34191
H -3.57118 -3.65223 -0.92265
H -1.16394 -5.6487 -3.35344
H -1.81982 -4.29656 -4.35094
H -2.44164 -4.57848 -2.67244
H -1.56266 -4.87745 -0.35153
H -0.96958 -3.95068 1.19705
H 0.3346 -6.03861 -0.77621
H 1.26013 -5.46707 0.59258
$end

$opt
CONSTRAINT
tors           1           2           3           4    -150.388
tors           3           4           5           6    -121.833
tors           4           5           6           7    +135.524
tors           5           6           7           8     -38.038
tors           6           7           8           9    +175.347
tors           7           8           9          10     -36.812
tors           8           9          10          11    +178.748
tors           9          10          11          12     -26.866
tors          11          12          13          14    +149.602
ENDCONSTRAINT
$end

$rem
JOBTYPE                   OPT
METHOD                    B3LYP
DFT_D                     d3_op
BASIS                     STO-3G
GEOM_OPT_MAX_CYCLES       100
GEOM_OPT_TOL_GRADIENT     300
GEOM_OPT_TOL_DISPLACEMENT 1200
GEOM_OPT_TOL_ENERGY       100
SYMMETRY                  False
THRESH                    12
SCF_CONVERGENCE           8
MAX_SUB_FILE_NUM          128
MEM_STATIC                400
MEM_TOTAL                 4000
$end
--------------------------------------------------------------

   16   -1510.0317917664      3.88E-09 Convergence criterion met
 Total energy in the final basis set = -1510.03179177
   14   -1510.1158964728      9.42E-09 Convergence criterion met
 Total energy in the final basis set = -1510.11589647
   14   -1510.1656100774      4.54E-09 Convergence criterion met
 Total energy in the final basis set = -1510.16561008
   14   -1510.1982848771      5.66E-09 Convergence criterion met
 Total energy in the final basis set = -1510.19828488
   13   -1510.2169655162      9.95E-09 Convergence criterion met
 Total energy in the final basis set = -1510.21696552
   14   -1510.2292770083      6.14E-09 Convergence criterion met
 Total energy in the final basis set = -1510.22927701
   13   -1510.2374295072      8.10E-09 Convergence criterion met
 Total energy in the final basis set = -1510.23742951
   13   -1510.2431286373      8.11E-09 Convergence criterion met
   11   -1510.2590897320      3.35E-09 Convergence criterion met
 Total energy in the final basis set = -1510.25908973
   10   -1510.2591051118      9.81E-09 Convergence criterion met
 Total energy in the final basis set = -1510.25910511
    9   -1510.2591130338      8.73E-09 Convergence criterion met
 Total energy in the final basis set = -1510.25911303
    9   -1510.2591171453      4.04E-09 Convergence criterion met
 Total energy in the final basis set = -1510.25911715
    9   -1510.2591185749      3.68E-09 Convergence criterion met
 Total energy in the final basis set = -1510.25911857
    9   -1510.2591197141      3.11E-09 Convergence criterion met
 Total energy in the final basis set = -1510.25911971

             Standard Nuclear Orientation (Angstroms)
    I     Atom           X                Y                Z
 ----------------------------------------------------------------
    1      O      -3.1493160909     1.3587274733     3.0229250716
    2      C      -2.8343584791     0.9029805418     1.9007556465
    3      C      -3.7650884335     0.9858031860     0.6275948990
    4      C      -3.7122155797    -0.1150713913    -0.5193388876
    5      C      -2.5069673200    -1.1211764593    -0.5749757093
    6      O      -1.8649065431    -0.9775280569    -1.8655461361
    7      C      -0.3825160699    -0.9299286189    -1.8355225260
    8      C       0.2057822042    -0.1353103832    -0.6127592900
    9      O       1.6818618517    -0.1301968696    -0.4503986973
   10      C       2.3693931193    -1.3362017084    -0.7851184560
   11      C       3.9032282310    -1.0724115112    -0.5634762199
   12      C       4.3186803619     0.4421265514    -0.7194028876
   13      C       3.3327504504     1.3321552533    -1.5539422978
   14      O       3.1168571846     2.5536664276    -1.4067618474
   15      O      -1.5449663994     0.3673613242     1.6147222679
   16      O       2.8986427109     0.5791200093    -2.7024971200
   17      O       1.8531766155    -2.4255565628    -1.1209269158
   18      C       2.0578365419     1.4320365996    -3.5703041440
   19      C       4.1851584194    -1.2633116087     0.9947935811
   20      C       5.7363379509    -1.1420098911     1.2789100673
   21      C       5.9396729020     0.4188984738     1.2422913374
   22      C       4.5033570554     0.8881206093     0.7921157747
   23      O       3.6143766783    -0.0174365031     1.5587028519
   24      H       4.4883511766    -1.7582443142    -1.1997086949
   25      H       5.2918805645     0.4987648314    -1.2441301755
   26      H       3.6951657306    -2.1517804045     1.4393389686
   27      H       5.9818872261    -1.5625424106     2.2668022604
   28      H       6.3341201289    -1.6656743829     0.5156218196
   29      H       6.1754355130     0.8161482517     2.2426057537
   30      H       6.7279290560     0.7334949563     0.5397430134
   31      H       4.2503942509     1.9483814170     0.9875906537
   32      O      -2.1532205777    -1.9382364001     0.3017510430
   33      C      -0.7015424855     0.3912613655     2.8338834856
   34      C      -5.2601683284     0.7980087666     1.1314705088
   35      C      -6.2694356975     1.2811498573     0.0162549366
   36      C      -6.2259708531     0.0678451783    -0.9852466878
   37      C      -5.1244681920    -0.8345772345    -0.3058953932
   38      O      -5.4036867917    -0.6764991495     1.1367959298
   39      H      -3.6070917236     1.9878750237     0.1848689262
   40      H      -3.7051509554     0.3990850472    -1.4964520720
   41      H      -1.0640570702    -0.3396016170     3.5849932507
   42      H      -5.4263317172     1.2106397593     2.1459201786
   43      H      -7.2759873496     1.4227366475     0.4403676899
   44      H      -5.9461275198     2.2269076137    -0.4473207355
   45      H      -7.1905917616    -0.4638067247    -1.0138405965
   46      H      -5.9540155462     0.3647758723    -2.0106597616
   47      H      -5.1440427030    -1.9045434560    -0.5905479969
   48      H      -0.6867526163     1.3986423254     3.2957978513
   49      H       0.3176589501     0.1135869096     2.5063685870
   50      H       1.8144514444     0.8205664282    -4.4588444497
   51      H       2.5937961289     2.3502445002    -3.8861368673
   52      H       1.1194243704     1.7345467348    -3.0619438099
   53      H      -0.0659142089     0.9378498999    -0.6847351874
   54      H      -0.2614384857    -0.5282435506     0.3142604824
   55      H      -0.0959509022    -0.4491783298    -2.7921530881
   56      H       0.0673181602    -1.9485858101    -1.8030683359
 ----------------------------------------------------------------

    9   -1510.2591203126      2.70E-09 Convergence criterion met
 Total energy in the final basis set = -1510.25912031
 Final energy is   -1510.25912031258
 **  OPTIMIZATION CONVERGED  **

                    Orbital Energies (a.u.)
 --------------------------------------------------------------

 Alpha MOs
 -- Occupied --
-18.942 -18.941 -18.929 -18.911 -18.889 -18.888 -18.886 -18.881
-18.875 -18.871 -10.107 -10.103 -10.102 -10.101 -10.065 -10.065
-10.064 -10.063 -10.061 -10.060 -10.060 -10.058 -10.042 -10.040
-10.038 -10.036 -10.023 -10.021 -10.021 -10.019  -1.018  -1.016
 -1.005  -1.000  -0.972  -0.971  -0.943  -0.939  -0.934  -0.932
 -0.766  -0.762  -0.729  -0.722  -0.710  -0.706  -0.695  -0.664
 -0.663  -0.621  -0.600  -0.588  -0.548  -0.544  -0.540  -0.537
 -0.513  -0.513  -0.490  -0.474  -0.465  -0.460  -0.449  -0.442
 -0.435  -0.432  -0.430  -0.415  -0.412  -0.410  -0.408  -0.395
 -0.391  -0.380  -0.373  -0.370  -0.363  -0.359  -0.355  -0.349
 -0.347  -0.341  -0.338  -0.333  -0.331  -0.325  -0.322  -0.313
 -0.310  -0.309  -0.306  -0.303  -0.300  -0.296  -0.291  -0.277
 -0.273  -0.259  -0.254  -0.250  -0.237  -0.235  -0.227  -0.188
 -0.181  -0.175  -0.167  -0.156  -0.153  -0.150  -0.146  -0.146
 -0.142

          Ground-State Mulliken Net Atomic Charges

     Atom                 Charge (a.u.)
  ----------------------------------------
      1 O                    -0.213902
      2 C                     0.212949
      3 C                    -0.077713
      4 C                    -0.083247
      5 C                     0.214039
      6 O                    -0.188611
      7 C                    -0.062406
      8 C                    -0.062227
      9 O                    -0.167491
     10 C                     0.220816
     11 C                    -0.076584
     12 C                    -0.078219
     13 C                     0.218328
     14 O                    -0.219115
     15 O                    -0.170942
     16 O                    -0.177281
     17 O                    -0.211644
     18 C                    -0.129350
     19 C                     0.024058
     20 C                    -0.144888
     21 C                    -0.142150
     22 C                     0.024810
     23 O                    -0.190895
     24 H                     0.087976
     25 H                     0.083189
     26 H                     0.083422
     27 H                     0.078755
     28 H                     0.074395
     29 H                     0.078314
     30 H                     0.073781
     31 H                     0.090291
     32 O                    -0.192561
     33 C                    -0.128049
     34 C                     0.024180
     35 C                    -0.145302
     36 C                    -0.142897
     37 C                     0.025791
     38 O                    -0.188650
     39 H                     0.084228
     40 H                     0.085207
     41 H                     0.092883
     42 H                     0.092347
     43 H                     0.078888
     44 H                     0.072964
     45 H                     0.078293
     46 H                     0.073961
     47 H                     0.084479
     48 H                     0.093037
     49 H                     0.098106
     50 H                     0.088971
     51 H                     0.089576
     52 H                     0.084384
     53 H                     0.085040
     54 H                     0.107141
     55 H                     0.082739
     56 H                     0.106787
  ----------------------------------------
  Sum of atomic charges =     0.000000

                    Cartesian Multipole Moments
 -----------------------------------------------------------------
    Charge (ESU x 10^10)
                 0.0000
    Dipole Moment (Debye)
         X       1.7109      Y       1.6415      Z      -2.0487
       Tot       3.1335
    Quadrupole Moments (Debye-Ang)
        XX    -143.2261     XY      -9.0916     YY    -168.2682
        XZ       9.3525     YZ      -3.4400     ZZ    -160.0558

 Total job time:  81.96s(wall), 3906.21s(cpu)
        *  Thank you very much for using Q-Chem.  Have a nice day.  *
