 Q-Chem 5.0, Q-Chem, Inc., Pleasanton, CA (2017)
 Q-Chem 5.0.1 for Intel X86 EM64T Linux

User input:
--------------------------------------------------------------
$molecule
0  1
O -3.1493160909 1.3587274733 3.0229250716
C -2.8343584791 0.9029805418 1.9007556465
C -3.7650884335 0.985803186 0.627594899
C -3.7122155797 -0.1150713913 -0.5193388876
C -2.50696732 -1.1211764593 -0.5749757093
O -1.8649065431 -0.9775280569 -1.8655461361
C -0.3825160699 -0.9299286189 -1.835522526
C 0.2057822042 -0.1353103832 -0.61275929
O 1.6818618517 -0.1301968696 -0.4503986973
C 2.3693931193 -1.3362017084 -0.785118456
C 3.903228231 -1.0724115112 -0.5634762199
C 4.3186803619 0.4421265514 -0.7194028876
C 3.3327504504 1.3321552533 -1.5539422978
O 3.1168571846 2.5536664276 -1.4067618474
O -1.5449663994 0.3673613242 1.6147222679
O 2.8986427109 0.5791200093 -2.70249712
O 1.8531766155 -2.4255565628 -1.1209269158
C 2.0578365419 1.4320365996 -3.570304144
C 4.1851584194 -1.2633116087 0.9947935811
C 5.7363379509 -1.1420098911 1.2789100673
C 5.939672902 0.4188984738 1.2422913374
C 4.5033570554 0.8881206093 0.7921157747
O 3.6143766783 -0.0174365031 1.5587028519
H 4.4883511766 -1.7582443142 -1.1997086949
H 5.2918805645 0.4987648314 -1.2441301755
H 3.6951657306 -2.1517804045 1.4393389686
H 5.9818872261 -1.5625424106 2.2668022604
H 6.3341201289 -1.6656743829 0.5156218196
H 6.175435513 0.8161482517 2.2426057537
H 6.727929056 0.7334949563 0.5397430134
H 4.2503942509 1.948381417 0.9875906537
O -2.1532205777 -1.9382364001 0.301751043
C -0.7015424855 0.3912613655 2.8338834856
C -5.2601683284 0.7980087666 1.1314705088
C -6.2694356975 1.2811498573 0.0162549366
C -6.2259708531 0.0678451783 -0.9852466878
C -5.124468192 -0.8345772345 -0.3058953932
O -5.4036867917 -0.6764991495 1.1367959298
H -3.6070917236 1.9878750237 0.1848689262
H -3.7051509554 0.3990850472 -1.496452072
H -1.0640570702 -0.339601617 3.5849932507
H -5.4263317172 1.2106397593 2.1459201786
H -7.2759873496 1.4227366475 0.4403676899
H -5.9461275198 2.2269076137 -0.4473207355
H -7.1905917616 -0.4638067247 -1.0138405965
H -5.9540155462 0.3647758723 -2.0106597616
H -5.144042703 -1.904543456 -0.5905479969
H -0.6867526163 1.3986423254 3.2957978513
H 0.3176589501 0.1135869096 2.506368587
H 1.8144514444 0.8205664282 -4.4588444497
H 2.5937961289 2.3502445002 -3.8861368673
H 1.1194243704 1.7345467348 -3.0619438099
H -0.0659142089 0.9378498999 -0.6847351874
H -0.2614384857 -0.5282435506 0.3142604824
H -0.0959509022 -0.4491783298 -2.7921530881
H 0.0673181602 -1.9485858101 -1.8030683359
$end

$rem
JOBTYPE                   OPT
METHOD                    B3LYP
DFT_D                     d3_op
BASIS                     STO-3G
GEOM_OPT_MAX_CYCLES       100
GEOM_OPT_TOL_GRADIENT     300
GEOM_OPT_TOL_DISPLACEMENT 1200
GEOM_OPT_TOL_ENERGY       100
SYMMETRY                  False
THRESH                    12
SCF_CONVERGENCE           8
MAX_SUB_FILE_NUM          128
MEM_STATIC                400
MEM_TOTAL                 4000
$end
--------------------------------------------------------------

   16   -1510.2588548355      6.14E-09 Convergence criterion met
 Total energy in the final basis set = -1510.25885484
   14   -1510.2634035250      3.62E-09 Convergence criterion met
 Total energy in the final basis set = -1510.26340352
   14   -1510.2687087727      2.38E-09 Convergence criterion met
 Total energy in the final basis set = -1510.26870877
   14   -1510.2727214654      3.37E-09 Convergence criterion met
 Total energy in the final basis set = -1510.27272147
   13   -1510.2763937856      8.25E-09 Convergence criterion met
 Total energy in the final basis set = -1510.27639379
   13   -1510.2795713000      5.49E-09 Convergence criterion met
 Total energy in the final basis set = -1510.27957130
   13   -1510.2820924444      7.32E-09 Convergence criterion met
 Total energy in the final basis set = -1510.28209244
   13   -1510.2838294853      7.44E-09 Convergence criterion met
   11   -1510.2877179601      8.64E-09 Convergence criterion met
 Total energy in the final basis set = -1510.28771796
   12   -1510.2877737096      4.23E-09 Convergence criterion met
 Total energy in the final basis set = -1510.28777371
   11   -1510.2877699731      8.57E-09 Convergence criterion met
 Total energy in the final basis set = -1510.28776997
   11   -1510.2877761345      4.68E-09 Convergence criterion met
 Total energy in the final basis set = -1510.28777613
   10   -1510.2877751318      8.56E-09 Convergence criterion met
 Total energy in the final basis set = -1510.28777513
   10   -1510.2877789965      4.21E-09 Convergence criterion met
 Total energy in the final basis set = -1510.28777900

             Standard Nuclear Orientation (Angstroms)
    I     Atom           X                Y                Z
 ----------------------------------------------------------------
    1      O       3.9280734564    -2.8830434365     0.0522563635
    2      C       3.6050484682    -1.8721042670    -0.6050906037
    3      C       4.4702356265    -0.5889359100    -0.8727290897
    4      C       3.8241107309     0.7488955130    -0.3146817222
    5      C       2.4612344699     0.5064737863     0.4126325872
    6      O       1.5177479101     1.4769181373    -0.0598575768
    7      C       0.1967068657     1.2676745257     0.5838123961
    8      C      -0.4883197458    -0.0604850239     0.0706076090
    9      O      -1.9660619312     0.0102552382    -0.0092799234
   10      C      -2.5516901392     0.1746736891     1.2871266894
   11      C      -4.1038700916     0.0306207967     1.1538532727
   12      C      -4.7411366695     0.6514801637    -0.1575513959
   13      C      -3.7494278755     1.4243585578    -1.1001224418
   14      O      -3.5227032746     1.1924670019    -2.3061769995
   15      O       2.3545445987    -1.7227566481    -1.2934482903
   16      O      -3.2036964138     2.5400709757    -0.3799005065
   17      O      -1.8997378497     0.3339769936     2.3418514476
   18      C      -2.3401769184     3.3358179025    -1.2820375954
   19      C      -4.4821899789    -1.5062232407     0.9551378565
   20      C      -6.0338105627    -1.6820935017     1.1993867346
   21      C      -6.6218179393    -1.0944648740    -0.1370688552
   22      C      -5.3013825584    -0.6465304203    -0.8751853781
   23      O      -4.3270481843    -1.6994480774    -0.5024142232
   24      H      -4.5629379412     0.4456964771     2.0680760485
   25      H      -5.5580838062     1.3464033486     0.1113612852
   26      H      -3.8361572049    -2.2111372846     1.5139741474
   27      H      -6.2855134567    -2.7477351186     1.3198980959
   28      H      -6.3760546490    -1.1349193117     2.0922928298
   29      H      -7.1457245626    -1.8681383081    -0.7207508809
   30      H      -7.3123756190    -0.2533105603     0.0343616210
   31      H      -5.3655314335    -0.5532336176    -1.9767774141
   32      O       2.2005472715    -0.3686543276     1.2673011806
   33      C       1.4942211032    -2.8988198851    -1.0292101594
   34      C       5.8246882963    -0.6406036324    -0.0547549331
   35      C       6.8137226949     0.4315482327    -0.6566951874
   36      C       6.1766560949     1.7665989443    -0.1183544245
   37      C       4.9521857663     1.2087544875     0.7109354649
   38      O       5.4514952679    -0.0697673835     1.2610342937
   39      H       4.6471131825    -0.5090648050    -1.9609940013
   40      H       3.6681190993     1.4952761662    -1.1124378774
   41      H       1.2251875628    -2.9669229863     0.0448485917
   42      H       6.2326546020    -1.6622296182     0.0712447227
   43      H       7.8309934667     0.2822155765    -0.2614084943
   44      H       6.8519124267     0.3911760648    -1.7570234693
   45      H       6.8716836066     2.3099923997     0.5413077158
   46      H       5.8556578206     2.4417353393    -0.9277727065
   47      H       4.5929816945     1.8685334845     1.5245533168
   48      H       1.9902665595    -3.8443926331    -1.3281887710
   49      H       0.5785720225    -2.7532868693    -1.6314983519
   50      H      -1.8974544280     4.1350137763    -0.6593939952
   51      H      -2.9253532731     3.7930880007    -2.1061844591
   52      H      -1.5341408393     2.7191181948    -1.7290956023
   53      H      -0.1559782247    -0.2600893399    -0.9685012998
   54      H      -0.1717529709    -0.9047897328     0.7181722933
   55      H      -0.4152162768     2.1434665114     0.2925589620
   56      H       0.2852774559     1.2355286754     1.6894030572
 ----------------------------------------------------------------

    9   -1510.2877790403      5.69E-09 Convergence criterion met
 Total energy in the final basis set = -1510.28777904
 Final energy is   -1510.28777904034
 **  OPTIMIZATION CONVERGED  **

                    Orbital Energies (a.u.)
 --------------------------------------------------------------

 Alpha MOs
 -- Occupied --
-18.939 -18.936 -18.930 -18.929 -18.889 -18.887 -18.879 -18.875
-18.874 -18.872 -10.103 -10.100 -10.099 -10.097 -10.071 -10.070
-10.065 -10.062 -10.061 -10.061 -10.058 -10.057 -10.040 -10.038
-10.038 -10.037 -10.022 -10.021 -10.020 -10.019  -1.018  -1.014
 -1.007  -1.006  -0.971  -0.970  -0.941  -0.937  -0.934  -0.933
 -0.765  -0.763  -0.729  -0.723  -0.711  -0.706  -0.695  -0.664
 -0.660  -0.620  -0.598  -0.587  -0.547  -0.545  -0.538  -0.537
 -0.514  -0.510  -0.488  -0.473  -0.465  -0.460  -0.452  -0.442
 -0.435  -0.431  -0.426  -0.413  -0.411  -0.409  -0.407  -0.397
 -0.397  -0.384  -0.373  -0.365  -0.362  -0.360  -0.355  -0.347
 -0.347  -0.340  -0.337  -0.333  -0.332  -0.327  -0.324  -0.310
 -0.310  -0.306  -0.304  -0.301  -0.298  -0.291  -0.284  -0.277
 -0.272  -0.259  -0.254  -0.251  -0.244  -0.235  -0.233  -0.193
 -0.176  -0.175  -0.168  -0.157  -0.156  -0.149  -0.149  -0.145
 -0.143

          Ground-State Mulliken Net Atomic Charges

     Atom                 Charge (a.u.)
  ----------------------------------------
      1 O                    -0.207140
      2 C                     0.213707
      3 C                    -0.079013
      4 C                    -0.079165
      5 C                     0.210159
      6 O                    -0.171592
      7 C                    -0.054528
      8 C                    -0.052055
      9 O                    -0.168015
     10 C                     0.211491
     11 C                    -0.078452
     12 C                    -0.079026
     13 C                     0.217284
     14 O                    -0.214238
     15 O                    -0.176642
     16 O                    -0.176332
     17 O                    -0.212337
     18 C                    -0.130195
     19 C                     0.025641
     20 C                    -0.143904
     21 C                    -0.143908
     22 C                     0.024712
     23 O                    -0.187478
     24 H                     0.086333
     25 H                     0.083963
     26 H                     0.082603
     27 H                     0.078589
     28 H                     0.074305
     29 H                     0.078366
     30 H                     0.073305
     31 H                     0.090998
     32 O                    -0.213383
     33 C                    -0.129763
     34 C                     0.024853
     35 C                    -0.144095
     36 C                    -0.143744
     37 C                     0.025909
     38 O                    -0.185929
     39 H                     0.084510
     40 H                     0.086506
     41 H                     0.091086
     42 H                     0.090839
     43 H                     0.078476
     44 H                     0.073108
     45 H                     0.078306
     46 H                     0.073518
     47 H                     0.083029
     48 H                     0.089761
     49 H                     0.090210
     50 H                     0.088481
     51 H                     0.087625
     52 H                     0.090416
     53 H                     0.095044
     54 H                     0.095967
     55 H                     0.090259
     56 H                     0.101573
  ----------------------------------------
  Sum of atomic charges =     0.000000

                    Cartesian Multipole Moments
 -----------------------------------------------------------------
    Charge (ESU x 10^10)
                 0.0000
    Dipole Moment (Debye)
         X      -1.3685      Y       2.1704      Z      -1.5447
       Tot       2.9949
    Quadrupole Moments (Debye-Ang)
        XX    -141.3430     XY       7.5417     YY    -156.0402
        XZ     -15.3738     YZ       0.8605     ZZ    -168.1443

 Total job time:  77.08s(wall), 3671.34s(cpu)
        *  Thank you very much for using Q-Chem.  Have a nice day.  *
