 Q-Chem 5.0, Q-Chem, Inc., Pleasanton, CA (2017)
 Q-Chem 5.0.1 for Intel X86 EM64T Linux

User input:
--------------------------------------------------------------
$molecule
0  1
O -3.94934 -3.66094 2.70899
C -3.26408 -4.56952 2.26188
C -3.36658 -6.02376 2.66595
C -2.06889 -6.84826 2.65836
C -0.7856 -6.08389 2.41963
O 0.15858 -6.91636 1.88959
C 1.32193 -6.22428 1.42388
C 1.01042 -5.4871 0.12555
O 1.75457 -4.25994 0.06886
C 2.30423 -3.85663 1.24119
C 3.09754 -2.5783 1.11008
C 4.34599 -2.67947 0.2216
C 4.42356 -3.90068 -0.67245
O 4.67251 -3.88827 -1.86929
O -2.56228 -4.3271 1.12196
O 4.44534 -5.1009 -0.03194
O 1.61793 -3.79834 2.25485
C 4.60255 -6.31892 -0.65979
C 2.34931 -1.4173 0.42366
C 2.9503 -0.08732 0.87283
C 4.29977 -0.13953 0.1829
C 4.13835 -1.42156 -0.64496
O 2.75875 -1.47919 -0.92193
H 3.40329 -2.26216 2.13701
H 5.28192 -2.66786 0.82275
H 1.2523 -1.4317 0.60541
H 2.33922 0.71477 0.3997
H 2.98589 0.08237 1.97044
H 4.39164 0.75431 -0.47315
H 5.17771 -0.20885 0.86126
H 4.81433 -1.39433 -1.52739
O -0.5236 -5.02891 2.98135
C -2.41118 -3.08349 0.54471
C -3.793 -6.1804 4.13887
C -4.38209 -7.57241 4.37167
C -3.12768 -8.41752 4.3349
C -2.06838 -7.33351 4.12255
O -2.57459 -6.23194 4.83591
H -4.13481 -6.47037 1.99616
H -2.10835 -7.71641 1.96107
H -1.90165 -2.39483 1.25224
H -4.5168 -5.40625 4.47463
H -4.79837 -7.60429 5.40391
H -5.17176 -7.85947 3.64429
H -2.98502 -8.87824 5.33809
H -3.10554 -9.20603 3.55199
H -1.07109 -7.70641 4.44651
H -3.40164 -2.66825 0.26085
H -1.78874 -3.17973 -0.36845
H 4.57706 -7.12572 0.10093
H 5.57951 -6.35528 -1.18733
H 3.77716 -6.48426 -1.38461
H 1.20434 -6.12978 -0.76028
H -0.05718 -5.18832 0.07921
H 2.0698 -6.98511 1.11362
H 1.85129 -5.91016 2.34049
$end

$opt
CONSTRAINT
tors           1           2           3           4    -147.072
tors           3           4           5           6    -154.647
tors           4           5           6           7    +169.960
tors           5           6           7           8     -73.784
tors           6           7           8           9    +145.752
tors           7           8           9          10     -14.592
tors           8           9          10          11    +178.748
tors           9          10          11          12     -64.887
tors          11          12          13          14    +130.736
ENDCONSTRAINT
$end

$rem
JOBTYPE                   OPT
METHOD                    B3LYP
DFT_D                     d3_op
BASIS                     STO-3G
GEOM_OPT_MAX_CYCLES       100
GEOM_OPT_TOL_GRADIENT     300
GEOM_OPT_TOL_DISPLACEMENT 1200
GEOM_OPT_TOL_ENERGY       100
SYMMETRY                  False
THRESH                    12
SCF_CONVERGENCE           8
MAX_SUB_FILE_NUM          128
MEM_STATIC                400
MEM_TOTAL                 4000
$end
--------------------------------------------------------------

   16   -1510.0762777471      3.81E-09 Convergence criterion met
 Total energy in the final basis set = -1510.07627775
   15   -1510.1567225158      4.33E-09 Convergence criterion met
 Total energy in the final basis set = -1510.15672252
   14   -1510.2053491278      4.00E-09 Convergence criterion met
 Total energy in the final basis set = -1510.20534913
   14   -1510.2357189392      6.93E-09 Convergence criterion met
 Total energy in the final basis set = -1510.23571894
   14   -1510.2526194868      5.40E-09 Convergence criterion met
 Total energy in the final basis set = -1510.25261949
   13   -1510.2627861660      9.27E-09 Convergence criterion met
 Total energy in the final basis set = -1510.26278617
   13   -1510.2692231323      6.55E-09 Convergence criterion met
 Total energy in the final basis set = -1510.26922313
   13   -1510.2732025986      4.16E-09 Convergence criterion met
   10   -1510.2772496811      7.47E-09 Convergence criterion met
 Total energy in the final basis set = -1510.27724968
    9   -1510.2772520366      3.27E-09 Convergence criterion met
 Total energy in the final basis set = -1510.27725204
    9   -1510.2772550943      3.93E-09 Convergence criterion met
 Total energy in the final basis set = -1510.27725509
    9   -1510.2772570297      2.80E-09 Convergence criterion met
 Total energy in the final basis set = -1510.27725703
    9   -1510.2772591810      3.63E-09 Convergence criterion met
 Total energy in the final basis set = -1510.27725918
    9   -1510.2772601916      2.14E-09 Convergence criterion met
 Total energy in the final basis set = -1510.27726019

             Standard Nuclear Orientation (Angstroms)
    I     Atom           X                Y                Z
 ----------------------------------------------------------------
    1      O       3.2263921787    -2.7836126190    -0.0332548529
    2      C       3.1140196363    -1.6475364696    -0.5403025057
    3      C       4.2278425844    -0.5406658573    -0.6017922070
    4      C       3.7168523198     0.9517352184    -0.5162237588
    5      C       2.2659142853     1.0200032477     0.0686736481
    6      O       1.6230767823     2.2143366204    -0.3946843939
    7      C       0.1827558566     2.1624077801    -0.0457222971
    8      C      -0.5489938279     1.1315141531    -1.0012264801
    9      O      -1.6821654892     0.3231226155    -0.4721201096
   10      C      -1.8810620959     0.2577559707     0.9368355335
   11      C      -3.1570636376    -0.6331988991     1.1583674782
   12      C      -4.4930497139     0.0018350732     0.5826136886
   13      C      -4.2758226379     1.3643679680    -0.1653501191
   14      O      -4.7008711119     1.6929707304    -1.2923261771
   15      O       2.0052175720    -1.2531363060    -1.3709061243
   16      O      -3.5068541476     2.2264438422     0.6852504134
   17      O      -1.1656686438     0.7321045384     1.8514322690
   18      C      -3.2581730046     3.5199491962     0.0103057408
   19      C      -3.1051446284    -1.9942797956     0.3380582973
   20      C      -4.1831696845    -2.9766242124     0.9458847572
   21      C      -5.5152863256    -2.3468775614     0.3915886908
   22      C      -4.9531571870    -1.1236107088    -0.4334336878
   23      O      -3.6719979957    -1.6300700638    -0.9791874119
   24      H      -3.2407262507    -0.8158843431     2.2439806130
   25      H      -5.2347301774     0.1579771365     1.3875699787
   26      H      -2.0904437450    -2.4211815614     0.2200410291
   27      H      -4.0299470383    -3.9981141901     0.5630115437
   28      H      -4.1487759674    -3.0026658342     2.0467326041
   29      H      -6.0479441419    -3.0469461279    -0.2714588439
   30      H      -6.2007162194    -2.0279974173     1.1931572845
   31      H      -5.6001302902    -0.7498998731    -1.2509111368
   32      O       1.7457500247     0.2002956051     0.8578095307
   33      C       0.9466425315    -2.2873439200    -1.3164919747
   34      C       5.2545676242    -0.5996293297     0.6063272748
   35      C       6.6056866097     0.0442246420     0.1084934534
   36      C       6.1847689597     1.5576975657    -0.0019957255
   37      C       4.7173389358     1.5179833415     0.5854376854
   38      O       4.7473576243     0.4086674089     1.5667907744
   39      H       4.7622408602    -0.6951771999    -1.5585476618
   40      H       3.7710680688     1.4929051024    -1.4762269242
   41      H       0.4519352678    -2.2959591358    -0.3232741944
   42      H       5.3332056812    -1.5953639993     1.0849385573
   43      H       7.3974989244    -0.0977331155     0.8613489515
   44      H       6.9477378207    -0.3768890264    -0.8503307796
   45      H       6.8303887027     2.2064959760     0.6108777580
   46      H       6.1998011515     1.9255747558    -1.0407474587
   47      H       4.3779417343     2.4552972081     1.0677775623
   48      H       1.3516253984    -3.2990957792    -1.5196675235
   49      H       0.2055177080    -2.0164444587    -2.0910545756
   50      H      -2.5753826858     4.0835232327     0.6723310078
   51      H      -4.1975090672     4.0938082910    -0.1273506879
   52      H      -2.7858703229     3.3772643691    -0.9826699984
   53      H      -0.9631102867     1.6509536617    -1.8912777976
   54      H       0.2151689841     0.4068408763    -1.3644629103
   55      H      -0.2039881856     3.1869680591    -0.1980896895
   56      H      -0.0023674271     1.8171784930     0.9992940711
 ----------------------------------------------------------------

    9   -1510.2772605632      1.98E-09 Convergence criterion met
 Total energy in the final basis set = -1510.27726056
 Final energy is   -1510.27726056317
 **  OPTIMIZATION CONVERGED  **

                    Orbital Energies (a.u.)
 --------------------------------------------------------------

 Alpha MOs
 -- Occupied --
-18.939 -18.935 -18.928 -18.928 -18.887 -18.885 -18.881 -18.880
-18.872 -18.870 -10.107 -10.104 -10.097 -10.095 -10.069 -10.068
-10.061 -10.060 -10.059 -10.058 -10.056 -10.053 -10.040 -10.036
-10.036 -10.035 -10.021 -10.020 -10.020 -10.018  -1.019  -1.012
 -1.006  -1.001  -0.970  -0.968  -0.941  -0.940  -0.934  -0.929
 -0.764  -0.761  -0.727  -0.722  -0.711  -0.704  -0.692  -0.667
 -0.658  -0.619  -0.597  -0.585  -0.547  -0.544  -0.538  -0.536
 -0.513  -0.508  -0.480  -0.476  -0.465  -0.458  -0.453  -0.445
 -0.438  -0.430  -0.430  -0.417  -0.410  -0.407  -0.406  -0.392
 -0.387  -0.380  -0.373  -0.369  -0.361  -0.356  -0.353  -0.350
 -0.343  -0.340  -0.337  -0.332  -0.330  -0.328  -0.323  -0.311
 -0.310  -0.306  -0.303  -0.298  -0.295  -0.288  -0.284  -0.279
 -0.273  -0.261  -0.255  -0.250  -0.235  -0.232  -0.232  -0.184
 -0.182  -0.173  -0.169  -0.159  -0.152  -0.148  -0.144  -0.142
 -0.141

          Ground-State Mulliken Net Atomic Charges

     Atom                 Charge (a.u.)
  ----------------------------------------
      1 O                    -0.212622
      2 C                     0.216158
      3 C                    -0.079123
      4 C                    -0.078517
      5 C                     0.213560
      6 O                    -0.175051
      7 C                    -0.073168
      8 C                    -0.055887
      9 O                    -0.171766
     10 C                     0.222825
     11 C                    -0.078199
     12 C                    -0.078244
     13 C                     0.214445
     14 O                    -0.209476
     15 O                    -0.177474
     16 O                    -0.171685
     17 O                    -0.206672
     18 C                    -0.128655
     19 C                     0.026672
     20 C                    -0.143801
     21 C                    -0.144222
     22 C                     0.024337
     23 O                    -0.187068
     24 H                     0.085696
     25 H                     0.085646
     26 H                     0.081824
     27 H                     0.078032
     28 H                     0.074526
     29 H                     0.078205
     30 H                     0.073194
     31 H                     0.089971
     32 O                    -0.209803
     33 C                    -0.130173
     34 C                     0.024636
     35 C                    -0.142522
     36 C                    -0.144791
     37 C                     0.025166
     38 O                    -0.188084
     39 H                     0.083366
     40 H                     0.086279
     41 H                     0.088278
     42 H                     0.091514
     43 H                     0.078285
     44 H                     0.073000
     45 H                     0.078079
     46 H                     0.073295
     47 H                     0.083507
     48 H                     0.091489
     49 H                     0.091263
     50 H                     0.092197
     51 H                     0.089451
     52 H                     0.089107
     53 H                     0.084055
     54 H                     0.092941
     55 H                     0.079788
     56 H                     0.126216
  ----------------------------------------
  Sum of atomic charges =    -0.000000

                    Cartesian Multipole Moments
 -----------------------------------------------------------------
    Charge (ESU x 10^10)
                 0.0000
    Dipole Moment (Debye)
         X      -0.5871      Y       1.0979      Z      -1.2357
       Tot       1.7542
    Quadrupole Moments (Debye-Ang)
        XX    -144.0583     XY       6.8273     YY    -153.6698
        XZ     -15.7778     YZ      -0.4981     ZZ    -166.7802

 Total job time:  72.65s(wall), 3457.69s(cpu)
        *  Thank you very much for using Q-Chem.  Have a nice day.  *
