 Q-Chem 5.0, Q-Chem, Inc., Pleasanton, CA (2017)
 Q-Chem 5.0.1 for Intel X86 EM64T Linux

User input:
--------------------------------------------------------------
$molecule
0  1
O 3.2263921787 -2.783612619 -0.0332548529
C 3.1140196363 -1.6475364696 -0.5403025057
C 4.2278425844 -0.5406658573 -0.601792207
C 3.7168523198 0.9517352184 -0.5162237588
C 2.2659142853 1.0200032477 0.0686736481
O 1.6230767823 2.2143366204 -0.3946843939
C 0.1827558566 2.1624077801 -0.0457222971
C -0.5489938279 1.1315141531 -1.0012264801
O -1.6821654892 0.3231226155 -0.4721201096
C -1.8810620959 0.2577559707 0.9368355335
C -3.1570636376 -0.6331988991 1.1583674782
C -4.4930497139 0.0018350732 0.5826136886
C -4.2758226379 1.364367968 -0.1653501191
O -4.7008711119 1.6929707304 -1.2923261771
O 2.005217572 -1.253136306 -1.3709061243
O -3.5068541476 2.2264438422 0.6852504134
O -1.1656686438 0.7321045384 1.851432269
C -3.2581730046 3.5199491962 0.0103057408
C -3.1051446284 -1.9942797956 0.3380582973
C -4.1831696845 -2.9766242124 0.9458847572
C -5.5152863256 -2.3468775614 0.3915886908
C -4.953157187 -1.1236107088 -0.4334336878
O -3.6719979957 -1.6300700638 -0.9791874119
H -3.2407262507 -0.8158843431 2.243980613
H -5.2347301774 0.1579771365 1.3875699787
H -2.090443745 -2.4211815614 0.2200410291
H -4.0299470383 -3.9981141901 0.5630115437
H -4.1487759674 -3.0026658342 2.0467326041
H -6.0479441419 -3.0469461279 -0.2714588439
H -6.2007162194 -2.0279974173 1.1931572845
H -5.6001302902 -0.7498998731 -1.2509111368
O 1.7457500247 0.2002956051 0.8578095307
C 0.9466425315 -2.28734392 -1.3164919747
C 5.2545676242 -0.5996293297 0.6063272748
C 6.6056866097 0.044224642 0.1084934534
C 6.1847689597 1.5576975657 -0.0019957255
C 4.7173389358 1.5179833415 0.5854376854
O 4.7473576243 0.4086674089 1.5667907744
H 4.7622408602 -0.6951771999 -1.5585476618
H 3.7710680688 1.4929051024 -1.4762269242
H 0.4519352678 -2.2959591358 -0.3232741944
H 5.3332056812 -1.5953639993 1.0849385573
H 7.3974989244 -0.0977331155 0.8613489515
H 6.9477378207 -0.3768890264 -0.8503307796
H 6.8303887027 2.206495976 0.610877758
H 6.1998011515 1.9255747558 -1.0407474587
H 4.3779417343 2.4552972081 1.0677775623
H 1.3516253984 -3.2990957792 -1.5196675235
H 0.205517708 -2.0164444587 -2.0910545756
H -2.5753826858 4.0835232327 0.6723310078
H -4.1975090672 4.093808291 -0.1273506879
H -2.7858703229 3.3772643691 -0.9826699984
H -0.9631102867 1.6509536617 -1.8912777976
H 0.2151689841 0.4068408763 -1.3644629103
H -0.2039881856 3.1869680591 -0.1980896895
H -0.0023674271 1.817178493 0.9992940711
$end

$rem
JOBTYPE                   OPT
METHOD                    B3LYP
DFT_D                     d3_op
BASIS                     STO-3G
GEOM_OPT_MAX_CYCLES       100
GEOM_OPT_TOL_GRADIENT     300
GEOM_OPT_TOL_DISPLACEMENT 1200
GEOM_OPT_TOL_ENERGY       100
SYMMETRY                  False
THRESH                    12
SCF_CONVERGENCE           8
MAX_SUB_FILE_NUM          128
MEM_STATIC                400
MEM_TOTAL                 4000
$end
--------------------------------------------------------------

   16   -1510.2771667469      5.45E-09 Convergence criterion met
 Total energy in the final basis set = -1510.27716675
   13   -1510.2788773440      5.65E-09 Convergence criterion met
 Total energy in the final basis set = -1510.27887734
   13   -1510.2798262179      5.05E-09 Convergence criterion met
 Total energy in the final basis set = -1510.27982622
   13   -1510.2807803898      3.70E-09 Convergence criterion met
 Total energy in the final basis set = -1510.28078039
   13   -1510.2812155222      5.00E-09 Convergence criterion met
 Total energy in the final basis set = -1510.28121552
   13   -1510.2821712328      3.62E-09 Convergence criterion met
 Total energy in the final basis set = -1510.28217123
   13   -1510.2832625137      7.92E-09 Convergence criterion met
 Total energy in the final basis set = -1510.28326251
   13   -1510.2840789871      5.41E-09 Convergence criterion met
   12   -1510.2922902935      7.07E-09 Convergence criterion met
 Total energy in the final basis set = -1510.29229029
   12   -1510.2923469047      9.77E-09 Convergence criterion met
 Total energy in the final basis set = -1510.29234690
   11   -1510.2923915838      8.32E-09 Convergence criterion met
 Total energy in the final basis set = -1510.29239158
   11   -1510.2924318927      9.21E-09 Convergence criterion met
 Total energy in the final basis set = -1510.29243189
   12   -1510.2924518075      4.56E-09 Convergence criterion met
 Total energy in the final basis set = -1510.29245181
   12   -1510.2924765927      4.17E-09 Convergence criterion met
 Total energy in the final basis set = -1510.29247659

             Standard Nuclear Orientation (Angstroms)
    I     Atom           X                Y                Z
 ----------------------------------------------------------------
    1      O      -3.8953233395    -2.0918993147    -1.6904801041
    2      C      -3.6361255316    -1.5522915174    -0.5932237985
    3      C      -4.5647603840    -0.5889277058     0.2276605424
    4      C      -3.8659976526     0.7708189666     0.6569670174
    5      C      -2.3822270625     0.8835239456     0.1739959302
    6      O      -1.5422815303     1.0053324570     1.3354291076
    7      C      -0.1203590791     1.0625048413     0.9220351816
    8      C       0.6303104764    -0.1790855953     1.5228772170
    9      O       2.0366199958    -0.2629566333     1.0552478150
   10      C       2.1167804102    -0.8601247687    -0.2414434083
   11      C       3.6232707066    -1.0884872870    -0.5958959020
   12      C       4.5328689136     0.2039733218    -0.4845292803
   13      C       3.7594367884     1.5340586185    -0.1765209015
   14      O       4.0207565076     2.3781470035     0.7056358655
   15      O      -2.4235268820    -1.7394346143     0.1415650642
   16      O       2.7036864560     1.6626658796    -1.1388609596
   17      O       1.1325212440    -1.2028772411    -0.9353821027
   18      C       2.0384762017     2.9785130817    -1.0031503230
   19      C       4.3201928689    -2.0195728297     0.4921215068
   20      C       5.7162037922    -2.4985983161    -0.0734464679
   21      C       6.5874707458    -1.2008125157     0.1173159183
   22      C       5.5119242701    -0.2018563453     0.6952253871
   23      O       4.6787193501    -1.0662641826     1.5639397086
   24      H       3.6629982548    -1.5300351809    -1.6069163854
   25      H       5.0891341977     0.3563455316    -1.4282754334
   26      H       3.6717769844    -2.8253120630     0.8877392017
   27      H       6.1041846987    -3.3387747492     0.5239561925
   28      H       5.6490029526    -2.8154654450    -1.1265575934
   29      H       7.3940676287    -1.3621102668     0.8500108535
   30      H       7.0314623079    -0.8411672182    -0.8246319811
   31      H       5.9030234715     0.6613610718     1.2682160990
   32      O      -1.9581063181     0.9164721669    -1.0023186458
   33      C      -1.4843835462    -2.6108061783    -0.6092132306
   34      C      -5.7569740267    -0.0545469956    -0.6667879697
   35      C      -6.8600294990     0.5618249129     0.2784895585
   36      C      -6.1699263539     1.9082073704     0.7115381668
   37      C      -4.8051968834     1.8216778670    -0.0813197065
   38      O      -5.1726862468     1.1313501343    -1.3373218948
   39      H      -4.9298886045    -1.1347416086     1.1173350859
   40      H      -3.8818738965     0.9025320076     1.7527457719
   41      H      -0.5320935059    -2.0539029262    -0.7674096862
   42      H      -6.1133411324    -0.7862885789    -1.4180224214
   43      H      -7.7889739330     0.7470234150    -0.2840772014
   44      H      -7.0900956400    -0.0935873153     1.1338683523
   45      H      -6.7503087633     2.7843734384     0.3816363608
   46      H      -6.0134041406     1.9766331517     1.7999240691
   47      H      -4.3234278112     2.7942552686    -0.3001938488
   48      H      -1.9405732598    -2.8898538900    -1.5791971492
   49      H      -1.2943908771    -3.5225051206    -0.0092786696
   50      H       1.0952414167     2.9115854293    -1.5760574177
   51      H       2.6695750192     3.7869121495    -1.4266492165
   52      H       1.8220428756     3.2211627830     0.0557723295
   53      H       0.6930830848    -0.0921282734     2.6260467995
   54      H       0.0667010389    -1.0990749535     1.2617001463
   55      H       0.3213948589     2.0048946362     1.3045793232
   56      H      -0.0822839357     1.0420702770    -0.1892782171
 ----------------------------------------------------------------

   11   -1510.2924767833      3.12E-09 Convergence criterion met
 Total energy in the final basis set = -1510.29247678
 Final energy is   -1510.29247678332
 **  OPTIMIZATION CONVERGED  **

                    Orbital Energies (a.u.)
 --------------------------------------------------------------

 Alpha MOs
 -- Occupied --
-18.942 -18.936 -18.929 -18.925 -18.891 -18.886 -18.885 -18.880
-18.873 -18.872 -10.110 -10.103 -10.097 -10.095 -10.073 -10.066
-10.065 -10.063 -10.060 -10.059 -10.055 -10.043 -10.041 -10.037
-10.035 -10.035 -10.023 -10.022 -10.019 -10.018  -1.021  -1.012
 -1.010  -1.002  -0.973  -0.968  -0.945  -0.940  -0.934  -0.930
 -0.768  -0.761  -0.730  -0.722  -0.712  -0.706  -0.695  -0.665
 -0.649  -0.617  -0.599  -0.583  -0.549  -0.543  -0.540  -0.535
 -0.516  -0.507  -0.487  -0.475  -0.468  -0.458  -0.449  -0.447
 -0.437  -0.433  -0.428  -0.416  -0.411  -0.409  -0.403  -0.399
 -0.394  -0.379  -0.377  -0.366  -0.363  -0.357  -0.355  -0.351
 -0.350  -0.336  -0.335  -0.330  -0.328  -0.326  -0.324  -0.313
 -0.308  -0.308  -0.303  -0.302  -0.295  -0.291  -0.284  -0.278
 -0.269  -0.256  -0.255  -0.244  -0.241  -0.237  -0.232  -0.190
 -0.181  -0.171  -0.165  -0.161  -0.158  -0.155  -0.150  -0.146
 -0.142

          Ground-State Mulliken Net Atomic Charges

     Atom                 Charge (a.u.)
  ----------------------------------------
      1 O                    -0.210573
      2 C                     0.214090
      3 C                    -0.077973
      4 C                    -0.078566
      5 C                     0.213813
      6 O                    -0.173334
      7 C                    -0.059755
      8 C                    -0.050003
      9 O                    -0.165731
     10 C                     0.218893
     11 C                    -0.077786
     12 C                    -0.078195
     13 C                     0.213874
     14 O                    -0.210360
     15 O                    -0.178219
     16 O                    -0.173118
     17 O                    -0.213170
     18 C                    -0.129989
     19 C                     0.026265
     20 C                    -0.144158
     21 C                    -0.143538
     22 C                     0.024478
     23 O                    -0.185543
     24 H                     0.087620
     25 H                     0.085571
     26 H                     0.082108
     27 H                     0.078690
     28 H                     0.074428
     29 H                     0.078827
     30 H                     0.073722
     31 H                     0.091323
     32 O                    -0.212823
     33 C                    -0.153839
     34 C                     0.024334
     35 C                    -0.144075
     36 C                    -0.143925
     37 C                     0.025750
     38 O                    -0.186175
     39 H                     0.084426
     40 H                     0.086281
     41 H                     0.110029
     42 H                     0.091272
     43 H                     0.078187
     44 H                     0.072876
     45 H                     0.077871
     46 H                     0.073236
     47 H                     0.082611
     48 H                     0.097727
     49 H                     0.074624
     50 H                     0.095095
     51 H                     0.086235
     52 H                     0.091436
     53 H                     0.092935
     54 H                     0.095194
     55 H                     0.081249
     56 H                     0.105780
  ----------------------------------------
  Sum of atomic charges =     0.000000

                    Cartesian Multipole Moments
 -----------------------------------------------------------------
    Charge (ESU x 10^10)
                 0.0000
    Dipole Moment (Debye)
         X       1.1664      Y      -0.0999      Z       1.4811
       Tot       1.8879
    Quadrupole Moments (Debye-Ang)
        XX    -144.1875     XY      -7.7048     YY    -153.7134
        XZ     -20.7587     YZ      -2.7527     ZZ    -169.0046

 Total job time:  91.38s(wall), 4356.89s(cpu)
        *  Thank you very much for using Q-Chem.  Have a nice day.  *
