 Q-Chem 5.0, Q-Chem, Inc., Pleasanton, CA (2017)
 Q-Chem 5.0.1 for Intel X86 EM64T Linux

User input:
--------------------------------------------------------------
$molecule
0  1
O -3.94934 -3.66094 2.70899
C -3.26408 -4.56952 2.26188
C -3.36658 -6.02376 2.66595
C -2.06889 -6.84826 2.65836
C -0.7856 -6.08389 2.41963
O 0.15858 -6.91636 1.88959
C 1.3734 -6.24248 1.54415
C 1.06478 -4.8626 0.97245
O 1.40905 -3.84826 1.92925
C 0.81707 -3.96711 3.14357
C 1.24174 -2.88994 4.11311
C 2.7072 -2.96739 4.56556
C 3.60872 -3.85919 3.7357
O 4.69291 -3.53636 3.27217
O -2.92507 -4.41049 0.94333
O 3.40926 -5.19055 3.91266
O 0.85193 -5.00415 3.79523
C 4.34424 -6.16525 3.61202
C 1.1933 -1.46323 3.52975
C 1.04072 -0.45205 4.66391
C 2.4034 -0.55688 5.31883
C 3.11131 -1.49598 4.33288
O 2.50694 -1.21333 3.09368
H 0.53943 -2.93066 4.98011
H 2.81165 -3.28713 5.62586
H 0.38922 -1.32422 2.77409
H 0.95044 0.55056 4.18715
H 0.17561 -0.61053 5.3431
H 2.86962 0.4533 5.31891
H 2.40543 -0.98012 6.34673
H 4.21126 -1.34149 4.38616
O -0.98085 -4.96459 2.09157
C -2.94491 -3.21186 0.25812
C -3.7553 -6.15828 4.15551
C -4.35405 -7.53979 4.42255
C -3.11281 -8.40114 4.35444
C -2.04584 -7.32929 4.11956
O -2.5244 -6.21536 4.83013
H -4.17003 -6.4756 2.04189
H -2.11443 -7.70689 1.94975
H -2.25413 -2.4877 0.74088
H -4.46435 -5.37505 4.50186
H -4.73214 -7.54957 5.46996
H -5.17454 -7.82969 3.73141
H -2.95695 -8.87318 5.35026
H -3.11602 -9.18107 3.56256
H -1.04632 -7.71045 4.42721
H -3.97433 -2.79512 0.23729
H -2.60923 -3.3845 -0.78486
H 3.92308 -7.16257 3.85447
H 5.26296 -6.01287 4.2178
H 4.60056 -6.13469 2.53111
H 1.86891 -4.71568 0.21866
H 0.2154 -4.67136 0.27534
H 1.76505 -6.84169 0.69302
H 2.16065 -6.34509 2.29164
$end

$opt
CONSTRAINT
tors           1           2           3           4    -147.072
tors           3           4           5           6    -154.647
tors           4           5           6           7    +175.712
tors           5           6           7           8     -37.856
tors           6           7           8           9    +106.976
tors           7           8           9          10     -56.125
tors           8           9          10          11    +178.748
tors           9          10          11          12     -68.023
tors          11          12          13          14    +129.711
ENDCONSTRAINT
$end

$rem
JOBTYPE                   OPT
METHOD                    B3LYP
DFT_D                     d3_op
BASIS                     STO-3G
GEOM_OPT_MAX_CYCLES       100
GEOM_OPT_TOL_GRADIENT     300
GEOM_OPT_TOL_DISPLACEMENT 1200
GEOM_OPT_TOL_ENERGY       100
SYMMETRY                  False
THRESH                    12
SCF_CONVERGENCE           8
MAX_SUB_FILE_NUM          128
MEM_STATIC                400
MEM_TOTAL                 4000
$end
--------------------------------------------------------------

   16   -1510.0139582648      3.79E-09 Convergence criterion met
 Total energy in the final basis set = -1510.01395826
   14   -1510.1075606932      8.40E-09 Convergence criterion met
 Total energy in the final basis set = -1510.10756069
   14   -1510.1623676827      6.53E-09 Convergence criterion met
 Total energy in the final basis set = -1510.16236768
   14   -1510.1968322608      9.52E-09 Convergence criterion met
 Total energy in the final basis set = -1510.19683226
   14   -1510.2158877668      4.47E-09 Convergence criterion met
 Total energy in the final basis set = -1510.21588777
   14   -1510.2278362690      4.94E-09 Convergence criterion met
 Total energy in the final basis set = -1510.22783627
   14   -1510.2358477289      2.67E-09 Convergence criterion met
 Total energy in the final basis set = -1510.23584773
   13   -1510.2411918236      3.62E-09 Convergence criterion met
    9   -1510.2489421576      5.06E-09 Convergence criterion met
 Total energy in the final basis set = -1510.24894216
    9   -1510.2489436618      4.31E-09 Convergence criterion met
 Total energy in the final basis set = -1510.24894366
    9   -1510.2489477812      4.41E-09 Convergence criterion met
 Total energy in the final basis set = -1510.24894778
    9   -1510.2489531503      5.62E-09 Convergence criterion met
 Total energy in the final basis set = -1510.24895315
    9   -1510.2489553306      4.40E-09 Convergence criterion met
 Total energy in the final basis set = -1510.24895533
    9   -1510.2489571282      3.90E-09 Convergence criterion met
 Total energy in the final basis set = -1510.24895713

             Standard Nuclear Orientation (Angstroms)
    I     Atom           X                Y                Z
 ----------------------------------------------------------------
    1      O      -3.9215863255    -2.5687653405    -0.1696177528
    2      C      -3.7296349981    -1.5023172216     0.4525278828
    3      C      -4.3636721814    -0.1016543992     0.1315221870
    4      C      -3.4600807529     1.1510434517     0.4486475018
    5      C      -1.9342095817     0.7540767413     0.4987017614
    6      O      -1.3005733134     1.7148723732     1.3345871081
    7      C       0.1350425938     1.6060014265     1.6918634590
    8      C       0.8055842147     0.1992815565     1.9799133307
    9      O       1.7300662074    -0.3681661512     0.9707529965
   10      C       1.4512004801    -0.6208977730    -0.4035549074
   11      C       2.8066301671    -1.1883433553    -0.9792084086
   12      C       3.9939700469    -0.1343747805    -1.0414804514
   13      C       3.6781333998     1.3072018781    -0.5074221390
   14      O       4.3457732887     1.9693068083     0.3154602889
   15      O      -3.1364496000    -1.4418734442     1.7631183867
   16      O       2.5259488931     1.8097069569    -1.1971924487
   17      O       0.4702246854    -0.3112201182    -1.1048212061
   18      C       2.3165507098     3.2412597980    -0.8800092867
   19      C       3.4640294848    -2.3066722042    -0.0602931610
   20      C       4.5382107423    -3.0891650058    -0.9157059687
   21      C       5.7103490912    -2.0396599822    -0.9676977927
   22      C       5.0853821549    -0.8482451825    -0.1410428351
   23      O       4.2831073299    -1.5322406523     0.8986565562
   24      H       2.5833477243    -1.5746199366    -1.9894723332
   25      H       4.3431343753    -0.0238515877    -2.0852992462
   26      H       2.7359251797    -2.9440174497     0.4774267060
   27      H       4.8444766501    -4.0118785335    -0.3978618007
   28      H       4.1593686931    -3.3549887351    -1.9155767165
   29      H       6.6163352697    -2.4209082120    -0.4702768930
   30      H       5.9705092942    -1.7415842545    -1.9959413545
   31      H       5.8059273608    -0.1474130265     0.3239750337
   32      O      -1.4704875589    -0.3311595854     0.0964193486
   33      C      -2.5631958156    -2.7583881668     2.1145700125
   34      C      -4.7231522835     0.1367729772    -1.3949352132
   35      C      -5.9278765962     1.1549686069    -1.4329005109
   36      C      -5.2094160977     2.4720881394    -0.9537881590
   37      C      -3.7024894443     1.9972729655    -0.8767500332
   38      O      -3.5991519870     0.9478677755    -1.9198324909
   39      H      -5.2851251068    -0.0455325517     0.7418449950
   40      H      -3.7430737229     1.6831715866     1.3726676569
   41      H      -1.6928988214    -3.0027193548     1.4708535956
   42      H      -4.8478638372    -0.7928215609    -1.9840536575
   43      H      -6.3112031076     1.2580539587    -2.4607670927
   44      H      -6.7569891878     0.8538880320    -0.7729130103
   45      H      -5.3214780470     3.2869172866    -1.6863139761
   46      H      -5.5777282886     2.8238750149     0.0235664040
   47      H      -2.9514406161     2.7924758657    -1.0494787948
   48      H      -3.3106146611    -3.5722287907     2.0187437504
   49      H      -2.2315480139    -2.6796456859     3.1664365614
   50      H       1.2709183021     3.4748043989    -1.1534950339
   51      H       3.0009233633     3.8800816234    -1.4759171835
   52      H       2.4889961007     3.4541594510     0.1940740507
   53      H       1.4621497708     0.3164262974     2.8668320832
   54      H       0.0096183128    -0.5380269053     2.2339447332
   55      H       0.2093256438     2.2122472868     2.6182155061
   56      H       0.7380841093     2.1145997033     0.9074516933
 ----------------------------------------------------------------

    9   -1510.2489568853      4.70E-09 Convergence criterion met
 Total energy in the final basis set = -1510.24895689
 Final energy is   -1510.24895688532
 **  OPTIMIZATION CONVERGED  **

                    Orbital Energies (a.u.)
 --------------------------------------------------------------

 Alpha MOs
 -- Occupied --
-18.935 -18.930 -18.920 -18.919 -18.882 -18.881 -18.877 -18.876
-18.874 -18.863 -10.100 -10.097 -10.096 -10.091 -10.080 -10.078
-10.066 -10.056 -10.055 -10.054 -10.053 -10.052 -10.035 -10.032
-10.030 -10.029 -10.017 -10.016 -10.015 -10.015  -1.013  -1.009
 -0.998  -0.993  -0.964  -0.964  -0.941  -0.937  -0.930  -0.924
 -0.759  -0.757  -0.728  -0.718  -0.712  -0.700  -0.694  -0.665
 -0.655  -0.626  -0.594  -0.583  -0.543  -0.540  -0.534  -0.532
 -0.511  -0.504  -0.480  -0.475  -0.463  -0.454  -0.447  -0.440
 -0.433  -0.427  -0.427  -0.416  -0.406  -0.405  -0.403  -0.397
 -0.387  -0.379  -0.374  -0.364  -0.357  -0.353  -0.348  -0.348
 -0.342  -0.340  -0.336  -0.327  -0.327  -0.323  -0.321  -0.307
 -0.307  -0.302  -0.300  -0.294  -0.292  -0.284  -0.277  -0.274
 -0.269  -0.252  -0.247  -0.241  -0.229  -0.228  -0.221  -0.181
 -0.178  -0.172  -0.163  -0.157  -0.153  -0.143  -0.139  -0.138
 -0.122

          Ground-State Mulliken Net Atomic Charges

     Atom                 Charge (a.u.)
  ----------------------------------------
      1 O                    -0.216344
      2 C                     0.216966
      3 C                    -0.079535
      4 C                    -0.075608
      5 C                     0.218944
      6 O                    -0.179337
      7 C                    -0.050942
      8 C                    -0.044625
      9 O                    -0.182448
     10 C                     0.216917
     11 C                    -0.076241
     12 C                    -0.077835
     13 C                     0.210899
     14 O                    -0.213689
     15 O                    -0.178047
     16 O                    -0.170355
     17 O                    -0.188930
     18 C                    -0.131829
     19 C                     0.026686
     20 C                    -0.144468
     21 C                    -0.144140
     22 C                     0.023850
     23 O                    -0.187629
     24 H                     0.083555
     25 H                     0.084572
     26 H                     0.081895
     27 H                     0.076552
     28 H                     0.073356
     29 H                     0.077019
     30 H                     0.072257
     31 H                     0.088695
     32 O                    -0.193489
     33 C                    -0.129405
     34 C                     0.024382
     35 C                    -0.142302
     36 C                    -0.145349
     37 C                     0.024345
     38 O                    -0.188563
     39 H                     0.082125
     40 H                     0.086657
     41 H                     0.088513
     42 H                     0.090943
     43 H                     0.077367
     44 H                     0.072310
     45 H                     0.076891
     46 H                     0.072376
     47 H                     0.080553
     48 H                     0.089122
     49 H                     0.084952
     50 H                     0.092158
     51 H                     0.086531
     52 H                     0.092154
     53 H                     0.096311
     54 H                     0.092050
     55 H                     0.091609
     56 H                     0.087600
  ----------------------------------------
  Sum of atomic charges =    -0.000000

                    Cartesian Multipole Moments
 -----------------------------------------------------------------
    Charge (ESU x 10^10)
                -0.0000
    Dipole Moment (Debye)
         X      -0.0560      Y       1.5185      Z       1.2212
       Tot       1.9495
    Quadrupole Moments (Debye-Ang)
        XX    -152.1732     XY      -9.2614     YY    -152.3955
        XZ     -12.7957     YZ      -2.2312     ZZ    -158.6358

 Total job time:  80.58s(wall), 3840.45s(cpu)
        *  Thank you very much for using Q-Chem.  Have a nice day.  *
