 Q-Chem 5.0, Q-Chem, Inc., Pleasanton, CA (2017)
 Q-Chem 5.0.1 for Intel X86 EM64T Linux

User input:
--------------------------------------------------------------
$molecule
0  1
O -3.9215863255 -2.5687653405 -0.1696177528
C -3.7296349981 -1.5023172216 0.4525278828
C -4.3636721814 -0.1016543992 0.131522187
C -3.4600807529 1.1510434517 0.4486475018
C -1.9342095817 0.7540767413 0.4987017614
O -1.3005733134 1.7148723732 1.3345871081
C 0.1350425938 1.6060014265 1.691863459
C 0.8055842147 0.1992815565 1.9799133307
O 1.7300662074 -0.3681661512 0.9707529965
C 1.4512004801 -0.620897773 -0.4035549074
C 2.8066301671 -1.1883433553 -0.9792084086
C 3.9939700469 -0.1343747805 -1.0414804514
C 3.6781333998 1.3072018781 -0.507422139
O 4.3457732887 1.9693068083 0.3154602889
O -3.1364496 -1.4418734442 1.7631183867
O 2.5259488931 1.8097069569 -1.1971924487
O 0.4702246854 -0.3112201182 -1.1048212061
C 2.3165507098 3.241259798 -0.8800092867
C 3.4640294848 -2.3066722042 -0.060293161
C 4.5382107423 -3.0891650058 -0.9157059687
C 5.7103490912 -2.0396599822 -0.9676977927
C 5.0853821549 -0.8482451825 -0.1410428351
O 4.2831073299 -1.5322406523 0.8986565562
H 2.5833477243 -1.5746199366 -1.9894723332
H 4.3431343753 -0.0238515877 -2.0852992462
H 2.7359251797 -2.9440174497 0.477426706
H 4.8444766501 -4.0118785335 -0.3978618007
H 4.1593686931 -3.3549887351 -1.9155767165
H 6.6163352697 -2.420908212 -0.470276893
H 5.9705092942 -1.7415842545 -1.9959413545
H 5.8059273608 -0.1474130265 0.3239750337
O -1.4704875589 -0.3311595854 0.0964193486
C -2.5631958156 -2.7583881668 2.1145700125
C -4.7231522835 0.1367729772 -1.3949352132
C -5.9278765962 1.1549686069 -1.4329005109
C -5.2094160977 2.4720881394 -0.953788159
C -3.7024894443 1.9972729655 -0.8767500332
O -3.599151987 0.9478677755 -1.9198324909
H -5.2851251068 -0.0455325517 0.741844995
H -3.7430737229 1.6831715866 1.3726676569
H -1.6928988214 -3.0027193548 1.4708535956
H -4.8478638372 -0.7928215609 -1.9840536575
H -6.3112031076 1.2580539587 -2.4607670927
H -6.7569891878 0.853888032 -0.7729130103
H -5.321478047 3.2869172866 -1.6863139761
H -5.5777282886 2.8238750149 0.023566404
H -2.9514406161 2.7924758657 -1.0494787948
H -3.3106146611 -3.5722287907 2.0187437504
H -2.2315480139 -2.6796456859 3.1664365614
H 1.2709183021 3.4748043989 -1.1534950339
H 3.0009233633 3.8800816234 -1.4759171835
H 2.4889961007 3.454159451 0.1940740507
H 1.4621497708 0.3164262974 2.8668320832
H 0.0096183128 -0.5380269053 2.2339447332
H 0.2093256438 2.2122472868 2.6182155061
H 0.7380841093 2.1145997033 0.9074516933
$end

$rem
JOBTYPE                   OPT
METHOD                    B3LYP
DFT_D                     d3_op
BASIS                     STO-3G
GEOM_OPT_MAX_CYCLES       100
GEOM_OPT_TOL_GRADIENT     300
GEOM_OPT_TOL_DISPLACEMENT 1200
GEOM_OPT_TOL_ENERGY       100
SYMMETRY                  False
THRESH                    12
SCF_CONVERGENCE           8
MAX_SUB_FILE_NUM          128
MEM_STATIC                400
MEM_TOTAL                 4000
$end
--------------------------------------------------------------

   16   -1510.2486444122      4.71E-09 Convergence criterion met
 Total energy in the final basis set = -1510.24864441
   14   -1510.2542784811      4.70E-09 Convergence criterion met
 Total energy in the final basis set = -1510.25427848
   14   -1510.2639134662      2.58E-09 Convergence criterion met
 Total energy in the final basis set = -1510.26391347
   14   -1510.2688986219      1.56E-09 Convergence criterion met
 Total energy in the final basis set = -1510.26889862
   13   -1510.2710891723      4.74E-09 Convergence criterion met
 Total energy in the final basis set = -1510.27108917
   13   -1510.2724802922      4.79E-09 Convergence criterion met
 Total energy in the final basis set = -1510.27248029
   13   -1510.2737648059      7.84E-09 Convergence criterion met
 Total energy in the final basis set = -1510.27376481
   13   -1510.2753017973      9.81E-09 Convergence criterion met
   12   -1510.2991394881      9.30E-09 Convergence criterion met
 Total energy in the final basis set = -1510.29913949
   12   -1510.2991959879      3.17E-09 Convergence criterion met
 Total energy in the final basis set = -1510.29919599
   12   -1510.2992412447      4.54E-09 Convergence criterion met
 Total energy in the final basis set = -1510.29924124
   11   -1510.2992402708      6.10E-09 Convergence criterion met
 Total energy in the final basis set = -1510.29924027
   11   -1510.2992407838      4.95E-09 Convergence criterion met
 Total energy in the final basis set = -1510.29924078
   10   -1510.2992413852      4.74E-09 Convergence criterion met
 Total energy in the final basis set = -1510.29924139

             Standard Nuclear Orientation (Angstroms)
    I     Atom           X                Y                Z
 ----------------------------------------------------------------
    1      O      -4.7098673429     2.2914478380    -1.5340156225
    2      C      -4.3682888556     1.1146084653    -1.7734426824
    3      C      -4.0694934965    -0.0274865909    -0.7344336855
    4      C      -2.5350528870    -0.3850029269    -0.5896115827
    5      C      -1.5927737988     0.4847907869    -1.4798876266
    6      O      -0.2851518527    -0.1023718300    -1.4369587710
    7      C       0.7120737276     0.7234764489    -2.1537647301
    8      C       1.2422446550     1.9079511336    -1.2617614370
    9      O       2.2899603132     1.4331857720    -0.3267752882
   10      C       1.7253131261     0.9297538736     0.8829348842
   11      C       2.8707248367     0.3002722854     1.7490721119
   12      C       3.3101805736    -1.1449433424     1.2396138871
   13      C       2.4815184833    -1.6349621127     0.0017877189
   14      O       2.6820309040    -1.3776316007    -1.2067501119
   15      O      -4.2902611626     0.5407178768    -3.0876720730
   16      O       1.4100449083    -2.4420533375     0.4893220479
   17      O       0.5118772268     0.9996005515     1.1820754012
   18      C       0.5000798076    -2.8078759364    -0.6256925862
   19      C       4.2445252626     1.0861793031     1.6145188901
   20      C       5.2081743522     0.6052948153     2.7719966456
   21      C       5.6460965851    -0.8094978426     2.2373096663
   22      C       4.8337740731    -0.8862697470     0.8855041717
   23      O       4.8507381693     0.5097767956     0.3935690486
   24      H       2.5133762984     0.2549054538     2.7930784778
   25      H       3.1921737418    -1.8897416418     2.0462200265
   26      H       4.1372977653     2.1833462800     1.5136005779
   27      H       6.0679175480     1.2878851859     2.8622738397
   28      H       4.6947348639     0.5530557452     3.7454759119
   29      H       6.7287248659    -0.8470482642     2.0371378966
   30      H       5.3863129755    -1.6269304066     2.9288147527
   31      H       5.2458146778    -1.5694175272     0.1179097187
   32      O      -1.8623643950     1.5317339499    -2.1073905102
   33      C      -4.4947408091     1.5929937496    -4.1068121672
   34      C      -4.4083264258     0.4366049451     0.7425276174
   35      C      -4.4735766052    -0.8413014201     1.6682515160
   36      C      -2.9451553918    -1.1914166192     1.8132988494
   37      C      -2.2853061621    -0.0472449761     0.9494922570
   38      O      -3.1673295264     1.1178889540     1.1779518730
   39      H      -4.6466857215    -0.9218155114    -1.0303187722
   40      H      -2.3392299432    -1.4500592443    -0.8043569318
   41      H      -3.6820512801     2.3476749857    -4.0716904505
   42      H      -5.2721102424     1.1256392879     0.8118392939
   43      H      -4.9239185633    -0.5887248384     2.6413539545
   44      H      -5.0566120809    -1.6568358348     1.2110485016
   45      H      -2.6118244867    -1.1219371760     2.8609405647
   46      H      -2.6997209439    -2.1949297634     1.4306047402
   47      H      -1.2288998956     0.2106479369     1.1867154519
   48      H      -5.4651690938     2.1132943879    -3.9725747009
   49      H      -4.4812848437     1.0804576878    -5.0864357022
   50      H       0.0799936503    -1.8810702302    -1.0842493918
   51      H      -0.3028767727    -3.4156310556    -0.1707860807
   52      H       1.0250914912    -3.4056743791    -1.3975344788
   53      H       1.7370400172     2.6596399105    -1.9092343890
   54      H       0.4001518378     2.3815047262    -0.7125836834
   55      H       0.2799041827     1.1291680221    -3.0931496314
   56      H       1.5550676076     0.0301464730    -2.3657706774
 ----------------------------------------------------------------

    9   -1510.2992412717      7.33E-09 Convergence criterion met
 Total energy in the final basis set = -1510.29924127
 Final energy is   -1510.29924127166
 **  OPTIMIZATION CONVERGED  **

                    Orbital Energies (a.u.)
 --------------------------------------------------------------

 Alpha MOs
 -- Occupied --
-18.946 -18.942 -18.932 -18.918 -18.890 -18.888 -18.885 -18.877
-18.874 -18.860 -10.109 -10.109 -10.098 -10.087 -10.076 -10.074
-10.063 -10.061 -10.053 -10.050 -10.047 -10.043 -10.042 -10.039
-10.035 -10.029 -10.022 -10.021 -10.014 -10.012  -1.025  -1.017
 -1.009  -0.996  -0.971  -0.961  -0.948  -0.943  -0.934  -0.922
 -0.766  -0.758  -0.729  -0.720  -0.713  -0.704  -0.693  -0.657
 -0.652  -0.621  -0.597  -0.580  -0.549  -0.540  -0.537  -0.531
 -0.516  -0.506  -0.488  -0.474  -0.460  -0.454  -0.449  -0.446
 -0.434  -0.430  -0.425  -0.423  -0.409  -0.406  -0.403  -0.401
 -0.393  -0.381  -0.376  -0.365  -0.362  -0.360  -0.354  -0.349
 -0.343  -0.339  -0.338  -0.333  -0.328  -0.324  -0.316  -0.313
 -0.309  -0.308  -0.300  -0.298  -0.295  -0.284  -0.281  -0.274
 -0.267  -0.258  -0.251  -0.245  -0.241  -0.236  -0.225  -0.200
 -0.176  -0.172  -0.163  -0.162  -0.160  -0.151  -0.145  -0.140
 -0.136

          Ground-State Mulliken Net Atomic Charges

     Atom                 Charge (a.u.)
  ----------------------------------------
      1 O                    -0.213863
      2 C                     0.214799
      3 C                    -0.081202
      4 C                    -0.079685
      5 C                     0.219602
      6 O                    -0.175496
      7 C                    -0.056076
      8 C                    -0.050972
      9 O                    -0.162362
     10 C                     0.212440
     11 C                    -0.078018
     12 C                    -0.078852
     13 C                     0.206045
     14 O                    -0.216979
     15 O                    -0.177192
     16 O                    -0.170773
     17 O                    -0.215277
     18 C                    -0.146517
     19 C                     0.026956
     20 C                    -0.144149
     21 C                    -0.143804
     22 C                     0.025822
     23 O                    -0.183273
     24 H                     0.086406
     25 H                     0.086655
     26 H                     0.085382
     27 H                     0.078484
     28 H                     0.073805
     29 H                     0.078331
     30 H                     0.073668
     31 H                     0.085904
     32 O                    -0.206293
     33 C                    -0.128681
     34 C                     0.024867
     35 C                    -0.144551
     36 C                    -0.144009
     37 C                     0.012948
     38 O                    -0.189809
     39 H                     0.082557
     40 H                     0.083953
     41 H                     0.091133
     42 H                     0.086948
     43 H                     0.076604
     44 H                     0.070972
     45 H                     0.077497
     46 H                     0.070192
     47 H                     0.108349
     48 H                     0.086898
     49 H                     0.085501
     50 H                     0.109641
     51 H                     0.080737
     52 H                     0.081598
     53 H                     0.095015
     54 H                     0.100104
     55 H                     0.094744
     56 H                     0.113278
  ----------------------------------------
  Sum of atomic charges =    -0.000000

                    Cartesian Multipole Moments
 -----------------------------------------------------------------
    Charge (ESU x 10^10)
                -0.0000
    Dipole Moment (Debye)
         X       1.2800      Y      -2.4913      Z       0.6353
       Tot       2.8720
    Quadrupole Moments (Debye-Ang)
        XX    -158.5336     XY       8.9365     YY    -160.8008
        XZ      10.2002     YZ      -2.4681     ZZ    -151.8404

 Total job time:  189.98s(wall), 9070.16s(cpu)
        *  Thank you very much for using Q-Chem.  Have a nice day.  *
