 Q-Chem 5.0, Q-Chem, Inc., Pleasanton, CA (2017)
 Q-Chem 5.0.1 for Intel X86 EM64T Linux

User input:
--------------------------------------------------------------
$molecule
0  1
O -3.94934 -3.66094 2.70899
C -3.26408 -4.56952 2.26188
C -3.36658 -6.02376 2.66595
C -2.12677 -6.90466 2.44069
C -0.8654 -6.19429 2.00205
O -0.00094 -7.08912 1.43866
C 1.04051 -6.46504 0.68027
C 0.73564 -6.56272 -0.81092
O 0.28097 -5.2918 -1.30177
C -0.07867 -4.39424 -0.35088
C -0.2433 -2.99504 -0.89476
C 0.99506 -2.09731 -0.75747
C 2.29483 -2.8086 -0.43911
O 2.90301 -3.54779 -1.19956
O -2.90626 -4.44254 0.95623
O 2.8577 -2.50536 0.76019
O 0.23629 -4.24212 0.80135
C 4.04346 -3.03951 1.219
C -0.48694 -2.88058 -2.41865
C -1.19705 -1.56299 -2.73003
C -0.08343 -0.56944 -2.46312
C 1.07967 -1.52776 -2.18201
O 0.78899 -2.65831 -2.96999
H -1.10072 -2.53057 -0.3731
H 0.83887 -1.32361 0.02803
H -1.06589 -3.73132 -2.8394
H -1.4153 -1.56532 -3.82222
H -2.14023 -1.37942 -2.17181
H 0.09749 0.01321 -3.39348
H -0.25644 0.11943 -1.60798
H 2.05613 -1.03168 -2.37709
O -0.45133 -5.31182 2.74747
C -3.45065 -3.4973 0.10568
C -3.5342 -6.19286 4.19261
C -4.18308 -7.5427 4.49988
C -3.03732 -8.48407 4.19225
C -1.93375 -7.47628 3.85712
O -2.22565 -6.37091 4.67665
H -4.27279 -6.4255 2.15862
H -2.33994 -7.69703 1.68724
H -3.23362 -2.47022 0.46976
H -4.12228 -5.37646 4.66573
H -4.37982 -7.57376 5.59562
H -5.12807 -7.74742 3.9522
H -2.78053 -9.04094 5.12085
H -3.21776 -9.19744 3.35917
H -0.9303 -7.93666 3.99377
H -4.5513 -3.63568 0.04332
H -3.03983 -3.63675 -0.914
H 4.26556 -2.62335 2.22293
H 4.87453 -2.77655 0.53025
H 3.95795 -4.14437 1.30064
H 1.69369 -6.75572 -1.34396
H 0.03247 -7.38347 -1.06956
H 1.80181 -7.27294 0.74953
H 1.72695 -5.74391 1.18234
$end

$opt
CONSTRAINT
tors           1           2           3           4    -156.812
tors           3           4           5           6    -160.737
tors           4           5           6           7    +164.044
tors           5           6           7           8    -102.253
tors           6           7           8           9    +104.373
tors           7           8           9          10     -14.592
tors           8           9          10          11    +166.914
tors           9          10          11          12     -94.912
tors          11          12          13          14     +69.173
ENDCONSTRAINT
$end

$rem
JOBTYPE                   OPT
METHOD                    B3LYP
DFT_D                     d3_op
BASIS                     STO-3G
GEOM_OPT_MAX_CYCLES       100
GEOM_OPT_TOL_GRADIENT     300
GEOM_OPT_TOL_DISPLACEMENT 1200
GEOM_OPT_TOL_ENERGY       100
SYMMETRY                  False
THRESH                    12
SCF_CONVERGENCE           8
MAX_SUB_FILE_NUM          128
MEM_STATIC                400
MEM_TOTAL                 4000
$end
--------------------------------------------------------------

   16   -1510.0304419111      2.61E-09 Convergence criterion met
 Total energy in the final basis set = -1510.03044191
   15   -1510.1129295410      4.07E-09 Convergence criterion met
 Total energy in the final basis set = -1510.11292954
   14   -1510.1704493191      9.37E-09 Convergence criterion met
 Total energy in the final basis set = -1510.17044932
   14   -1510.2034262435      4.59E-09 Convergence criterion met
 Total energy in the final basis set = -1510.20342624
   14   -1510.2242641229      3.85E-09 Convergence criterion met
 Total energy in the final basis set = -1510.22426412
   14   -1510.2367775098      3.41E-09 Convergence criterion met
 Total energy in the final basis set = -1510.23677751
   14   -1510.2460772160      3.42E-09 Convergence criterion met
 Total energy in the final basis set = -1510.24607722
   13   -1510.2519796496      6.86E-09 Convergence criterion met
   11   -1510.2614790101      2.32E-09 Convergence criterion met
 Total energy in the final basis set = -1510.26147901
   10   -1510.2614827608      6.48E-09 Convergence criterion met
 Total energy in the final basis set = -1510.26148276
   10   -1510.2614855078      4.53E-09 Convergence criterion met
 Total energy in the final basis set = -1510.26148551
   10   -1510.2614883647      4.60E-09 Convergence criterion met
 Total energy in the final basis set = -1510.26148836
    9   -1510.2614904189      5.54E-09 Convergence criterion met
 Total energy in the final basis set = -1510.26149042
   10   -1510.2614919074      4.87E-09 Convergence criterion met
 Total energy in the final basis set = -1510.26149191

             Standard Nuclear Orientation (Angstroms)
    I     Atom           X                Y                Z
 ----------------------------------------------------------------
    1      O      -3.1831632505     2.4269554125     1.8028337671
    2      C      -2.9191269814     1.6998000010     0.8198721554
    3      C      -3.9596327285     0.8605519758    -0.0000061946
    4      C      -3.4429990674    -0.3893133109    -0.8131021138
    5      C      -2.0869875345    -1.0025434317    -0.2975120819
    6      O      -1.5681770134    -1.7823194537    -1.3876814098
    7      C      -0.1435944064    -2.1614062359    -1.2941692352
    8      C       0.7744336091    -1.2526556883    -2.2218809846
    9      O       1.6498971600    -0.1607428886    -1.7268180400
   10      C       1.4710810443     0.3267502049    -0.4078398176
   11      C       2.7221078280     1.2131272224    -0.0456707374
   12      C       3.8132605110     0.3530791233     0.7364724861
   13      C       3.3434064214    -1.1227425252     0.9740681804
   14      O       3.1896618293    -2.0263691408     0.1230114813
   15      O      -1.6744557605     1.7304219832     0.1140336606
   16      O       3.0617265457    -1.2805934117     2.3687423467
   17      O       0.5414286944     0.0467214916     0.3760372165
   18      C       2.5006301873    -2.6282192576     2.6229743982
   19      C       3.5636399771     1.6836073567    -1.3017327912
   20      C       4.5949418651     2.7826421303    -0.8233004308
   21      C       5.6775264233     1.8952714081    -0.1034472042
   22      C       5.0440491161     0.4576973059    -0.2633537829
   23      O       4.4136684027     0.5073218224    -1.6008710311
   24      H       2.3781210814     2.0605344276     0.5731574449
   25      H       4.0409394134     0.8018030701     1.7190692106
   26      H       2.9561467966     1.9560577549    -2.1857776321
   27      H       5.0188001614     3.3193674780    -1.6867692883
   28      H       4.1291990557     3.5149678054    -0.1448387116
   29      H       6.6489240970     1.9451326867    -0.6207451821
   30      H       5.8247475990     2.1722139823     0.9526349926
   31      H       5.7579326283    -0.3864349459    -0.2034062134
   32      O      -1.6375418113    -0.9909020960     0.8650144694
   33      C      -0.7266416489     2.6409658528     0.7978111643
   34      C      -5.1241402474     0.2216708062     0.8733083393
   35      C      -6.4057768024     0.1452262589    -0.0425109017
   36      C      -5.9687375192    -0.9773235786    -1.0572527895
   37      C      -4.5865889043    -1.4360543639    -0.4408957740
   38      O      -4.7426062497    -1.2029996056     1.0142617796
   39      H      -4.4029510137     1.5810310964    -0.7144360559
   40      H      -3.3722714657    -0.1949687014    -1.8969214704
   41      H      -0.1472422307     2.0850591301     1.5623557695
   42      H      -5.2618238227     0.6959722982     1.8646057144
   43      H      -7.2817019770    -0.1668733533     0.5485848266
   44      H      -6.6331868734     1.1045793744    -0.5341866662
   45      H      -6.6834976984    -1.8153481183    -1.0697102844
   46      H      -5.8534204180    -0.5982444674    -2.0855480102
   47      H      -4.3141131065    -2.4910490221    -0.6390907159
   48      H      -1.2657501178     3.4782635939     1.2843275836
   49      H      -0.0368130402     3.0231040922     0.0226443925
   50      H       2.3680888676    -2.7031528850     3.7177910988
   51      H       3.1833485174    -3.4289495384     2.2725502110
   52      H       1.5182555492    -2.7553642366     2.1230185075
   53      H       1.4831118646    -1.9283088491    -2.7463717650
   54      H       0.1053377758    -0.8089108903    -2.9949510067
   55      H      -0.0760079188    -3.1971347221    -1.6875435760
   56      H       0.2091671257    -2.1480858676    -0.2408374362
 ----------------------------------------------------------------

   10   -1510.2614928188      3.29E-09 Convergence criterion met
 Total energy in the final basis set = -1510.26149282
 Final energy is   -1510.26149281880
 **  OPTIMIZATION CONVERGED  **

                    Orbital Energies (a.u.)
 --------------------------------------------------------------

 Alpha MOs
 -- Occupied --
-18.934 -18.934 -18.927 -18.916 -18.887 -18.882 -18.873 -18.872
-18.872 -18.865 -10.100 -10.097 -10.093 -10.092 -10.071 -10.070
-10.061 -10.060 -10.059 -10.056 -10.054 -10.054 -10.037 -10.036
-10.032 -10.031 -10.021 -10.019 -10.018 -10.016  -1.013  -1.007
 -1.003  -0.995  -0.969  -0.965  -0.939  -0.934  -0.928  -0.926
 -0.763  -0.758  -0.726  -0.720  -0.712  -0.703  -0.693  -0.661
 -0.655  -0.619  -0.595  -0.581  -0.547  -0.540  -0.537  -0.533
 -0.510  -0.506  -0.476  -0.473  -0.458  -0.455  -0.446  -0.442
 -0.432  -0.430  -0.427  -0.411  -0.408  -0.407  -0.403  -0.397
 -0.389  -0.379  -0.370  -0.365  -0.357  -0.355  -0.349  -0.346
 -0.342  -0.339  -0.332  -0.331  -0.327  -0.325  -0.316  -0.308
 -0.307  -0.306  -0.301  -0.295  -0.289  -0.284  -0.280  -0.277
 -0.264  -0.256  -0.249  -0.244  -0.234  -0.232  -0.229  -0.176
 -0.172  -0.167  -0.160  -0.155  -0.150  -0.147  -0.143  -0.140
 -0.136

          Ground-State Mulliken Net Atomic Charges

     Atom                 Charge (a.u.)
  ----------------------------------------
      1 O                    -0.218007
      2 C                     0.214929
      3 C                    -0.079326
      4 C                    -0.076326
      5 C                     0.220753
      6 O                    -0.186931
      7 C                    -0.048621
      8 C                    -0.049842
      9 O                    -0.167434
     10 C                     0.208777
     11 C                    -0.077871
     12 C                    -0.079744
     13 C                     0.205089
     14 O                    -0.216550
     15 O                    -0.168112
     16 O                    -0.167053
     17 O                    -0.209185
     18 C                    -0.128594
     19 C                     0.025956
     20 C                    -0.144727
     21 C                    -0.143518
     22 C                     0.025671
     23 O                    -0.184479
     24 H                     0.081517
     25 H                     0.086416
     26 H                     0.086730
     27 H                     0.077461
     28 H                     0.072404
     29 H                     0.077860
     30 H                     0.073649
     31 H                     0.083739
     32 O                    -0.192426
     33 C                    -0.131086
     34 C                     0.024731
     35 C                    -0.142306
     36 C                    -0.145238
     37 C                     0.024581
     38 O                    -0.189209
     39 H                     0.082421
     40 H                     0.084542
     41 H                     0.095680
     42 H                     0.090206
     43 H                     0.077500
     44 H                     0.072562
     45 H                     0.077452
     46 H                     0.072870
     47 H                     0.082741
     48 H                     0.093773
     49 H                     0.081565
     50 H                     0.092008
     51 H                     0.088660
     52 H                     0.091269
     53 H                     0.093931
     54 H                     0.086120
     55 H                     0.088454
     56 H                     0.104567
  ----------------------------------------
  Sum of atomic charges =    -0.000000

                    Cartesian Multipole Moments
 -----------------------------------------------------------------
    Charge (ESU x 10^10)
                -0.0000
    Dipole Moment (Debye)
         X       0.9122      Y       0.9815      Z      -1.6470
       Tot       2.1233
    Quadrupole Moments (Debye-Ang)
        XX    -149.9556     XY       4.2309     YY    -152.2536
        XZ      16.0122     YZ      -2.6913     ZZ    -162.8693

 Total job time:  85.16s(wall), 4059.93s(cpu)
        *  Thank you very much for using Q-Chem.  Have a nice day.  *
