 Q-Chem 5.0, Q-Chem, Inc., Pleasanton, CA (2017)
 Q-Chem 5.0.1 for Intel X86 EM64T Linux

User input:
--------------------------------------------------------------
$molecule
0  1
O -3.1831632505 2.4269554125 1.8028337671
C -2.9191269814 1.699800001 0.8198721554
C -3.9596327285 0.8605519758 -6.1946e-06
C -3.4429990674 -0.3893133109 -0.8131021138
C -2.0869875345 -1.0025434317 -0.2975120819
O -1.5681770134 -1.7823194537 -1.3876814098
C -0.1435944064 -2.1614062359 -1.2941692352
C 0.7744336091 -1.2526556883 -2.2218809846
O 1.64989716 -0.1607428886 -1.72681804
C 1.4710810443 0.3267502049 -0.4078398176
C 2.722107828 1.2131272224 -0.0456707374
C 3.813260511 0.3530791233 0.7364724861
C 3.3434064214 -1.1227425252 0.9740681804
O 3.1896618293 -2.0263691408 0.1230114813
O -1.6744557605 1.7304219832 0.1140336606
O 3.0617265457 -1.2805934117 2.3687423467
O 0.5414286944 0.0467214916 0.3760372165
C 2.5006301873 -2.6282192576 2.6229743982
C 3.5636399771 1.6836073567 -1.3017327912
C 4.5949418651 2.7826421303 -0.8233004308
C 5.6775264233 1.8952714081 -0.1034472042
C 5.0440491161 0.4576973059 -0.2633537829
O 4.4136684027 0.5073218224 -1.6008710311
H 2.3781210814 2.0605344276 0.5731574449
H 4.0409394134 0.8018030701 1.7190692106
H 2.9561467966 1.9560577549 -2.1857776321
H 5.0188001614 3.319367478 -1.6867692883
H 4.1291990557 3.5149678054 -0.1448387116
H 6.648924097 1.9451326867 -0.6207451821
H 5.824747599 2.1722139823 0.9526349926
H 5.7579326283 -0.3864349459 -0.2034062134
O -1.6375418113 -0.990902096 0.8650144694
C -0.7266416489 2.6409658528 0.7978111643
C -5.1241402474 0.2216708062 0.8733083393
C -6.4057768024 0.1452262589 -0.0425109017
C -5.9687375192 -0.9773235786 -1.0572527895
C -4.5865889043 -1.4360543639 -0.440895774
O -4.7426062497 -1.2029996056 1.0142617796
H -4.4029510137 1.5810310964 -0.7144360559
H -3.3722714657 -0.1949687014 -1.8969214704
H -0.1472422307 2.0850591301 1.5623557695
H -5.2618238227 0.6959722982 1.8646057144
H -7.281701977 -0.1668733533 0.5485848266
H -6.6331868734 1.1045793744 -0.5341866662
H -6.6834976984 -1.8153481183 -1.0697102844
H -5.853420418 -0.5982444674 -2.0855480102
H -4.3141131065 -2.4910490221 -0.6390907159
H -1.2657501178 3.4782635939 1.2843275836
H -0.0368130402 3.0231040922 0.0226443925
H 2.3680888676 -2.703152885 3.7177910988
H 3.1833485174 -3.4289495384 2.272550211
H 1.5182555492 -2.7553642366 2.1230185075
H 1.4831118646 -1.9283088491 -2.746371765
H 0.1053377758 -0.8089108903 -2.9949510067
H -0.0760079188 -3.1971347221 -1.687543576
H 0.2091671257 -2.1480858676 -0.2408374362
$end

$rem
JOBTYPE                   OPT
METHOD                    B3LYP
DFT_D                     d3_op
BASIS                     STO-3G
GEOM_OPT_MAX_CYCLES       100
GEOM_OPT_TOL_GRADIENT     300
GEOM_OPT_TOL_DISPLACEMENT 1200
GEOM_OPT_TOL_ENERGY       100
SYMMETRY                  False
THRESH                    12
SCF_CONVERGENCE           8
MAX_SUB_FILE_NUM          128
MEM_STATIC                400
MEM_TOTAL                 4000
$end
--------------------------------------------------------------

   16   -1510.2614223380      5.58E-09 Convergence criterion met
 Total energy in the final basis set = -1510.26142234
   14   -1510.2632727444      6.66E-09 Convergence criterion met
 Total energy in the final basis set = -1510.26327274
   14   -1510.2667995212      3.02E-09 Convergence criterion met
 Total energy in the final basis set = -1510.26679952
   15   -1510.2696633060      3.41E-09 Convergence criterion met
 Total energy in the final basis set = -1510.26966331
   15   -1510.2746307889      3.91E-09 Convergence criterion met
 Total energy in the final basis set = -1510.27463079
   16   -1510.2083129133      2.24E-09 Convergence criterion met
 Total energy in the final basis set = -1510.20831291
   15   -1510.2727306340      3.99E-09 Convergence criterion met
 Total energy in the final basis set = -1510.27273063
   14   -1510.2709519679      4.21E-09 Convergence criterion met
   11   -1510.3011412229      9.98E-09 Convergence criterion met
 Total energy in the final basis set = -1510.30114122
   11   -1510.3011221902      9.98E-09 Convergence criterion met
 Total energy in the final basis set = -1510.30112219
   11   -1510.3011448965      9.24E-09 Convergence criterion met
 Total energy in the final basis set = -1510.30114490
    9   -1510.3011447081      8.81E-09 Convergence criterion met
 Total energy in the final basis set = -1510.30114471
    9   -1510.3011431217      4.32E-09 Convergence criterion met
 Total energy in the final basis set = -1510.30114312
   11   -1510.3011402826      2.27E-09 Convergence criterion met
 Total energy in the final basis set = -1510.30114028

             Standard Nuclear Orientation (Angstroms)
    I     Atom           X                Y                Z
 ----------------------------------------------------------------
    1      O      -2.0188971093     0.5127147292     2.5941597210
    2      C      -2.1316135989     0.9849224820     1.4420458437
    3      C      -3.3334724948     0.7786386541     0.4419470633
    4      C      -3.0211109269    -0.1423913018    -0.8074574158
    5      C      -1.6056454969    -0.7999513751    -0.7264523034
    6      O      -1.3607709671    -1.5199289589    -1.9306333689
    7      C      -0.0131150430    -2.1417762126    -1.9295216365
    8      C       0.9330586295    -1.3970889811    -2.9525725436
    9      O       2.0364070397    -0.6693657070    -2.2817571942
   10      C       1.5488048044     0.5024697565    -1.6245077553
   11      C       2.7304054082     1.1874168665    -0.8544856064
   12      C       3.0169698752     0.5694496928     0.5846810288
   13      C       2.0828637366    -0.6193436032     0.9979827452
   14      O       1.8824086091    -1.6944333075     0.3907767279
   15      O      -1.2485086304     1.9510508658     0.8641107020
   16      O       1.5010833696    -0.2951297270     2.2673684081
   17      O       0.3648068862     0.9024964908    -1.6815494343
   18      C       0.6021894795    -1.3865997578     2.7249481028
   19      C       4.1341521091     0.9566328220    -1.5599563128
   20      C       5.1670941090     1.9954439487    -0.9692568381
   21      C       5.4539763972     1.3692269076     0.4453500298
   22      C       4.5256566203     0.0913961561     0.4049960564
   23      O       4.5880946263    -0.3400861701    -1.0075868252
   24      H       2.4841027989     2.2601479915    -0.7633541851
   25      H       2.9331952087     1.3437561549     1.3665393141
   26      H       4.0880007198     0.9109151016    -2.6647164060
   27      H       6.0773038315     2.0267820442    -1.5887182290
   28      H       4.7456938043     3.0114791628    -0.9079572344
   29      H       6.5097594364     1.0721554954     0.5491396805
   30      H       5.1953272451     2.0476919563     1.2740822503
   31      H       4.8288717548    -0.7349547575     1.0766995547
   32      O      -0.8218331160    -0.7555885147     0.2481204329
   33      C      -0.1049104390     2.2004123988     1.7723917572
   34      C      -4.5245323557    -0.0225713641     1.1173011751
   35      C      -5.8365506548     0.2481231902     0.2822802875
   36      C      -5.5485152330    -0.6004666875    -1.0115960098
   37      C      -4.1537004930    -1.2481615629    -0.6509509487
   38      O      -4.2173869558    -1.4412015014     0.8146460870
   39      H      -3.6613397823     1.7773193781     0.1021955665
   40      H      -3.1072333563     0.4025377751    -1.7643061215
   41      H       0.4646775537     1.2659785170     1.9908442658
   42      H      -4.6060130483     0.1263998051     2.2114578071
   43      H      -6.7209387654    -0.1287869534     0.8202835417
   44      H      -5.9817240863     1.3188000527     0.0671128703
   45      H      -6.3090450896    -1.3832516873    -1.1608699043
   46      H      -5.4935238153     0.0162589577    -1.9229709590
   47      H      -3.9291539834    -2.2032907528    -1.1648108137
   48      H      -0.4421201129     2.6501312611     2.7286684699
   49      H       0.5444172933     2.9202844890     1.2413952813
   50      H       0.1881347643    -1.0502862184     3.6923078466
   51      H       1.1613924037    -2.3345519785     2.8555097409
   52      H      -0.2163989317    -1.5240890902     1.9889361847
   53      H       1.4404562350    -2.1318368955    -3.6083727223
   54      H       0.3211194064    -0.7085033737    -3.5763074125
   55      H      -0.1492397414    -3.1977509321    -2.2392288692
   56      H       0.4505282928    -2.0984300869    -0.9136655555
 ----------------------------------------------------------------

    9   -1510.3011397102      5.05E-09 Convergence criterion met
 Total energy in the final basis set = -1510.30113971
 Final energy is   -1510.30113971017
 **  OPTIMIZATION CONVERGED  **

                    Orbital Energies (a.u.)
 --------------------------------------------------------------

 Alpha MOs
 -- Occupied --
-18.939 -18.935 -18.933 -18.910 -18.890 -18.882 -18.880 -18.879
-18.873 -18.848 -10.105 -10.102 -10.098 -10.081 -10.069 -10.062
-10.060 -10.059 -10.057 -10.051 -10.048 -10.039 -10.038 -10.035
-10.033 -10.025 -10.022 -10.021 -10.017 -10.015  -1.018  -1.010
 -1.006  -0.988  -0.971  -0.965  -0.941  -0.937  -0.933  -0.914
 -0.764  -0.757  -0.726  -0.719  -0.711  -0.703  -0.691  -0.656
 -0.643  -0.615  -0.594  -0.576  -0.546  -0.539  -0.538  -0.532
 -0.515  -0.505  -0.481  -0.469  -0.459  -0.450  -0.447  -0.443
 -0.434  -0.431  -0.427  -0.418  -0.410  -0.401  -0.395  -0.392
 -0.386  -0.373  -0.368  -0.363  -0.357  -0.356  -0.346  -0.343
 -0.340  -0.334  -0.332  -0.327  -0.325  -0.323  -0.318  -0.309
 -0.308  -0.306  -0.304  -0.296  -0.296  -0.281  -0.278  -0.270
 -0.267  -0.259  -0.250  -0.240  -0.235  -0.231  -0.230  -0.183
 -0.179  -0.168  -0.159  -0.155  -0.150  -0.148  -0.144  -0.140
 -0.132

          Ground-State Mulliken Net Atomic Charges

     Atom                 Charge (a.u.)
  ----------------------------------------
      1 O                    -0.226098
      2 C                     0.214475
      3 C                    -0.081003
      4 C                    -0.076490
      5 C                     0.230431
      6 O                    -0.172453
      7 C                    -0.063335
      8 C                    -0.049448
      9 O                    -0.163693
     10 C                     0.207340
     11 C                    -0.078452
     12 C                    -0.079197
     13 C                     0.217150
     14 O                    -0.209789
     15 O                    -0.173987
     16 O                    -0.166463
     17 O                    -0.213925
     18 C                    -0.135008
     19 C                     0.026992
     20 C                    -0.144428
     21 C                    -0.143679
     22 C                     0.026353
     23 O                    -0.183316
     24 H                     0.084727
     25 H                     0.087100
     26 H                     0.086022
     27 H                     0.078094
     28 H                     0.073584
     29 H                     0.078342
     30 H                     0.074133
     31 H                     0.083691
     32 O                    -0.216689
     33 C                    -0.142915
     34 C                     0.023966
     35 C                    -0.143754
     36 C                    -0.143975
     37 C                     0.024506
     38 O                    -0.191334
     39 H                     0.083127
     40 H                     0.089650
     41 H                     0.103928
     42 H                     0.088376
     43 H                     0.076934
     44 H                     0.073072
     45 H                     0.077172
     46 H                     0.073551
     47 H                     0.083861
     48 H                     0.076299
     49 H                     0.075342
     50 H                     0.095579
     51 H                     0.083655
     52 H                     0.114281
     53 H                     0.090804
     54 H                     0.092080
     55 H                     0.085118
     56 H                     0.119698
  ----------------------------------------
  Sum of atomic charges =    -0.000000

                    Cartesian Multipole Moments
 -----------------------------------------------------------------
    Charge (ESU x 10^10)
                -0.0000
    Dipole Moment (Debye)
         X       0.6448      Y       1.4960      Z      -1.3847
       Tot       2.1380
    Quadrupole Moments (Debye-Ang)
        XX    -148.7958     XY       4.5038     YY    -156.8994
        XZ       7.9585     YZ       2.0160     ZZ    -157.4427

 Total job time:  114.12s(wall), 5441.44s(cpu)
        *  Thank you very much for using Q-Chem.  Have a nice day.  *
