 Q-Chem 5.0, Q-Chem, Inc., Pleasanton, CA (2017)
 Q-Chem 5.0.1 for Intel X86 EM64T Linux

User input:
--------------------------------------------------------------
$molecule
0  1
O -3.35973331 -0.82213561 2.5523216682
C -3.2243010693 0.1091701691 1.7318501553
C -4.2634741908 0.5781706185 0.6464372139
C -3.9551293768 0.0304441051 -0.8135617793
C -2.5318021526 -0.6025680749 -0.9347520431
O -1.8064468379 0.1238756284 -1.9368014203
C -0.3691577267 -0.2681169554 -1.9339515472
C 0.2975860899 0.3375615351 -0.6374789266
O 1.6758328163 -0.0411861525 -0.2393923719
C 2.4429737587 -0.7960058515 -1.1773934345
C 3.8571279944 -1.0321314981 -0.5265841623
C 4.7313396931 0.2672963935 -0.2812779678
C 4.2095492946 1.6251897771 -0.8719921314
O 4.6375752818 2.7639410459 -0.5841899895
O -2.0447587291 0.9228991669 1.6361433436
O 3.2582936094 1.379456715 -1.9119982457
O 2.0539602468 -1.2617456821 -2.2689349908
C 2.7668946547 2.6522988955 -2.4835763319
C 3.7039367898 -1.5533039586 0.9702019216
C 5.0951578183 -2.1243798008 1.4590079845
C 5.8914259825 -0.7954371007 1.7379330647
C 4.8276218762 0.2876771931 1.3056260077
O 3.5451221622 -0.3028070699 1.7474384767
H 4.3938890814 -1.7555997006 -1.1646019112
H 5.7402486971 0.1186217563 -0.7106708427
H 2.8372398194 -2.2226274115 1.1336485925
H 4.9666684705 -2.7204687278 2.3764720972
H 5.5745161672 -2.7543588553 0.6927676796
H 6.1338624946 -0.6883287377 2.8072761827
H 6.823111278 -0.7234341169 1.1546218535
H 4.9674840685 1.2979833181 1.7372215365
O -2.0608005673 -1.5509218157 -0.2684708012
C -1.0800711095 0.5232928599 2.6901249832
C -5.6534616896 -0.1306976377 0.9278446753
C -6.761902614 0.507874721 -0.0004689179
C -6.4384784034 -0.173069846 -1.3825957134
C -5.1492975318 -1.003636618 -1.0095106711
O -5.4423364357 -1.4831831199 0.3582227265
H -4.3271291548 1.681046693 0.6538482501
H -4.0158260555 0.8481905926 -1.5530626602
H -0.8149672948 -0.5508456215 2.6146194912
H -5.9135682162 -0.2052218275 2.0012142336
H -7.7688143875 0.2415995557 0.3579211746
H -6.6802675258 1.6059695629 -0.0413365226
H -7.2493630854 -0.8492121281 -1.6978107362
H -6.2520686064 0.555711258 -2.1873577627
H -4.9190665772 -1.8544446718 -1.6796238382
H -1.4872394162 0.7142309866 3.70385047
H -0.176684245 1.1404121484 2.5315477085
H 2.0409533744 2.370664735 -3.2685676352
H 3.5919328369 3.2421963718 -2.9324189601
H 2.2629741572 3.2749535006 -1.7164257548
H 0.283498082 1.4458836689 -0.7340457505
H -0.3505147884 0.0743912771 0.2235806405
H 0.0626364528 0.156266914 -2.8597102661
H -0.272655774 -1.3728202777 -1.9496122533
$end

$rem
JOBTYPE                   OPT
METHOD                    B3LYP
DFT_D                     d3_op
BASIS                     STO-3G
GEOM_OPT_MAX_CYCLES       100
GEOM_OPT_TOL_GRADIENT     300
GEOM_OPT_TOL_DISPLACEMENT 1200
GEOM_OPT_TOL_ENERGY       100
SYMMETRY                  False
THRESH                    12
SCF_CONVERGENCE           8
MAX_SUB_FILE_NUM          128
MEM_STATIC                400
MEM_TOTAL                 4000
$end
--------------------------------------------------------------

   16   -1510.2742483347      5.28E-09 Convergence criterion met
 Total energy in the final basis set = -1510.27424833
   13   -1510.2760337986      5.95E-09 Convergence criterion met
 Total energy in the final basis set = -1510.27603380
   13   -1510.2776212194      7.37E-09 Convergence criterion met
 Total energy in the final basis set = -1510.27762122
   13   -1510.2793706144      4.26E-09 Convergence criterion met
 Total energy in the final basis set = -1510.27937061
   13   -1510.2812662347      5.69E-09 Convergence criterion met
 Total energy in the final basis set = -1510.28126623
   13   -1510.2832752049      9.16E-09 Convergence criterion met
 Total energy in the final basis set = -1510.28327520
   14   -1510.2848916214      2.54E-09 Convergence criterion met
 Total energy in the final basis set = -1510.28489162
   13   -1510.2862336297      6.20E-09 Convergence criterion met
   10   -1510.3039361999      9.48E-09 Convergence criterion met
 Total energy in the final basis set = -1510.30393620
   11   -1510.3039347677      4.93E-09 Convergence criterion met
 Total energy in the final basis set = -1510.30393477
   11   -1510.3039319191      3.80E-09 Convergence criterion met
 Total energy in the final basis set = -1510.30393192
    9   -1510.3039346435      7.18E-09 Convergence criterion met
 Total energy in the final basis set = -1510.30393464
    9   -1510.3039374229      6.70E-09 Convergence criterion met
 Total energy in the final basis set = -1510.30393742
    9   -1510.3039357056      3.09E-09 Convergence criterion met
 Total energy in the final basis set = -1510.30393571

             Standard Nuclear Orientation (Angstroms)
    I     Atom           X                Y                Z
 ----------------------------------------------------------------
    1      O       1.2918758872    -1.9523536811    -1.6606335600
    2      C       1.8124549275    -0.8315323664    -1.4706544355
    3      C       3.1983684163    -0.5580360326    -0.7810925355
    4      C       3.1805081985     0.5234578349     0.3790503650
    5      C       1.7648975543     1.1057443579     0.7088910405
    6      O       1.7211036532     2.4697053830     0.2821838218
    7      C       0.4640971087     3.1243653740     0.7138249465
    8      C      -0.7630456893     2.8609521425    -0.2394330273
    9      O      -1.2831451458     1.4764999396    -0.2008134100
   10      C      -1.9132769474     1.2087003500     1.0619864428
   11      C      -2.4461334656    -0.2623214729     1.0620639218
   12      C      -3.5401821386    -0.5660964567    -0.0476902410
   13      C      -3.6897379203     0.5935873335    -1.0968947820
   14      O      -3.4782792592     0.5423366608    -2.3264134995
   15      O       1.2585906073     0.4102499790    -1.8963403506
   16      O      -4.1427272420     1.7664665270    -0.4058445276
   17      O      -1.9966256060     2.0378862051     1.9934259134
   18      C      -4.2792643766     2.8907866139    -1.3589282621
   19      C      -1.3285075057    -1.3337735762     0.6857420478
   20      C      -1.7961787636    -2.7310563980     1.2414972467
   21      C      -2.9844702564    -3.0658165895     0.2599422492
   22      C      -2.9199860667    -1.8449272086    -0.7383309322
   23      O      -1.4777194708    -1.5126191998    -0.7774139088
   24      H      -2.8516639213    -0.4548910029     2.0704346348
   25      H      -4.5264837689    -0.7634847664     0.4106058394
   26      H      -0.2983121794    -0.9995809411     0.9404541077
   27      H      -0.9816808502    -3.4673735747     1.1504032780
   28      H      -2.1135885611    -2.6798452331     2.2950536331
   29      H      -2.8126036995    -4.0121633432    -0.2767745950
   30      H      -3.9565769264    -3.1225343518     0.7754555613
   31      H      -3.2980195088    -2.0332971108    -1.7618436066
   32      O       0.8387052832     0.5337024762     1.3273781000
   33      C      -0.0328637473     0.1714354694    -2.5965896274
   34      C       3.6969086425    -1.8419097330     0.0004710965
   35      C       5.2449991159    -1.6995236194     0.2694200601
   36      C       5.2543569490    -0.6076176953     1.4032425183
   37      C       3.7067494698    -0.3536391698     1.5974282561
   38      O       3.0968651631    -1.6777507922     1.3461641036
   39      H       3.9156747186    -0.2569154159    -1.5670406556
   40      H       3.8518829038     1.3681768711     0.1459216956
   41      H       0.1362122505    -0.3703775937    -3.5491588290
   42      H       3.3646306248    -2.7942540290    -0.4570256675
   43      H       5.6651558063    -2.6540167314     0.6244356774
   44      H       5.7962243756    -1.3833917426    -0.6304464934
   45      H       5.7014002197    -0.9921020489     2.3336955892
   46      H       5.7892026935     0.3086663454     1.1063855734
   47      H       3.4106988907     0.0247615608     2.5950485222
   48      H      -0.4478446838     1.1708385040    -2.8149671765
   49      H      -0.7279109096    -0.4156285823    -1.9424579137
   50      H      -4.5255534954     3.7805977501    -0.7508023523
   51      H      -5.0925387120     2.7068549516    -2.0906832509
   52      H      -3.3386534409     3.0677995535    -1.9187589634
   53      H      -1.5615151466     3.5843275690     0.0376441824
   54      H      -0.4626074712     3.0313972542    -1.2926664157
   55      H       0.6827761826     4.2115531028     0.6998769949
   56      H       0.1840762901     2.8169160530     1.7434911511
 ----------------------------------------------------------------

    9   -1510.3039357677      3.24E-09 Convergence criterion met
 Total energy in the final basis set = -1510.30393577
 Final energy is   -1510.30393576772
 **  OPTIMIZATION CONVERGED  **

                    Orbital Energies (a.u.)
 --------------------------------------------------------------

 Alpha MOs
 -- Occupied --
-18.936 -18.934 -18.930 -18.915 -18.895 -18.883 -18.876 -18.875
-18.870 -18.859 -10.102 -10.099 -10.097 -10.084 -10.074 -10.071
-10.066 -10.058 -10.057 -10.052 -10.047 -10.037 -10.035 -10.031
-10.030 -10.021 -10.018 -10.016 -10.016 -10.013  -1.017  -1.012
 -1.002  -0.993  -0.971  -0.966  -0.938  -0.936  -0.933  -0.919
 -0.761  -0.758  -0.725  -0.719  -0.709  -0.701  -0.694  -0.663
 -0.638  -0.617  -0.594  -0.580  -0.545  -0.539  -0.533  -0.532
 -0.508  -0.506  -0.478  -0.473  -0.463  -0.452  -0.446  -0.440
 -0.429  -0.427  -0.425  -0.415  -0.413  -0.403  -0.398  -0.389
 -0.386  -0.373  -0.370  -0.366  -0.359  -0.355  -0.348  -0.346
 -0.341  -0.338  -0.334  -0.327  -0.326  -0.323  -0.319  -0.307
 -0.304  -0.301  -0.300  -0.293  -0.288  -0.286  -0.278  -0.270
 -0.266  -0.253  -0.252  -0.246  -0.242  -0.231  -0.222  -0.192
 -0.178  -0.164  -0.159  -0.155  -0.153  -0.147  -0.142  -0.141
 -0.136

          Ground-State Mulliken Net Atomic Charges

     Atom                 Charge (a.u.)
  ----------------------------------------
      1 O                    -0.210803
      2 C                     0.206348
      3 C                    -0.079347
      4 C                    -0.079009
      5 C                     0.219729
      6 O                    -0.167563
      7 C                    -0.053203
      8 C                    -0.048601
      9 O                    -0.172168
     10 C                     0.220468
     11 C                    -0.080049
     12 C                    -0.078829
     13 C                     0.213445
     14 O                    -0.211374
     15 O                    -0.177470
     16 O                    -0.173248
     17 O                    -0.217367
     18 C                    -0.128884
     19 C                     0.020168
     20 C                    -0.142054
     21 C                    -0.143979
     22 C                     0.027247
     23 O                    -0.183119
     24 H                     0.085733
     25 H                     0.085576
     26 H                     0.111985
     27 H                     0.082943
     28 H                     0.073980
     29 H                     0.079591
     30 H                     0.072419
     31 H                     0.090000
     32 O                    -0.220562
     33 C                    -0.147533
     34 C                     0.023259
     35 C                    -0.143987
     36 C                    -0.144208
     37 C                     0.025533
     38 O                    -0.189009
     39 H                     0.082945
     40 H                     0.085874
     41 H                     0.073584
     42 H                     0.091281
     43 H                     0.077468
     44 H                     0.072926
     45 H                     0.077386
     46 H                     0.072904
     47 H                     0.082258
     48 H                     0.075211
     49 H                     0.125178
     50 H                     0.089985
     51 H                     0.087899
     52 H                     0.088897
     53 H                     0.088069
     54 H                     0.091555
     55 H                     0.088881
     56 H                     0.101637
  ----------------------------------------
  Sum of atomic charges =    -0.000000

                    Cartesian Multipole Moments
 -----------------------------------------------------------------
    Charge (ESU x 10^10)
                 0.0000
    Dipole Moment (Debye)
         X       0.2149      Y       1.7891      Z       0.1459
       Tot       1.8079
    Quadrupole Moments (Debye-Ang)
        XX    -140.9768     XY       1.9540     YY    -152.9454
        XZ       1.2065     YZ      -4.7271     ZZ    -165.3849

 Total job time:  151.67s(wall), 7238.67s(cpu)
        *  Thank you very much for using Q-Chem.  Have a nice day.  *
