 Q-Chem 5.0, Q-Chem, Inc., Pleasanton, CA (2017)
 Q-Chem 5.0.1 for Intel X86 EM64T Linux

User input:
--------------------------------------------------------------
$molecule
0  1
O -3.94934 -3.66094 2.70899
C -3.26408 -4.56952 2.26188
C -3.36658 -6.02376 2.66595
C -2.33388 -6.54625 3.67807
C -1.42485 -5.51418 4.30783
O -0.12157 -5.81035 4.02649
C 0.78488 -4.76369 4.38996
C 0.63734 -3.58487 3.43354
O 1.38674 -2.46132 3.92231
C 2.2101 -2.72015 4.96836
C 2.99137 -1.50782 5.41617
C 3.99122 -0.96483 4.3848
C 3.81602 -1.46814 2.96611
O 4.35009 -0.99292 1.97439
O -2.25456 -4.26677 1.40468
O 3.60229 -2.80602 2.82143
O 2.88378 -3.73031 5.13526
C 3.65495 -3.5146 1.63482
C 2.10998 -0.25987 5.63602
C 2.80979 0.70155 6.59522
C 3.94675 1.19198 5.72175
C 3.58059 0.51976 4.39268
O 2.17611 0.44272 4.42017
H 3.47561 -1.75417 6.39065
H 5.05129 -1.13799 4.67224
H 1.09022 -0.50309 6.00729
H 2.10612 1.54689 6.77105
H 3.115 0.27326 7.5741
H 3.87577 2.29958 5.64399
H 4.96487 0.8953 6.0552
H 4.01858 1.08649 3.5415
O -1.81605 -4.54683 4.95294
C -2.01795 -3.00594 0.89704
C -4.66102 -6.30171 3.47
C -5.02242 -7.78544 3.39189
C -3.95898 -8.38158 4.28828
C -3.25822 -7.10753 4.76917
O -4.28716 -6.15144 4.8172
H -3.4216 -6.61741 1.72598
H -1.70661 -7.34642 3.2216
H -1.82274 -2.28623 1.71978
H -5.5267 -5.69039 3.13224
H -6.01178 -7.91202 3.88741
H -5.07103 -8.2062 2.36457
H -4.46159 -8.88924 5.14155
H -3.25557 -9.08356 3.79035
H -2.7193 -7.29686 5.72414
H -2.89334 -2.66364 0.3049
H -1.1291 -3.04171 0.23436
H 3.42058 -4.57968 1.83779
H 4.67221 -3.45309 1.19302
H 2.90777 -3.11281 0.91756
H 0.92499 -3.85008 2.39553
H -0.4167 -3.25214 3.41558
H 1.75187 -5.27355 4.20389
H 0.61593 -4.52679 5.46965
$end

$opt
CONSTRAINT
tors           1           2           3           4     -99.826
tors           3           4           5           6    -120.522
tors           4           5           6           7    +169.960
tors           5           6           7           8     -72.027
tors           6           7           8           9    +170.846
tors           7           8           9          10      +9.784
tors           8           9          10          11    +178.748
tors           9          10          11          12     -64.887
tors          11          12          13          14    +166.809
ENDCONSTRAINT
$end

$rem
JOBTYPE                   OPT
METHOD                    B3LYP
DFT_D                     d3_op
BASIS                     STO-3G
GEOM_OPT_MAX_CYCLES       100
GEOM_OPT_TOL_GRADIENT     300
GEOM_OPT_TOL_DISPLACEMENT 1200
GEOM_OPT_TOL_ENERGY       100
SYMMETRY                  False
THRESH                    12
SCF_CONVERGENCE           8
MAX_SUB_FILE_NUM          128
MEM_STATIC                400
MEM_TOTAL                 4000
$end
--------------------------------------------------------------

   15   -1510.0927851812      8.11E-09 Convergence criterion met
 Total energy in the final basis set = -1510.09278518
   15   -1510.1714662495      2.58E-09 Convergence criterion met
 Total energy in the final basis set = -1510.17146625
   14   -1510.2163919238      7.57E-09 Convergence criterion met
 Total energy in the final basis set = -1510.21639192
   15   -1510.2428842584      1.91E-09 Convergence criterion met
 Total energy in the final basis set = -1510.24288426
   14   -1510.2555429022      3.34E-09 Convergence criterion met
 Total energy in the final basis set = -1510.25554290
   14   -1510.2623115015      2.81E-09 Convergence criterion met
 Total energy in the final basis set = -1510.26231150
   14   -1510.2668335314      3.24E-09 Convergence criterion met
 Total energy in the final basis set = -1510.26683353
   13   -1510.2695413886      4.25E-09 Convergence criterion met
   11   -1510.2741481468      3.81E-09 Convergence criterion met
 Total energy in the final basis set = -1510.27414815
   11   -1510.2741608444      5.32E-09 Convergence criterion met
 Total energy in the final basis set = -1510.27416084
   11   -1510.2741790926      7.87E-09 Convergence criterion met
 Total energy in the final basis set = -1510.27417909
   11   -1510.2741937702      6.07E-09 Convergence criterion met
 Total energy in the final basis set = -1510.27419377
   10   -1510.2741996426      6.70E-09 Convergence criterion met
 Total energy in the final basis set = -1510.27419964
    9   -1510.2742034169      8.52E-09 Convergence criterion met
 Total energy in the final basis set = -1510.27420342

             Standard Nuclear Orientation (Angstroms)
    I     Atom           X                Y                Z
 ----------------------------------------------------------------
    1      O      -3.3597333100    -0.8221356100     2.5523216682
    2      C      -3.2243010693     0.1091701691     1.7318501553
    3      C      -4.2634741908     0.5781706185     0.6464372139
    4      C      -3.9551293768     0.0304441051    -0.8135617793
    5      C      -2.5318021526    -0.6025680749    -0.9347520431
    6      O      -1.8064468379     0.1238756284    -1.9368014203
    7      C      -0.3691577267    -0.2681169554    -1.9339515472
    8      C       0.2975860899     0.3375615351    -0.6374789266
    9      O       1.6758328163    -0.0411861525    -0.2393923719
   10      C       2.4429737587    -0.7960058515    -1.1773934345
   11      C       3.8571279944    -1.0321314981    -0.5265841623
   12      C       4.7313396931     0.2672963935    -0.2812779678
   13      C       4.2095492946     1.6251897771    -0.8719921314
   14      O       4.6375752818     2.7639410459    -0.5841899895
   15      O      -2.0447587291     0.9228991669     1.6361433436
   16      O       3.2582936094     1.3794567150    -1.9119982457
   17      O       2.0539602468    -1.2617456821    -2.2689349908
   18      C       2.7668946547     2.6522988955    -2.4835763319
   19      C       3.7039367898    -1.5533039586     0.9702019216
   20      C       5.0951578183    -2.1243798008     1.4590079845
   21      C       5.8914259825    -0.7954371007     1.7379330647
   22      C       4.8276218762     0.2876771931     1.3056260077
   23      O       3.5451221622    -0.3028070699     1.7474384767
   24      H       4.3938890814    -1.7555997006    -1.1646019112
   25      H       5.7402486971     0.1186217563    -0.7106708427
   26      H       2.8372398194    -2.2226274115     1.1336485925
   27      H       4.9666684705    -2.7204687278     2.3764720972
   28      H       5.5745161672    -2.7543588553     0.6927676796
   29      H       6.1338624946    -0.6883287377     2.8072761827
   30      H       6.8231112780    -0.7234341169     1.1546218535
   31      H       4.9674840685     1.2979833181     1.7372215365
   32      O      -2.0608005673    -1.5509218157    -0.2684708012
   33      C      -1.0800711095     0.5232928599     2.6901249832
   34      C      -5.6534616896    -0.1306976377     0.9278446753
   35      C      -6.7619026140     0.5078747210    -0.0004689179
   36      C      -6.4384784034    -0.1730698460    -1.3825957134
   37      C      -5.1492975318    -1.0036366180    -1.0095106711
   38      O      -5.4423364357    -1.4831831199     0.3582227265
   39      H      -4.3271291548     1.6810466930     0.6538482501
   40      H      -4.0158260555     0.8481905926    -1.5530626602
   41      H      -0.8149672948    -0.5508456215     2.6146194912
   42      H      -5.9135682162    -0.2052218275     2.0012142336
   43      H      -7.7688143875     0.2415995557     0.3579211746
   44      H      -6.6802675258     1.6059695629    -0.0413365226
   45      H      -7.2493630854    -0.8492121281    -1.6978107362
   46      H      -6.2520686064     0.5557112580    -2.1873577627
   47      H      -4.9190665772    -1.8544446718    -1.6796238382
   48      H      -1.4872394162     0.7142309866     3.7038504700
   49      H      -0.1766842450     1.1404121484     2.5315477085
   50      H       2.0409533744     2.3706647350    -3.2685676352
   51      H       3.5919328369     3.2421963718    -2.9324189601
   52      H       2.2629741572     3.2749535006    -1.7164257548
   53      H       0.2834980820     1.4458836689    -0.7340457505
   54      H      -0.3505147884     0.0743912771     0.2235806405
   55      H       0.0626364528     0.1562669140    -2.8597102661
   56      H      -0.2726557740    -1.3728202777    -1.9496122533
 ----------------------------------------------------------------

    9   -1510.2742043629      3.10E-09 Convergence criterion met
 Total energy in the final basis set = -1510.27420436
 Final energy is   -1510.27420436289
 **  OPTIMIZATION CONVERGED  **

                    Orbital Energies (a.u.)
 --------------------------------------------------------------

 Alpha MOs
 -- Occupied --
-18.944 -18.932 -18.930 -18.926 -18.888 -18.887 -18.879 -18.875
-18.875 -18.864 -10.105 -10.100 -10.099 -10.096 -10.072 -10.069
-10.065 -10.060 -10.060 -10.059 -10.059 -10.058 -10.040 -10.038
-10.037 -10.035 -10.020 -10.020 -10.019 -10.019  -1.019  -1.013
 -1.006  -1.000  -0.970  -0.969  -0.942  -0.937  -0.933  -0.931
 -0.764  -0.762  -0.727  -0.722  -0.712  -0.705  -0.692  -0.668
 -0.660  -0.619  -0.597  -0.586  -0.546  -0.545  -0.537  -0.537
 -0.513  -0.509  -0.482  -0.474  -0.466  -0.461  -0.451  -0.441
 -0.435  -0.432  -0.429  -0.417  -0.412  -0.410  -0.406  -0.394
 -0.389  -0.382  -0.371  -0.365  -0.359  -0.357  -0.354  -0.348
 -0.343  -0.341  -0.333  -0.332  -0.330  -0.328  -0.325  -0.313
 -0.309  -0.307  -0.305  -0.300  -0.298  -0.292  -0.281  -0.281
 -0.274  -0.261  -0.252  -0.249  -0.234  -0.234  -0.233  -0.185
 -0.177  -0.176  -0.164  -0.159  -0.156  -0.148  -0.144  -0.143
 -0.141

          Ground-State Mulliken Net Atomic Charges

     Atom                 Charge (a.u.)
  ----------------------------------------
      1 O                    -0.203358
      2 C                     0.209501
      3 C                    -0.078361
      4 C                    -0.080547
      5 C                     0.205747
      6 O                    -0.173363
      7 C                    -0.049083
      8 C                    -0.055814
      9 O                    -0.171517
     10 C                     0.221171
     11 C                    -0.079190
     12 C                    -0.078746
     13 C                     0.212892
     14 O                    -0.213666
     15 O                    -0.176756
     16 O                    -0.167793
     17 O                    -0.222324
     18 C                    -0.126529
     19 C                     0.026600
     20 C                    -0.144778
     21 C                    -0.143216
     22 C                     0.025186
     23 O                    -0.186718
     24 H                     0.083903
     25 H                     0.085402
     26 H                     0.084273
     27 H                     0.078210
     28 H                     0.073767
     29 H                     0.078131
     30 H                     0.073349
     31 H                     0.087729
     32 O                    -0.212124
     33 C                    -0.131301
     34 C                     0.025939
     35 C                    -0.145063
     36 C                    -0.142752
     37 C                     0.026011
     38 O                    -0.183952
     39 H                     0.084589
     40 H                     0.085861
     41 H                     0.095065
     42 H                     0.087898
     43 H                     0.078365
     44 H                     0.072882
     45 H                     0.078408
     46 H                     0.073631
     47 H                     0.084546
     48 H                     0.087187
     49 H                     0.093648
     50 H                     0.092466
     51 H                     0.092070
     52 H                     0.090286
     53 H                     0.079570
     54 H                     0.096172
     55 H                     0.094927
     56 H                     0.101568
  ----------------------------------------
  Sum of atomic charges =     0.000000

                    Cartesian Multipole Moments
 -----------------------------------------------------------------
    Charge (ESU x 10^10)
                 0.0000
    Dipole Moment (Debye)
         X       0.6635      Y       2.1500      Z      -1.2841
       Tot       2.5907
    Quadrupole Moments (Debye-Ang)
        XX    -144.2816     XY     -16.6217     YY    -163.9562
        XZ       6.2220     YZ      -0.9654     ZZ    -160.1001

 Total job time:  73.43s(wall), 3496.80s(cpu)
        *  Thank you very much for using Q-Chem.  Have a nice day.  *
