 Q-Chem 5.0, Q-Chem, Inc., Pleasanton, CA (2017)
 Q-Chem 5.0.1 for Intel X86 EM64T Linux

User input:
--------------------------------------------------------------
$molecule
0  1
O -3.94934 -3.66094 2.70899
C -3.26408 -4.56952 2.26188
C -3.36658 -6.02376 2.66595
C -2.07138 -6.72217 3.11153
C -0.85187 -5.842 3.27337
O 0.27303 -6.5423 2.94232
C 1.44114 -5.72007 2.84896
C 1.04291 -4.26363 2.63371
O 2.17965 -3.41001 2.83875
C 3.33945 -4.0455 3.13902
C 4.50193 -3.09731 3.31294
C 4.90806 -2.3317 2.0452
C 3.90108 -2.34732 0.91274
O 3.5108 -1.36551 0.29769
O -2.40196 -4.29884 1.24663
O 3.6048 -3.56823 0.39163
O 3.75939 -5.06744 2.60553
C 2.78849 -3.77736 -0.7008
C 4.21298 -1.9148 4.26471
C 5.52661 -1.397 4.84757
C 6.15186 -0.76908 3.61753
C 4.99294 -0.9054 2.62069
O 3.83776 -0.85163 3.4223
H 5.34936 -3.677 3.75105
H 5.86446 -2.71462 1.62661
H 3.50105 -2.16936 5.08014
H 5.25706 -0.58708 5.56326
H 6.16014 -2.14538 5.37042
H 6.37304 0.29757 3.84328
H 7.06362 -1.27818 3.23616
H 5.07578 -0.12933 1.82863
O -0.90117 -5.08152 4.23599
C -2.1781 -3.04041 0.72946
C -4.25801 -6.2599 3.90135
C -4.76613 -7.7022 3.91278
C -3.50272 -8.44474 4.29433
C -2.53487 -7.27266 4.47861
O -3.35482 -6.24282 4.97902
H -3.803 -6.53875 1.78064
H -1.80675 -7.55558 2.42014
H -1.78463 -2.36739 1.5211
H -5.11677 -5.55711 3.96728
H -5.49729 -7.79906 4.74703
H -5.24327 -8.03025 2.96425
H -3.67204 -8.94569 5.27367
H -3.14144 -9.18592 3.54913
H -1.67964 -7.57586 5.12222
H -3.12003 -2.62339 0.31351
H -1.42715 -3.11039 -0.0841
H 2.7128 -4.86697 -0.89415
H 3.21526 -3.28207 -1.59881
H 1.77142 -3.37796 -0.501
H 0.64788 -4.13662 1.60328
H 0.35511 -3.7152 3.28046
H 1.96336 -6.10939 1.94671
H 1.96194 -5.91605 3.81574
$end

$opt
CONSTRAINT
tors           1           2           3           4    -127.266
tors           3           4           5           6    -146.873
tors           4           5           6           7    +169.960
tors           5           6           7           8     -20.941
tors           6           7           8           9    +167.145
tors           7           8           9          10      +1.451
tors           8           9          10          11    +178.748
tors           9          10          11          12     -64.887
tors          11          12          13          14    +130.736
ENDCONSTRAINT
$end

$rem
JOBTYPE                   OPT
METHOD                    B3LYP
DFT_D                     d3_op
BASIS                     STO-3G
GEOM_OPT_MAX_CYCLES       100
GEOM_OPT_TOL_GRADIENT     300
GEOM_OPT_TOL_DISPLACEMENT 1200
GEOM_OPT_TOL_ENERGY       100
SYMMETRY                  False
THRESH                    12
SCF_CONVERGENCE           8
MAX_SUB_FILE_NUM          128
MEM_STATIC                400
MEM_TOTAL                 4000
$end
--------------------------------------------------------------

   16   -1510.0607353418      3.24E-09 Convergence criterion met
 Total energy in the final basis set = -1510.06073534
   14   -1510.1438084110      9.18E-09 Convergence criterion met
 Total energy in the final basis set = -1510.14380841
   14   -1510.1937742936      9.55E-09 Convergence criterion met
 Total energy in the final basis set = -1510.19377429
   15   -1510.2250386965      1.48E-09 Convergence criterion met
 Total energy in the final basis set = -1510.22503870
   14   -1510.2428963946      6.87E-09 Convergence criterion met
 Total energy in the final basis set = -1510.24289639
   14   -1510.2541611737      8.20E-09 Convergence criterion met
 Total energy in the final basis set = -1510.25416117
   13   -1510.2608717588      9.38E-09 Convergence criterion met
 Total energy in the final basis set = -1510.26087176
   13   -1510.2651607140      5.33E-09 Convergence criterion met
   12   -1510.2697176461      4.00E-09 Convergence criterion met
 Total energy in the final basis set = -1510.26971765
   11   -1510.2697552792      8.61E-09 Convergence criterion met
 Total energy in the final basis set = -1510.26975528
    9   -1510.2697781703      8.88E-09 Convergence criterion met
 Total energy in the final basis set = -1510.26977817
    9   -1510.2697951887      8.14E-09 Convergence criterion met
 Total energy in the final basis set = -1510.26979519
    9   -1510.2698036430      7.08E-09 Convergence criterion met
 Total energy in the final basis set = -1510.26980364
    9   -1510.2698062726      5.38E-09 Convergence criterion met
 Total energy in the final basis set = -1510.26980627

             Standard Nuclear Orientation (Angstroms)
    I     Atom           X                Y                Z
 ----------------------------------------------------------------
    1      O      -3.7406449469     1.4174262427     2.5002028861
    2      C      -3.6301378526     1.3879679489     1.2571631774
    3      C      -4.6206126647     0.7371295324     0.2253777104
    4      C      -3.9343282357    -0.2735915082    -0.7835420247
    5      C      -2.4332446942    -0.5435994040    -0.4128050254
    6      O      -1.7269409521    -0.7506562154    -1.6294515931
    7      C      -0.2329409555    -0.8036086647    -1.5817106138
    8      C       0.4377702456    -0.1317794569    -0.3214019683
    9      O       1.8742066184    -0.3760162938    -0.0331290794
   10      C       2.6316918371    -1.1931853245    -0.9240552054
   11      C       4.0959223031    -1.2184440558    -0.3530617631
   12      C       4.8151919197     0.1957971793    -0.3741032448
   13      C       3.8969004796     1.3680054587    -0.8723892713
   14      O       3.7141795282     2.4769642597    -0.3289896019
   15      O      -2.5978310698     2.0592512710     0.5180269329
   16      O       3.3086718434     0.9777476173    -2.1219081565
   17      O       2.2198976528    -1.8317252626    -1.9157170785
   18      C       2.4197267105     2.0469126744    -2.6281574386
   19      C       4.1462823139    -1.5467371779     1.2030301909
   20      C       5.6234743204    -1.9754296656     1.5659810131
   21      C       6.3614333753    -0.5851030076     1.5249912760
   22      C       5.1694302100     0.3821896956     1.1577072980
   23      O       4.0049591151    -0.2219614481     1.8465340470
   24      H       4.6629513364    -1.9592867053    -0.9434377786
   25      H       5.7194941948     0.1685056418    -1.0098148099
   26      H       3.3541357408    -2.2358126035     1.5545797799
   27      H       5.6561450659    -2.4206108566     2.5731940535
   28      H       6.0365015796    -2.6996677959     0.8457464158
   29      H       6.7807036620    -0.3215066335     2.5089137507
   30      H       7.1701449627    -0.5541224593     0.7770285313
   31      H       5.2908106748     1.4403693614     1.4608404594
   32      O      -1.9948003377    -0.6501092385     0.7589244604
   33      C      -1.6029490965     2.6341186285     1.4508038013
   34      C      -5.6848731265    -0.2008310038     0.9312446763
   35      C      -6.8940015830    -0.3970179351    -0.0631603597
   36      C      -6.2493100384    -1.3552027676    -1.1328406987
   37      C      -4.8093985967    -1.5782728602    -0.5204746498
   38      O      -5.0322378024    -1.5318665331     0.9413279018
   39      H      -5.1157924683     1.5538951178    -0.3316322915
   40      H      -3.9947643658     0.0643613436    -1.8323414818
   41      H      -1.0512457088     1.8359263111     1.9889676785
   42      H      -5.9447938249     0.1100056011     1.9619084564
   43      H      -7.7417778735    -0.8783602311     0.4502303070
   44      H      -7.2371304893     0.5559999502    -0.4965661565
   45      H      -6.7902185268    -2.3124607556    -1.1993317220
   46      H      -6.2055313578    -0.9038206508    -2.1370117505
   47      H      -4.3170882848    -2.5267317328    -0.8111231947
   48      H      -2.0783605172     3.3004772083     2.1986526289
   49      H      -0.8972146363     3.2160556803     0.8297846499
   50      H       1.9713968280     1.6553328435    -3.5598631174
   51      H       2.9838944792     2.9757731150    -2.8504890787
   52      H       1.6174218599     2.2891276785    -1.9021584282
   53      H       0.3197257222     0.9704435468    -0.4008885923
   54      H      -0.1532323770    -0.4632639979     0.5624728671
   55      H       0.0987646735    -0.3130721354    -2.5196693257
   56      H       0.0686221341    -1.8703349522    -1.6360828242
 ----------------------------------------------------------------

    9   -1510.2698068160      2.39E-09 Convergence criterion met
 Total energy in the final basis set = -1510.26980682
 Final energy is   -1510.26980681597
 **  OPTIMIZATION CONVERGED  **

                    Orbital Energies (a.u.)
 --------------------------------------------------------------

 Alpha MOs
 -- Occupied --
-18.941 -18.938 -18.932 -18.927 -18.887 -18.886 -18.882 -18.880
-18.872 -18.871 -10.109 -10.103 -10.103 -10.096 -10.073 -10.069
-10.061 -10.061 -10.059 -10.059 -10.057 -10.057 -10.038 -10.038
-10.036 -10.035 -10.021 -10.019 -10.019 -10.018  -1.017  -1.015
 -1.005  -1.003  -0.970  -0.968  -0.944  -0.940  -0.937  -0.932
 -0.764  -0.762  -0.729  -0.722  -0.713  -0.704  -0.694  -0.666
 -0.659  -0.623  -0.597  -0.588  -0.547  -0.546  -0.537  -0.536
 -0.513  -0.510  -0.482  -0.473  -0.465  -0.458  -0.455  -0.443
 -0.439  -0.431  -0.430  -0.416  -0.410  -0.408  -0.408  -0.391
 -0.383  -0.380  -0.377  -0.367  -0.364  -0.361  -0.356  -0.350
 -0.347  -0.345  -0.333  -0.332  -0.329  -0.327  -0.326  -0.311
 -0.309  -0.305  -0.304  -0.298  -0.297  -0.294  -0.284  -0.278
 -0.275  -0.263  -0.255  -0.251  -0.234  -0.232  -0.229  -0.183
 -0.181  -0.177  -0.172  -0.159  -0.154  -0.149  -0.145  -0.142
 -0.140

          Ground-State Mulliken Net Atomic Charges

     Atom                 Charge (a.u.)
  ----------------------------------------
      1 O                    -0.209122
      2 C                     0.215340
      3 C                    -0.079569
      4 C                    -0.077403
      5 C                     0.218767
      6 O                    -0.170762
      7 C                    -0.053723
      8 C                    -0.069171
      9 O                    -0.171277
     10 C                     0.216009
     11 C                    -0.078716
     12 C                    -0.078114
     13 C                     0.214963
     14 O                    -0.209823
     15 O                    -0.178763
     16 O                    -0.172075
     17 O                    -0.218762
     18 C                    -0.128206
     19 C                     0.026563
     20 C                    -0.143765
     21 C                    -0.144316
     22 C                     0.024361
     23 O                    -0.185518
     24 H                     0.083780
     25 H                     0.084909
     26 H                     0.083979
     27 H                     0.078102
     28 H                     0.073329
     29 H                     0.078256
     30 H                     0.072684
     31 H                     0.089801
     32 O                    -0.211493
     33 C                    -0.130139
     34 C                     0.024485
     35 C                    -0.143497
     36 C                    -0.144048
     37 C                     0.025388
     38 O                    -0.187014
     39 H                     0.083760
     40 H                     0.086664
     41 H                     0.093104
     42 H                     0.091521
     43 H                     0.078358
     44 H                     0.072981
     45 H                     0.078459
     46 H                     0.073711
     47 H                     0.083055
     48 H                     0.090493
     49 H                     0.087139
     50 H                     0.091400
     51 H                     0.089708
     52 H                     0.087672
     53 H                     0.077124
     54 H                     0.116455
     55 H                     0.090527
     56 H                     0.102425
  ----------------------------------------
  Sum of atomic charges =     0.000000

                    Cartesian Multipole Moments
 -----------------------------------------------------------------
    Charge (ESU x 10^10)
                 0.0000
    Dipole Moment (Debye)
         X       0.5978      Y       0.6536      Z      -2.9926
       Tot       3.1209
    Quadrupole Moments (Debye-Ang)
        XX    -137.8447     XY      -6.4194     YY    -158.9189
        XZ       9.2898     YZ      -4.2961     ZZ    -167.2888

 Total job time:  59.05s(wall), 2806.99s(cpu)
        *  Thank you very much for using Q-Chem.  Have a nice day.  *
