 Q-Chem 5.0, Q-Chem, Inc., Pleasanton, CA (2017)
 Q-Chem 5.0.1 for Intel X86 EM64T Linux

User input:
--------------------------------------------------------------
$molecule
0  1
O -3.7406449469 1.4174262427 2.5002028861
C -3.6301378526 1.3879679489 1.2571631774
C -4.6206126647 0.7371295324 0.2253777104
C -3.9343282357 -0.2735915082 -0.7835420247
C -2.4332446942 -0.543599404 -0.4128050254
O -1.7269409521 -0.7506562154 -1.6294515931
C -0.2329409555 -0.8036086647 -1.5817106138
C 0.4377702456 -0.1317794569 -0.3214019683
O 1.8742066184 -0.3760162938 -0.0331290794
C 2.6316918371 -1.1931853245 -0.9240552054
C 4.0959223031 -1.2184440558 -0.3530617631
C 4.8151919197 0.1957971793 -0.3741032448
C 3.8969004796 1.3680054587 -0.8723892713
O 3.7141795282 2.4769642597 -0.3289896019
O -2.5978310698 2.059251271 0.5180269329
O 3.3086718434 0.9777476173 -2.1219081565
O 2.2198976528 -1.8317252626 -1.9157170785
C 2.4197267105 2.0469126744 -2.6281574386
C 4.1462823139 -1.5467371779 1.2030301909
C 5.6234743204 -1.9754296656 1.5659810131
C 6.3614333753 -0.5851030076 1.524991276
C 5.16943021 0.3821896956 1.157707298
O 4.0049591151 -0.2219614481 1.846534047
H 4.6629513364 -1.9592867053 -0.9434377786
H 5.7194941948 0.1685056418 -1.0098148099
H 3.3541357408 -2.2358126035 1.5545797799
H 5.6561450659 -2.4206108566 2.5731940535
H 6.0365015796 -2.6996677959 0.8457464158
H 6.780703662 -0.3215066335 2.5089137507
H 7.1701449627 -0.5541224593 0.7770285313
H 5.2908106748 1.4403693614 1.4608404594
O -1.9948003377 -0.6501092385 0.7589244604
C -1.6029490965 2.6341186285 1.4508038013
C -5.6848731265 -0.2008310038 0.9312446763
C -6.894001583 -0.3970179351 -0.0631603597
C -6.2493100384 -1.3552027676 -1.1328406987
C -4.8093985967 -1.5782728602 -0.5204746498
O -5.0322378024 -1.5318665331 0.9413279018
H -5.1157924683 1.5538951178 -0.3316322915
H -3.9947643658 0.0643613436 -1.8323414818
H -1.0512457088 1.8359263111 1.9889676785
H -5.9447938249 0.1100056011 1.9619084564
H -7.7417778735 -0.8783602311 0.450230307
H -7.2371304893 0.5559999502 -0.4965661565
H -6.7902185268 -2.3124607556 -1.199331722
H -6.2055313578 -0.9038206508 -2.1370117505
H -4.3170882848 -2.5267317328 -0.8111231947
H -2.0783605172 3.3004772083 2.1986526289
H -0.8972146363 3.2160556803 0.8297846499
H 1.971396828 1.6553328435 -3.5598631174
H 2.9838944792 2.975773115 -2.8504890787
H 1.6174218599 2.2891276785 -1.9021584282
H 0.3197257222 0.9704435468 -0.4008885923
H -0.153232377 -0.4632639979 0.5624728671
H 0.0987646735 -0.3130721354 -2.5196693257
H 0.0686221341 -1.8703349522 -1.6360828242
$end

$rem
JOBTYPE                   OPT
METHOD                    B3LYP
DFT_D                     d3_op
BASIS                     STO-3G
GEOM_OPT_MAX_CYCLES       100
GEOM_OPT_TOL_GRADIENT     300
GEOM_OPT_TOL_DISPLACEMENT 1200
GEOM_OPT_TOL_ENERGY       100
SYMMETRY                  False
THRESH                    12
SCF_CONVERGENCE           8
MAX_SUB_FILE_NUM          128
MEM_STATIC                400
MEM_TOTAL                 4000
$end
--------------------------------------------------------------

   16   -1510.2700738006      4.43E-09 Convergence criterion met
 Total energy in the final basis set = -1510.27007380
   14   -1510.2716512294      3.18E-09 Convergence criterion met
 Total energy in the final basis set = -1510.27165123
   14   -1510.2735008501      4.32E-09 Convergence criterion met
 Total energy in the final basis set = -1510.27350085
   13   -1510.2754996778      5.03E-09 Convergence criterion met
 Total energy in the final basis set = -1510.27549968
   13   -1510.2773675964      6.23E-09 Convergence criterion met
 Total energy in the final basis set = -1510.27736760
   13   -1510.2789008474      3.03E-09 Convergence criterion met
 Total energy in the final basis set = -1510.27890085
   13   -1510.2802081225      3.76E-09 Convergence criterion met
 Total energy in the final basis set = -1510.28020812
   13   -1510.2811932959      3.68E-09 Convergence criterion met
   11   -1510.3039846740      4.68E-09 Convergence criterion met
 Total energy in the final basis set = -1510.30398467
   11   -1510.3040023548      4.21E-09 Convergence criterion met
 Total energy in the final basis set = -1510.30400235
   11   -1510.3039971795      5.19E-09 Convergence criterion met
 Total energy in the final basis set = -1510.30399718
   11   -1510.3040073135      3.03E-09 Convergence criterion met
 Total energy in the final basis set = -1510.30400731
   10   -1510.3040038574      9.64E-09 Convergence criterion met
 Total energy in the final basis set = -1510.30400386
   10   -1510.3040061603      7.14E-09 Convergence criterion met
 Total energy in the final basis set = -1510.30400616

             Standard Nuclear Orientation (Angstroms)
    I     Atom           X                Y                Z
 ----------------------------------------------------------------
    1      O      -2.1140547182     2.7805962120     0.8415249155
    2      C      -1.8797916272     1.6321382970     0.4018484418
    3      C      -2.6345826022     0.9431450851    -0.7906953510
    4      C      -2.8746858091    -0.6182551947    -0.6619181439
    5      C      -2.1799053244    -1.3254139725     0.5524186586
    6      O      -1.0809831826    -2.0854640722     0.0102125090
    7      C      -0.3615740830    -2.8636864967     1.0378834948
    8      C       0.5301199240    -1.9750378752     1.9779628266
    9      O       1.4041586510    -1.0365966746     1.2383470124
   10      C       2.6574476447    -1.6465703886     0.9090280934
   11      C       3.6285454484    -0.5344744284     0.3818150916
   12      C       3.0484636980     0.3732357688    -0.7832442320
   13      C       1.6568232106    -0.0933079020    -1.3410606957
   14      O       0.6097724310     0.5792077814    -1.4506446725
   15      O      -0.8494629855     0.7754798881     0.8825849220
   16      O       1.8225102859    -1.4379333562    -1.7915658738
   17      O       2.9254724691    -2.8522231980     1.1029099608
   18      C       0.5510899944    -1.9485161635    -2.3616493688
   19      C       3.8834381174     0.5693074171     1.4984196183
   20      C       5.1107391363     1.4620563657     1.0576654106
   21      C       4.4497878921     2.3812979371    -0.0384604633
   22      C       2.9891194656     1.7920997735    -0.0839251507
   23      O       2.7271477015     1.4807546001     1.3418461522
   24      H       4.5669549892    -1.0305071892     0.0786178059
   25      H       3.7567933898     0.3846610526    -1.6321930270
   26      H       3.9299031982     0.1789227387     2.5337667937
   27      H       5.4849953549     2.0518282947     1.9093297296
   28      H       5.9373525217     0.8533347901     0.6580618066
   29      H       4.4284660398     3.4352072665     0.2821188122
   30      H       4.9583695251     2.3179255607    -1.0135356014
   31      H       2.2003464257     2.4596899373    -0.4824918976
   32      O      -2.5327540573    -1.3762735738     1.7481610122
   33      C      -0.1186357435     1.4197729741     2.0044422393
   34      C      -4.1259069999     1.4722445781    -0.8426823299
   35      C      -4.7710391642     1.0776549725    -2.2287636361
   36      C      -5.0457716305    -0.4572322090    -2.0131305389
   37      C      -4.4628611171    -0.6657491715    -0.5596046274
   38      O      -4.8145078080     0.5928827008     0.1328405312
   39      H      -2.0737987031     1.1691116450    -1.7171963614
   40      H      -2.5227180298    -1.1278043635    -1.5752127828
   41      H      -0.3775038545     0.8977278009     2.9463410549
   42      H      -4.2252902983     2.5345317818    -0.5456343897
   43      H      -5.7056288558     1.6362542105    -2.3960824239
   44      H      -4.0878459499     1.2710382694    -3.0711264282
   45      H      -6.1246575799    -0.6801438373    -2.0284088967
   46      H      -4.5430919687    -1.0911742624    -2.7608622625
   47      H      -4.8631345209    -1.5374107340    -0.0064826364
   48      H      -0.4359682890     2.4783442051     2.0780028390
   49      H       0.9757567678     1.3340944014     1.7972337485
   50      H       0.7793781478    -2.9581554456    -2.7482961964
   51      H       0.1978713488    -1.3055636292    -3.1925557809
   52      H      -0.2270358849    -2.0006896594    -1.5624971288
   53      H      -0.1258278080    -1.3438212180     2.6084278705
   54      H       1.1356538266    -2.6508296692     2.6198596521
   55      H       0.2754749404    -3.5734422512     0.4727168125
   56      H      -1.0766162248    -3.4317528128     1.6725581870
 ----------------------------------------------------------------

    9   -1510.3040062765      5.51E-09 Convergence criterion met
 Total energy in the final basis set = -1510.30400628
 Final energy is   -1510.30400627647
 **  OPTIMIZATION CONVERGED  **

                    Orbital Energies (a.u.)
 --------------------------------------------------------------

 Alpha MOs
 -- Occupied --
-18.938 -18.937 -18.925 -18.922 -18.907 -18.882 -18.877 -18.875
-18.870 -18.859 -10.103 -10.103 -10.095 -10.087 -10.076 -10.072
-10.071 -10.066 -10.056 -10.051 -10.043 -10.040 -10.039 -10.033
-10.030 -10.028 -10.026 -10.022 -10.017 -10.015  -1.018  -1.010
 -1.003  -0.996  -0.983  -0.965  -0.942  -0.936  -0.930  -0.921
 -0.770  -0.758  -0.732  -0.721  -0.713  -0.707  -0.695  -0.653
 -0.640  -0.619  -0.599  -0.582  -0.552  -0.544  -0.539  -0.532
 -0.516  -0.504  -0.485  -0.468  -0.463  -0.454  -0.449  -0.442
 -0.440  -0.432  -0.426  -0.415  -0.409  -0.404  -0.399  -0.396
 -0.388  -0.379  -0.368  -0.364  -0.361  -0.357  -0.349  -0.346
 -0.342  -0.336  -0.336  -0.333  -0.328  -0.325  -0.321  -0.315
 -0.310  -0.305  -0.302  -0.299  -0.291  -0.289  -0.285  -0.276
 -0.266  -0.259  -0.249  -0.242  -0.240  -0.229  -0.228  -0.190
 -0.174  -0.167  -0.163  -0.158  -0.153  -0.150  -0.147  -0.142
 -0.138

          Ground-State Mulliken Net Atomic Charges

     Atom                 Charge (a.u.)
  ----------------------------------------
      1 O                    -0.219536
      2 C                     0.215698
      3 C                    -0.076353
      4 C                    -0.079484
      5 C                     0.224416
      6 O                    -0.173962
      7 C                    -0.048029
      8 C                    -0.050668
      9 O                    -0.167444
     10 C                     0.211131
     11 C                    -0.077512
     12 C                    -0.078897
     13 C                     0.213925
     14 O                    -0.212970
     15 O                    -0.168399
     16 O                    -0.177453
     17 O                    -0.215073
     18 C                    -0.150137
     19 C                     0.027912
     20 C                    -0.143488
     21 C                    -0.142706
     22 C                     0.026493
     23 O                    -0.185142
     24 H                     0.087254
     25 H                     0.085040
     26 H                     0.084732
     27 H                     0.080025
     28 H                     0.076068
     29 H                     0.080209
     30 H                     0.075484
     31 H                     0.093982
     32 O                    -0.213570
     33 C                    -0.153566
     34 C                     0.023446
     35 C                    -0.144688
     36 C                    -0.143436
     37 C                     0.025014
     38 O                    -0.188791
     39 H                     0.092243
     40 H                     0.084331
     41 H                     0.071314
     42 H                     0.091296
     43 H                     0.077443
     44 H                     0.073174
     45 H                     0.077117
     46 H                     0.072001
     47 H                     0.082899
     48 H                     0.091450
     49 H                     0.117999
     50 H                     0.079890
     51 H                     0.076575
     52 H                     0.113724
     53 H                     0.100372
     54 H                     0.092288
     55 H                     0.094639
     56 H                     0.091721
  ----------------------------------------
  Sum of atomic charges =    -0.000000

                    Cartesian Multipole Moments
 -----------------------------------------------------------------
    Charge (ESU x 10^10)
                -0.0000
    Dipole Moment (Debye)
         X       2.7312      Y      -1.0966      Z      -2.0600
       Tot       3.5924
    Quadrupole Moments (Debye-Ang)
        XX    -153.8510     XY      12.4587     YY    -162.8609
        XZ      10.2889     YZ      -2.8546     ZZ    -155.3561

 Total job time:  207.85s(wall), 9904.90s(cpu)
        *  Thank you very much for using Q-Chem.  Have a nice day.  *
