 Q-Chem 5.0, Q-Chem, Inc., Pleasanton, CA (2017)
 Q-Chem 5.0.1 for Intel X86 EM64T Linux

User input:
--------------------------------------------------------------
$molecule
0  1
O -3.94934 -3.66094 2.70899
C -3.26408 -4.56952 2.26188
C -3.36658 -6.02376 2.66595
C -2.15427 -6.92213 2.37085
C -0.90786 -6.22884 1.86695
O -0.00381 -7.15652 1.43391
C 1.10381 -6.57957 0.73422
C 0.76005 -6.40502 -0.74141
O 1.07213 -5.06756 -1.16174
C 1.29159 -4.17828 -0.16166
C 1.6189 -2.79335 -0.66713
C 2.76846 -2.73008 -1.68339
C 3.17374 -4.05114 -2.3057
O 3.32175 -4.25535 -3.50192
O -2.76225 -4.38334 1.01203
O 3.68213 -4.97231 -1.44101
O 0.54383 -4.09405 0.78532
C 4.2721 -6.16032 -1.82087
C 0.50251 -2.10384 -1.47819
C 0.67575 -0.58825 -1.40392
C 1.92049 -0.40571 -2.2482
C 2.11894 -1.83876 -2.75826
O 0.81659 -2.36603 -2.82428
H 1.85594 -2.16425 0.22414
H 3.69019 -2.29516 -1.23763
H -0.51276 -2.38414 -1.15142
H -0.18935 -0.14131 -1.94491
H 0.72781 -0.15494 -0.38197
H 1.679 0.28934 -3.0827
H 2.81853 -0.04811 -1.69914
H 2.69255 -1.82908 -3.7108
O -0.52747 -5.26308 2.51363
C -2.84047 -3.20596 0.30047
C -3.45142 -6.18823 4.1993
C -4.09889 -7.52899 4.54568
C -2.98349 -8.4846 4.17777
C -1.88876 -7.49089 3.77779
O -2.12011 -6.38036 4.60909
H -4.30566 -6.40898 2.20901
H -2.40946 -7.71626 1.63313
H -2.26912 -2.40561 0.8173
H -4.00185 -5.36321 4.70206
H -4.23539 -7.55553 5.65066
H -5.0749 -7.7226 4.05096
H -2.68144 -9.04142 5.0927
H -3.21873 -9.19854 3.35896
H -0.88577 -7.96429 3.86295
H -3.90134 -2.89837 0.18121
H -2.42576 -3.37767 -0.71045
H 4.57781 -6.72047 -0.91359
H 5.1732 -5.9588 -2.43844
H 3.55502 -6.77885 -2.40055
H 1.37941 -7.09328 -1.35752
H -0.30293 -6.63835 -0.96644
H 1.81956 -7.42967 0.69217
H 1.7822 -5.95092 1.35397
$end

$opt
CONSTRAINT
tors           1           2           3           4    -160.041
tors           3           4           5           6    -169.657
tors           4           5           6           7    +169.960
tors           5           6           7           8     -86.297
tors           6           7           8           9    +130.147
tors           7           8           9          10     -14.592
tors           8           9          10          11    +179.807
tors           9          10          11          12     -52.873
tors          11          12          13          14    +130.736
ENDCONSTRAINT
$end

$rem
JOBTYPE                   OPT
METHOD                    B3LYP
DFT_D                     d3_op
BASIS                     STO-3G
GEOM_OPT_MAX_CYCLES       100
GEOM_OPT_TOL_GRADIENT     300
GEOM_OPT_TOL_DISPLACEMENT 1200
GEOM_OPT_TOL_ENERGY       100
SYMMETRY                  False
THRESH                    12
SCF_CONVERGENCE           8
MAX_SUB_FILE_NUM          128
MEM_STATIC                400
MEM_TOTAL                 4000
$end
--------------------------------------------------------------

   16   -1510.0469007843      3.45E-09 Convergence criterion met
 Total energy in the final basis set = -1510.04690078
   15   -1510.1295603632      3.39E-09 Convergence criterion met
 Total energy in the final basis set = -1510.12956036
   14   -1510.1812389730      7.20E-09 Convergence criterion met
 Total energy in the final basis set = -1510.18123897
   14   -1510.2122579248      8.32E-09 Convergence criterion met
 Total energy in the final basis set = -1510.21225792
   14   -1510.2306838842      5.27E-09 Convergence criterion met
 Total energy in the final basis set = -1510.23068388
   13   -1510.2426556807      9.44E-09 Convergence criterion met
 Total energy in the final basis set = -1510.24265568
   13   -1510.2510356793      5.98E-09 Convergence criterion met
 Total energy in the final basis set = -1510.25103568
    2   -1510.2510356792      7.02E-09 Convergence criterion met
   11   -1510.2701757563      6.94E-09 Convergence criterion met
 Total energy in the final basis set = -1510.27017576
   11   -1510.2702069220      4.62E-09 Convergence criterion met
 Total energy in the final basis set = -1510.27020692
   10   -1510.2702272708      7.73E-09 Convergence criterion met
 Total energy in the final basis set = -1510.27022727
   10   -1510.2702381883      9.44E-09 Convergence criterion met
 Total energy in the final basis set = -1510.27023819
    9   -1510.2702407015      7.43E-09 Convergence criterion met
 Total energy in the final basis set = -1510.27024070
    9   -1510.2702417826      3.02E-09 Convergence criterion met
 Total energy in the final basis set = -1510.27024178

             Standard Nuclear Orientation (Angstroms)
    I     Atom           X                Y                Z
 ----------------------------------------------------------------
    1      O       3.3908123587    -2.8938234367     0.3555141342
    2      C       3.1374476723    -1.8125575581    -0.2176197777
    3      C       4.1487139669    -0.6489575565    -0.5136661832
    4      C       3.5238226975     0.7702260218    -0.7931860844
    5      C       2.1482513788     0.9707314245    -0.0571031472
    6      O       1.5543129428     2.1733222615    -0.5630154886
    7      C       0.1518103284     2.3170509372    -0.1045277663
    8      C      -0.8166331738     1.5459915390    -1.0972211177
    9      O      -1.8298920417     0.5977513516    -0.5558662584
   10      C      -1.7268268948     0.1500251456     0.7937822117
   11      C      -2.9418382764    -0.8190598508     1.0263834009
   12      C      -4.3381641061    -0.1747913751     0.6370121557
   13      C      -4.2383693806     1.3178091015     0.1597658813
   14      O      -4.7369536838     1.8302399022    -0.8634655319
   15      O       1.9397895670    -1.5784752771    -0.9759395005
   16      O      -3.5166526461     2.0515474130     1.1616034655
   17      O      -0.8795786708     0.4680443171     1.6605425052
   18      C      -3.3921013468     3.4714934375     0.7654241746
   19      C      -2.9166587845    -2.0615106318     0.0349258203
   20      C      -3.9543880058    -3.1356902244     0.5532754895
   21      C      -5.3170319527    -2.4841130701     0.1095809763
   22      C      -4.8105479064    -1.1348199606    -0.5324123671
   23      O      -3.5443906411    -1.5283394373    -1.1942918478
   24      H      -2.9163085717    -1.1342544644     2.0840129721
   25      H      -5.0335423538    -0.2106595831     1.4962212882
   26      H      -1.9052592531    -2.4534098683    -0.1834354672
   27      H      -3.7876270932    -4.1043834875     0.0558904680
   28      H      -3.8873582381    -3.2819787583     1.6431715990
   29      H      -5.8298679210    -3.0996103673    -0.6466767037
   30      H      -6.0059025429    -2.3145770521     0.9523839825
   31      H      -5.4948742882    -0.6532976074    -1.2578985003
   32      O       1.6764055391     0.2765187910     0.8670102260
   33      C       0.9783358748    -2.6815571916    -0.7661312230
   34      C       5.2064307511    -0.3221022961     0.6259719658
   35      C       6.5116392871     0.1836229152    -0.0995891177
   36      C       6.0060514363     1.5626662591    -0.6696921044
   37      C       4.5742263619     1.6724596563    -0.0059450734
   38      O       4.7012673333     0.9166605353     1.2650740631
   39      H       4.6928344876    -0.9769336766    -1.4205020395
   40      H       3.4351354428     1.0152832475    -1.8653737499
   41      H       0.5814598022    -2.6741400550     0.2702100732
   42      H       5.3438345387    -1.1273236210     1.3736621661
   43      H       7.3241151510     0.3264334287     0.6308371310
   44      H       6.8563572124    -0.5064919551    -0.8862200689
   45      H       6.6482911371     2.3978939402    -0.3489809994
   46      H       5.9458226257     1.5673096427    -1.7700507073
   47      H       4.2237834849     2.7047471819     0.1894065877
   48      H       1.4383861322    -3.6717701463    -0.9605851203
   49      H       0.1513085565    -2.5070162788    -1.4793322717
   50      H      -2.7663785912     3.9510756610     1.5404650728
   51      H      -4.3810904614     3.9724276548     0.7254450182
   52      H      -2.9052467577     3.5794380126    -0.2247002314
   53      H      -1.4063026659     2.2650751345    -1.7040509036
   54      H      -0.1811343137     0.9619453844    -1.8017260795
   55      H      -0.0724463124     3.4001699167    -0.1012955506
   56      H       0.0114911893     1.8572359664     0.9030628076
 ----------------------------------------------------------------

    9   -1510.2702424117      4.74E-09 Convergence criterion met
 Total energy in the final basis set = -1510.27024241
 Final energy is   -1510.27024241170
 **  OPTIMIZATION CONVERGED  **

                    Orbital Energies (a.u.)
 --------------------------------------------------------------

 Alpha MOs
 -- Occupied --
-18.937 -18.934 -18.927 -18.924 -18.888 -18.884 -18.883 -18.877
-18.873 -18.869 -10.107 -10.101 -10.096 -10.094 -10.072 -10.067
-10.061 -10.060 -10.058 -10.058 -10.056 -10.054 -10.038 -10.036
-10.035 -10.034 -10.021 -10.020 -10.019 -10.018  -1.017  -1.009
 -1.005  -1.000  -0.970  -0.967  -0.943  -0.938  -0.933  -0.928
 -0.764  -0.761  -0.728  -0.721  -0.711  -0.703  -0.693  -0.665
 -0.659  -0.619  -0.597  -0.584  -0.547  -0.543  -0.538  -0.535
 -0.513  -0.507  -0.479  -0.475  -0.465  -0.457  -0.454  -0.444
 -0.436  -0.431  -0.430  -0.415  -0.409  -0.408  -0.405  -0.394
 -0.388  -0.377  -0.376  -0.368  -0.362  -0.356  -0.352  -0.350
 -0.343  -0.340  -0.336  -0.332  -0.328  -0.326  -0.319  -0.311
 -0.310  -0.306  -0.304  -0.297  -0.295  -0.291  -0.283  -0.277
 -0.271  -0.257  -0.255  -0.247  -0.235  -0.232  -0.231  -0.179
 -0.179  -0.176  -0.165  -0.157  -0.152  -0.148  -0.144  -0.142
 -0.139

          Ground-State Mulliken Net Atomic Charges

     Atom                 Charge (a.u.)
  ----------------------------------------
      1 O                    -0.215244
      2 C                     0.215787
      3 C                    -0.079607
      4 C                    -0.076407
      5 C                     0.216376
      6 O                    -0.180056
      7 C                    -0.073634
      8 C                    -0.053131
      9 O                    -0.171093
     10 C                     0.221352
     11 C                    -0.077599
     12 C                    -0.078118
     13 C                     0.215693
     14 O                    -0.212386
     15 O                    -0.173758
     16 O                    -0.174364
     17 O                    -0.199619
     18 C                    -0.128721
     19 C                     0.025151
     20 C                    -0.144210
     21 C                    -0.143722
     22 C                     0.024580
     23 O                    -0.186962
     24 H                     0.086288
     25 H                     0.084772
     26 H                     0.080297
     27 H                     0.077608
     28 H                     0.074413
     29 H                     0.078093
     30 H                     0.073393
     31 H                     0.090251
     32 O                    -0.202951
     33 C                    -0.129281
     34 C                     0.024677
     35 C                    -0.141581
     36 C                    -0.145438
     37 C                     0.023929
     38 O                    -0.189800
     39 H                     0.082879
     40 H                     0.086039
     41 H                     0.088710
     42 H                     0.090312
     43 H                     0.078001
     44 H                     0.073132
     45 H                     0.077948
     46 H                     0.073067
     47 H                     0.084232
     48 H                     0.090322
     49 H                     0.088600
     50 H                     0.091743
     51 H                     0.088619
     52 H                     0.086247
     53 H                     0.086754
     54 H                     0.089535
     55 H                     0.081491
     56 H                     0.127392
  ----------------------------------------
  Sum of atomic charges =     0.000000

                    Cartesian Multipole Moments
 -----------------------------------------------------------------
    Charge (ESU x 10^10)
                 0.0000
    Dipole Moment (Debye)
         X      -0.7757      Y       0.6132      Z      -1.2739
       Tot       1.6126
    Quadrupole Moments (Debye-Ang)
        XX    -148.5302     XY       6.8566     YY    -152.1558
        XZ     -16.9643     YZ       0.4458     ZZ    -165.8596

 Total job time:  73.33s(wall), 3491.98s(cpu)
        *  Thank you very much for using Q-Chem.  Have a nice day.  *
