 Q-Chem 5.0, Q-Chem, Inc., Pleasanton, CA (2017)
 Q-Chem 5.0.1 for Intel X86 EM64T Linux

User input:
--------------------------------------------------------------
$molecule
0  1
O 3.3908123587 -2.8938234367 0.3555141342
C 3.1374476723 -1.8125575581 -0.2176197777
C 4.1487139669 -0.6489575565 -0.5136661832
C 3.5238226975 0.7702260218 -0.7931860844
C 2.1482513788 0.9707314245 -0.0571031472
O 1.5543129428 2.1733222615 -0.5630154886
C 0.1518103284 2.3170509372 -0.1045277663
C -0.8166331738 1.545991539 -1.0972211177
O -1.8298920417 0.5977513516 -0.5558662584
C -1.7268268948 0.1500251456 0.7937822117
C -2.9418382764 -0.8190598508 1.0263834009
C -4.3381641061 -0.1747913751 0.6370121557
C -4.2383693806 1.3178091015 0.1597658813
O -4.7369536838 1.8302399022 -0.8634655319
O 1.939789567 -1.5784752771 -0.9759395005
O -3.5166526461 2.051547413 1.1616034655
O -0.8795786708 0.4680443171 1.6605425052
C -3.3921013468 3.4714934375 0.7654241746
C -2.9166587845 -2.0615106318 0.0349258203
C -3.9543880058 -3.1356902244 0.5532754895
C -5.3170319527 -2.4841130701 0.1095809763
C -4.8105479064 -1.1348199606 -0.5324123671
O -3.5443906411 -1.5283394373 -1.1942918478
H -2.9163085717 -1.1342544644 2.0840129721
H -5.0335423538 -0.2106595831 1.4962212882
H -1.9052592531 -2.4534098683 -0.1834354672
H -3.7876270932 -4.1043834875 0.055890468
H -3.8873582381 -3.2819787583 1.643171599
H -5.829867921 -3.0996103673 -0.6466767037
H -6.0059025429 -2.3145770521 0.9523839825
H -5.4948742882 -0.6532976074 -1.2578985003
O 1.6764055391 0.276518791 0.867010226
C 0.9783358748 -2.6815571916 -0.766131223
C 5.2064307511 -0.3221022961 0.6259719658
C 6.5116392871 0.1836229152 -0.0995891177
C 6.0060514363 1.5626662591 -0.6696921044
C 4.5742263619 1.6724596563 -0.0059450734
O 4.7012673333 0.9166605353 1.2650740631
H 4.6928344876 -0.9769336766 -1.4205020395
H 3.4351354428 1.0152832475 -1.8653737499
H 0.5814598022 -2.674140055 0.2702100732
H 5.3438345387 -1.127323621 1.3736621661
H 7.324115151 0.3264334287 0.630837131
H 6.8563572124 -0.5064919551 -0.8862200689
H 6.6482911371 2.3978939402 -0.3489809994
H 5.9458226257 1.5673096427 -1.7700507073
H 4.2237834849 2.7047471819 0.1894065877
H 1.4383861322 -3.6717701463 -0.9605851203
H 0.1513085565 -2.5070162788 -1.4793322717
H -2.7663785912 3.951075661 1.5404650728
H -4.3810904614 3.9724276548 0.7254450182
H -2.9052467577 3.5794380126 -0.2247002314
H -1.4063026659 2.2650751345 -1.7040509036
H -0.1811343137 0.9619453844 -1.8017260795
H -0.0724463124 3.4001699167 -0.1012955506
H 0.0114911893 1.8572359664 0.9030628076
$end

$rem
JOBTYPE                   OPT
METHOD                    B3LYP
DFT_D                     d3_op
BASIS                     STO-3G
GEOM_OPT_MAX_CYCLES       100
GEOM_OPT_TOL_GRADIENT     300
GEOM_OPT_TOL_DISPLACEMENT 1200
GEOM_OPT_TOL_ENERGY       100
SYMMETRY                  False
THRESH                    12
SCF_CONVERGENCE           8
MAX_SUB_FILE_NUM          128
MEM_STATIC                400
MEM_TOTAL                 4000
$end
--------------------------------------------------------------

   16   -1510.2702912501      5.56E-09 Convergence criterion met
 Total energy in the final basis set = -1510.27029125
   14   -1510.2734974966      4.61E-09 Convergence criterion met
 Total energy in the final basis set = -1510.27349750
   13   -1510.2755654610      8.96E-09 Convergence criterion met
 Total energy in the final basis set = -1510.27556546
   14   -1510.2772015754      3.07E-09 Convergence criterion met
 Total energy in the final basis set = -1510.27720158
   13   -1510.2784594320      8.20E-09 Convergence criterion met
 Total energy in the final basis set = -1510.27845943
   14   -1510.2797764754      2.91E-09 Convergence criterion met
 Total energy in the final basis set = -1510.27977648
   13   -1510.2805277483      4.36E-09 Convergence criterion met
 Total energy in the final basis set = -1510.28052775
   14   -1510.2814527271      3.03E-09 Convergence criterion met
   12   -1510.3041579606      3.46E-09 Convergence criterion met
 Total energy in the final basis set = -1510.30415796
   11   -1510.3041754816      6.62E-09 Convergence criterion met
 Total energy in the final basis set = -1510.30417548
   11   -1510.3041829080      3.98E-09 Convergence criterion met
 Total energy in the final basis set = -1510.30418291
   10   -1510.3041823417      7.67E-09 Convergence criterion met
 Total energy in the final basis set = -1510.30418234
   10   -1510.3041834444      8.92E-09 Convergence criterion met
 Total energy in the final basis set = -1510.30418344
    9   -1510.3041870080      7.61E-09 Convergence criterion met
 Total energy in the final basis set = -1510.30418701

             Standard Nuclear Orientation (Angstroms)
    I     Atom           X                Y                Z
 ----------------------------------------------------------------
    1      O      -1.0836916915    -2.3616666630     1.2618458052
    2      C      -1.6211827569    -1.2425463240     1.4099194620
    3      C      -3.0871280842    -0.8558386934     0.9935535719
    4      C      -3.2236129364     0.4537914252     0.1085602491
    5      C      -1.8661531064     1.1409521933    -0.2646984244
    6      O      -1.7706217587     2.3735777534     0.4552983006
    7      C      -0.5765223309     3.1445742777     0.0373440840
    8      C       0.7445318260     2.7179915063     0.7821481233
    9      O       1.2694816699     1.4014396744     0.3596446278
   10      C       1.8519035770     1.4913631536    -0.9499086928
   11      C       2.3765769440     0.0800530552    -1.3740838734
   12      C       3.5362330126    -0.5010026590    -0.4574046350
   13      C       3.7524228829     0.3336439725     0.8548143131
   14      O       3.6381089314    -0.0548467032     2.0359289430
   15      O      -1.0110248242    -0.1202666685     2.0403161394
   16      O       4.1237272135     1.6671573559     0.4779929933
   17      O       1.8951625243     2.5421595046    -1.6253035120
   18      C       4.2809864028     2.5070215292     1.6865935897
   19      C       1.2762098333    -1.0643227750    -1.2347305756
   20      C       1.7021754422    -2.2498400677    -2.1810610540
   21      C       2.9465082371    -2.8269446491    -1.4041002351
   22      C       2.9529387585    -1.9268205928    -0.1075703582
   23      O       1.5177756834    -1.6355944227     0.1113662586
   24      H       2.7194249724     0.1688972430    -2.4194991031
   25      H       4.4915222327    -0.5540486656    -1.0106884694
   26      H       0.2321004721    -0.6880548662    -1.3184130201
   27      H       0.8918347094    -2.9933043398    -2.2495252220
   28      H       1.9552527688    -1.9046652504    -3.1961598268
   29      H       2.8012594594    -3.8854106710    -1.1364645431
   30      H       3.8839626237    -2.7330434990    -1.9758302269
   31      H       3.3929215089    -2.3861208948     0.7988792591
   32      O      -1.0314807696     0.7610491884    -1.1167072479
   33      C       0.3632339554    -0.4857437778     2.4788303401
   34      C      -3.6988646201    -1.9485345984     0.0247598658
   35      C      -5.2680061024    -1.7846107321     0.0053536424
   36      C      -5.4230654376    -0.4757770616    -0.8555618437
   37      C      -3.9137659976    -0.1494956180    -1.1925899590
   38      O      -3.2855750324    -1.4823460911    -1.3205145696
   39      H      -3.6863094607    -0.7522138828     1.9173029625
   40      H      -3.8592089268     1.2056133072     0.6078311836
   41      H       0.9483732510    -0.8859788800     1.6116612223
   42      H      -3.3152929582    -2.9702173014     0.2136172203
   43      H      -5.7410921661    -2.6493683320    -0.4867387037
   44      H      -5.6880566441    -1.6803484453     1.0183595066
   45      H      -5.9909940015    -0.6632510260    -1.7807545012
   46      H      -5.9097649665     0.3426865548    -0.3013200148
   47      H      -3.7525815415     0.4442306625    -2.1133315193
   48      H       0.3251136798    -1.2407344119     3.2899395445
   49      H       0.8174967622     0.4426308390     2.8663292990
   50      H       4.4387341433     3.5395651607     1.3244362626
   51      H       5.1551878179     2.1903553947     2.2917573704
   52      H       3.3780253204     2.4679565577     2.3284831908
   53      H       1.5025836184     3.5133689887     0.6110700673
   54      H       0.5453647575     2.6229334960     1.8684084411
   55      H      -0.8013823989     4.1982804931     0.3006158603
   56      H      -0.4136371097     3.0639265258    -1.0581300788
 ----------------------------------------------------------------

    9   -1510.3041863978      3.12E-09 Convergence criterion met
 Total energy in the final basis set = -1510.30418640
 Final energy is   -1510.30418639776
 **  OPTIMIZATION CONVERGED  **

                    Orbital Energies (a.u.)
 --------------------------------------------------------------

 Alpha MOs
 -- Occupied --
-18.936 -18.935 -18.930 -18.915 -18.895 -18.883 -18.877 -18.876
-18.870 -18.858 -10.103 -10.100 -10.097 -10.083 -10.074 -10.072
-10.066 -10.058 -10.057 -10.052 -10.047 -10.038 -10.035 -10.032
-10.030 -10.020 -10.018 -10.016 -10.016 -10.013  -1.018  -1.012
 -1.003  -0.993  -0.971  -0.966  -0.938  -0.937  -0.933  -0.918
 -0.762  -0.758  -0.725  -0.719  -0.709  -0.701  -0.694  -0.664
 -0.637  -0.617  -0.594  -0.580  -0.545  -0.539  -0.533  -0.532
 -0.508  -0.505  -0.478  -0.474  -0.464  -0.452  -0.445  -0.440
 -0.429  -0.427  -0.425  -0.414  -0.414  -0.403  -0.399  -0.389
 -0.386  -0.374  -0.370  -0.367  -0.358  -0.355  -0.349  -0.346
 -0.342  -0.338  -0.335  -0.327  -0.325  -0.323  -0.318  -0.307
 -0.304  -0.302  -0.299  -0.294  -0.289  -0.286  -0.277  -0.271
 -0.266  -0.254  -0.251  -0.246  -0.242  -0.230  -0.223  -0.192
 -0.179  -0.165  -0.159  -0.156  -0.153  -0.148  -0.141  -0.141
 -0.136

          Ground-State Mulliken Net Atomic Charges

     Atom                 Charge (a.u.)
  ----------------------------------------
      1 O                    -0.210440
      2 C                     0.206618
      3 C                    -0.079214
      4 C                    -0.078951
      5 C                     0.219797
      6 O                    -0.167795
      7 C                    -0.052241
      8 C                    -0.048897
      9 O                    -0.172310
     10 C                     0.218359
     11 C                    -0.080316
     12 C                    -0.078908
     13 C                     0.213626
     14 O                    -0.210630
     15 O                    -0.177702
     16 O                    -0.172758
     17 O                    -0.217433
     18 C                    -0.128833
     19 C                     0.018762
     20 C                    -0.142129
     21 C                    -0.144015
     22 C                     0.027148
     23 O                    -0.182673
     24 H                     0.085528
     25 H                     0.085950
     26 H                     0.113109
     27 H                     0.082706
     28 H                     0.073642
     29 H                     0.079768
     30 H                     0.072382
     31 H                     0.090143
     32 O                    -0.220177
     33 C                    -0.147136
     34 C                     0.023370
     35 C                    -0.144064
     36 C                    -0.144108
     37 C                     0.025527
     38 O                    -0.188860
     39 H                     0.082755
     40 H                     0.085733
     41 H                     0.124403
     42 H                     0.091347
     43 H                     0.077385
     44 H                     0.072867
     45 H                     0.077290
     46 H                     0.072764
     47 H                     0.082063
     48 H                     0.073579
     49 H                     0.074956
     50 H                     0.090206
     51 H                     0.088112
     52 H                     0.089240
     53 H                     0.089498
     54 H                     0.091806
     55 H                     0.089167
     56 H                     0.099982
  ----------------------------------------
  Sum of atomic charges =     0.000000

                    Cartesian Multipole Moments
 -----------------------------------------------------------------
    Charge (ESU x 10^10)
                 0.0000
    Dipole Moment (Debye)
         X      -0.2034      Y       1.8146      Z       0.3494
       Tot       1.8591
    Quadrupole Moments (Debye-Ang)
        XX    -141.3164     XY      -1.6209     YY    -156.7513
        XZ      -1.7535     YZ       7.1896     ZZ    -161.7683

 Total job time:  193.26s(wall), 6715.65s(cpu)
        *  Thank you very much for using Q-Chem.  Have a nice day.  *
