 Q-Chem 5.0, Q-Chem, Inc., Pleasanton, CA (2017)
 Q-Chem 5.0.1 for Intel X86 EM64T Linux

User input:
--------------------------------------------------------------
$molecule
0  1
O -3.94934 -3.66094 2.70899
C -3.26408 -4.56952 2.26188
C -3.36658 -6.02376 2.66595
C -2.07434 -6.71771 3.12682
C -0.85954 -5.83356 3.30182
O 0.27657 -6.55401 3.06597
C 1.45245 -5.74142 2.98701
C 1.61812 -5.19251 1.57372
O 1.73786 -3.76184 1.61527
C 1.37912 -3.18045 2.78678
C 1.55561 -1.68064 2.7776
C 2.96515 -1.19248 3.14256
C 4.0571 -2.24287 3.11061
O 5.1633 -2.10033 2.61003
O -2.39299 -4.29642 1.25468
O 3.88397 -3.31272 3.93158
O 1.22796 -3.58529 3.92683
C 4.80057 -4.33051 4.09728
C 1.40392 -1.01846 1.38424
C 0.99611 0.44395 1.55279
C 2.27304 1.02737 2.12227
C 3.20487 -0.18569 2.00324
O 2.7156 -0.89331 0.89087
H 0.75255 -1.2482 3.4198
H 2.98555 -0.748 4.16157
H 0.67891 -1.53942 0.72177
H 0.84599 0.85007 0.52638
H 0.08009 0.63214 2.15301
H 2.60159 1.86107 1.46299
H 2.2074 1.37422 3.17645
H 4.26349 0.14918 1.94342
O -0.90492 -4.78143 3.91882
C -2.14961 -3.03401 0.7563
C -4.26478 -6.23258 3.89932
C -4.75072 -7.68187 3.96004
C -3.48549 -8.38367 4.40296
C -2.53259 -7.19251 4.52243
O -3.36528 -6.15201 4.97532
H -3.79571 -6.54541 1.7815
H -1.79994 -7.59464 2.49618
H -1.75179 -2.37724 1.55961
H -5.13574 -5.54243 3.93218
H -5.50453 -7.7664 4.77504
H -5.19023 -8.04847 3.00738
H -3.65754 -8.81108 5.41633
H -3.11464 -9.17745 3.71922
H -1.67732 -7.45462 5.18449
H -3.08332 -2.59853 0.34088
H -1.39477 -3.10283 -0.05361
H 4.399 -5.06726 4.82261
H 5.75709 -3.92634 4.49195
H 4.97836 -4.84364 3.12799
H 2.56963 -5.55888 1.12112
H 0.79561 -5.49485 0.88988
H 2.17869 -6.57721 2.87957
H 2.00863 -5.57323 3.93596
$end

$opt
CONSTRAINT
tors           1           2           3           4    -126.587
tors           3           4           5           6    -150.676
tors           4           5           6           7    +169.960
tors           5           6           7           8     -85.011
tors           6           7           8           9    +125.690
tors           7           8           9          10     -14.592
tors           8           9          10          11    +178.748
tors           9          10          11          12     -85.505
tors          11          12          13          14    +134.890
ENDCONSTRAINT
$end

$rem
JOBTYPE                   OPT
METHOD                    B3LYP
DFT_D                     d3_op
BASIS                     STO-3G
GEOM_OPT_MAX_CYCLES       100
GEOM_OPT_TOL_GRADIENT     300
GEOM_OPT_TOL_DISPLACEMENT 1200
GEOM_OPT_TOL_ENERGY       100
SYMMETRY                  False
THRESH                    12
SCF_CONVERGENCE           8
MAX_SUB_FILE_NUM          128
MEM_STATIC                400
MEM_TOTAL                 4000
$end
--------------------------------------------------------------

   16   -1510.0576189747      1.74E-09 Convergence criterion met
 Total energy in the final basis set = -1510.05761897
   15   -1510.1359294537      2.63E-09 Convergence criterion met
 Total energy in the final basis set = -1510.13592945
   14   -1510.1876982803      7.99E-09 Convergence criterion met
 Total energy in the final basis set = -1510.18769828
   13   -1510.2171455653      9.83E-09 Convergence criterion met
 Total energy in the final basis set = -1510.21714557
   13   -1510.2353570595      6.02E-09 Convergence criterion met
 Total energy in the final basis set = -1510.23535706
   13   -1510.2472961322      8.36E-09 Convergence criterion met
 Total energy in the final basis set = -1510.24729613
   12   -1510.2559664904      9.41E-09 Convergence criterion met
 Total energy in the final basis set = -1510.25596649
   13   -1510.2624084701      7.07E-09 Convergence criterion met
   11   -1510.2738824496      3.93E-09 Convergence criterion met
 Total energy in the final basis set = -1510.27388245
   10   -1510.2738890592      7.65E-09 Convergence criterion met
 Total energy in the final basis set = -1510.27388906
   10   -1510.2738982804      9.94E-09 Convergence criterion met
 Total energy in the final basis set = -1510.27389828
    9   -1510.2739028096      3.47E-09 Convergence criterion met
 Total energy in the final basis set = -1510.27390281
    9   -1510.2739049318      5.72E-09 Convergence criterion met
 Total energy in the final basis set = -1510.27390493
    9   -1510.2739065845      2.71E-09 Convergence criterion met
 Total energy in the final basis set = -1510.27390658

             Standard Nuclear Orientation (Angstroms)
    I     Atom           X                Y                Z
 ----------------------------------------------------------------
    1      O       2.9174276735     2.4456490219    -0.9979857980
    2      C       2.9620734895     1.6743330475    -0.0178855046
    3      C       4.1426862749     0.7308656045     0.4117486324
    4      C       3.7123654268    -0.7801658675     0.6092663653
    5      C       2.2520690867    -1.0403867782     0.1009888158
    6      O       1.6944194094    -2.1056488115     0.8723845833
    7      C       0.2385909629    -2.2830485288     0.6433849176
    8      C      -0.5793384988    -1.2961166194     1.5816208615
    9      O      -1.5829597016    -0.3580670508     1.0060170716
   10      C      -1.5923247926    -0.1199153359    -0.3981597545
   11      C      -2.7722263617     0.8774076366    -0.6951394188
   12      C      -4.1939229377     0.1940680874    -0.8941918957
   13      C      -4.3018935828    -1.2933976721    -0.3943293672
   14      O      -5.2301229684    -1.7889472106     0.2795492422
   15      O       1.9486898108     1.5948438670     0.9996825298
   16      O      -3.1693130488    -2.0362982786    -0.8540353003
   17      O      -0.8249498392    -0.5860973338    -1.2715773395
   18      C      -3.2271509912    -3.4283867915    -0.3543789971
   19      C      -3.1051519647     1.9244014648     0.4547900542
   20      C      -3.8128855457     3.1614136405    -0.2253595972
   21      C      -5.2186213263     2.5448692708    -0.5742745956
   22      C      -5.0861741423     1.1000182388     0.0492219318
   23      O      -4.2010270392     1.2923885898     1.2230458737
   24      H      -2.4916536128     1.4023098665    -1.6260183601
   25      H      -4.5090044064     0.2360097266    -1.9534670630
   26      H      -2.2557640697     2.1669086570     1.1207114433
   27      H      -3.9042401153     3.9924233536     0.4921826131
   28      H      -3.2682787018     3.5182694264    -1.1139279614
   29      H      -6.0377278710     3.1012651356    -0.0919073805
   30      H      -5.4074049240     2.5088403958    -1.6591991664
   31      H      -6.0336949101     0.6152534422     0.3553972804
   32      O       1.6772173388    -0.4377253882    -0.8307197698
   33      C       0.7577962733     2.3664179032     0.5839705274
   34      C       5.2534668328     0.5962500923    -0.7100513970
   35      C       6.5780033330     0.0837402726    -0.0229568616
   36      C       6.1934350182    -1.4109465440     0.2870065416
   37      C       4.7520587739    -1.4997767149    -0.3563653585
   38      O       4.8146876288    -0.5731839571    -1.5085380365
   39      H       4.5691973948     1.1315633582     1.3499534026
   40      H       3.8049723191    -1.1202011077     1.6550681028
   41      H       0.2957014084     1.9256143962    -0.3236562728
   42      H       5.3527783121     1.4903122730    -1.3560370190
   43      H       7.4235253067     0.1434395823    -0.7267304279
   44      H       6.8299362319     0.6571986663     0.8833153357
   45      H       6.8804256934    -2.1183120732    -0.2038552934
   46      H       6.1751595671    -1.6280605558     1.3670409912
   47      H       4.4453724702    -2.5117459327    -0.6857683706
   48      H       1.0024144792     3.4283112481     0.3776727088
   49      H       0.0443134040     2.3060447105     1.4264378261
   50      H      -2.3104356039    -3.9215461215    -0.7267813187
   51      H      -4.1196127646    -3.9630755372    -0.7385959853
   52      H      -3.2461423499    -3.4622183404     0.7541215360
   53      H      -1.1486980697    -1.8786284229     2.3365041406
   54      H       0.1616110307    -0.6723796503     2.1324348437
   55      H       0.0091223623    -3.3363526596     0.8918465187
   56      H      -0.0299434923    -2.0315548507    -0.4097526801
 ----------------------------------------------------------------

    9   -1510.2739075352      4.31E-09 Convergence criterion met
 Total energy in the final basis set = -1510.27390754
 Final energy is   -1510.27390753515
 **  OPTIMIZATION CONVERGED  **

                    Orbital Energies (a.u.)
 --------------------------------------------------------------

 Alpha MOs
 -- Occupied --
-18.942 -18.935 -18.929 -18.923 -18.886 -18.884 -18.880 -18.877
-18.875 -18.869 -10.106 -10.103 -10.097 -10.093 -10.073 -10.070
-10.061 -10.059 -10.058 -10.058 -10.058 -10.054 -10.040 -10.035
-10.035 -10.033 -10.020 -10.019 -10.019 -10.017  -1.019  -1.012
 -1.005  -0.999  -0.969  -0.967  -0.942  -0.940  -0.934  -0.929
 -0.763  -0.760  -0.727  -0.721  -0.713  -0.703  -0.693  -0.668
 -0.658  -0.621  -0.597  -0.584  -0.547  -0.543  -0.538  -0.535
 -0.513  -0.507  -0.479  -0.475  -0.464  -0.457  -0.451  -0.447
 -0.439  -0.430  -0.429  -0.418  -0.410  -0.408  -0.407  -0.396
 -0.387  -0.382  -0.376  -0.368  -0.362  -0.355  -0.351  -0.346
 -0.342  -0.340  -0.338  -0.331  -0.330  -0.329  -0.323  -0.310
 -0.309  -0.306  -0.302  -0.299  -0.293  -0.291  -0.280  -0.278
 -0.272  -0.257  -0.251  -0.248  -0.236  -0.233  -0.231  -0.183
 -0.178  -0.174  -0.168  -0.159  -0.154  -0.147  -0.145  -0.141
 -0.136

          Ground-State Mulliken Net Atomic Charges

     Atom                 Charge (a.u.)
  ----------------------------------------
      1 O                    -0.210340
      2 C                     0.216698
      3 C                    -0.079943
      4 C                    -0.078184
      5 C                     0.213478
      6 O                    -0.177559
      7 C                    -0.069059
      8 C                    -0.053745
      9 O                    -0.173725
     10 C                     0.219398
     11 C                    -0.080519
     12 C                    -0.077305
     13 C                     0.212493
     14 O                    -0.210155
     15 O                    -0.179517
     16 O                    -0.169399
     17 O                    -0.200783
     18 C                    -0.127906
     19 C                     0.025259
     20 C                    -0.143264
     21 C                    -0.145060
     22 C                     0.023801
     23 O                    -0.189139
     24 H                     0.084630
     25 H                     0.086659
     26 H                     0.082844
     27 H                     0.077385
     28 H                     0.073983
     29 H                     0.078399
     30 H                     0.073647
     31 H                     0.090419
     32 O                    -0.202067
     33 C                    -0.130481
     34 C                     0.024462
     35 C                    -0.143424
     36 C                    -0.144332
     37 C                     0.025252
     38 O                    -0.187515
     39 H                     0.082911
     40 H                     0.085203
     41 H                     0.091491
     42 H                     0.090782
     43 H                     0.077916
     44 H                     0.072637
     45 H                     0.077715
     46 H                     0.073075
     47 H                     0.082721
     48 H                     0.088255
     49 H                     0.084833
     50 H                     0.092185
     51 H                     0.091402
     52 H                     0.089135
     53 H                     0.086786
     54 H                     0.089237
     55 H                     0.083611
     56 H                     0.124721
  ----------------------------------------
  Sum of atomic charges =    -0.000000

                    Cartesian Multipole Moments
 -----------------------------------------------------------------
    Charge (ESU x 10^10)
                -0.0000
    Dipole Moment (Debye)
         X       0.0775      Y      -0.6082      Z       1.7410
       Tot       1.8458
    Quadrupole Moments (Debye-Ang)
        XX    -153.8287     XY      -5.5258     YY    -149.6860
        XZ      17.2840     YZ      -0.3427     ZZ    -166.2330

 Total job time:  67.45s(wall), 3213.58s(cpu)
        *  Thank you very much for using Q-Chem.  Have a nice day.  *
