 Q-Chem 5.0, Q-Chem, Inc., Pleasanton, CA (2017)
 Q-Chem 5.0.1 for Intel X86 EM64T Linux

User input:
--------------------------------------------------------------
$molecule
0  1
O 2.9174276735 2.4456490219 -0.997985798
C 2.9620734895 1.6743330475 -0.0178855046
C 4.1426862749 0.7308656045 0.4117486324
C 3.7123654268 -0.7801658675 0.6092663653
C 2.2520690867 -1.0403867782 0.1009888158
O 1.6944194094 -2.1056488115 0.8723845833
C 0.2385909629 -2.2830485288 0.6433849176
C -0.5793384988 -1.2961166194 1.5816208615
O -1.5829597016 -0.3580670508 1.0060170716
C -1.5923247926 -0.1199153359 -0.3981597545
C -2.7722263617 0.8774076366 -0.6951394188
C -4.1939229377 0.1940680874 -0.8941918957
C -4.3018935828 -1.2933976721 -0.3943293672
O -5.2301229684 -1.7889472106 0.2795492422
O 1.9486898108 1.594843867 0.9996825298
O -3.1693130488 -2.0362982786 -0.8540353003
O -0.8249498392 -0.5860973338 -1.2715773395
C -3.2271509912 -3.4283867915 -0.3543789971
C -3.1051519647 1.9244014648 0.4547900542
C -3.8128855457 3.1614136405 -0.2253595972
C -5.2186213263 2.5448692708 -0.5742745956
C -5.0861741423 1.1000182388 0.0492219318
O -4.2010270392 1.2923885898 1.2230458737
H -2.4916536128 1.4023098665 -1.6260183601
H -4.5090044064 0.2360097266 -1.953467063
H -2.2557640697 2.166908657 1.1207114433
H -3.9042401153 3.9924233536 0.4921826131
H -3.2682787018 3.5182694264 -1.1139279614
H -6.037727871 3.1012651356 -0.0919073805
H -5.407404924 2.5088403958 -1.6591991664
H -6.0336949101 0.6152534422 0.3553972804
O 1.6772173388 -0.4377253882 -0.8307197698
C 0.7577962733 2.3664179032 0.5839705274
C 5.2534668328 0.5962500923 -0.710051397
C 6.578003333 0.0837402726 -0.0229568616
C 6.1934350182 -1.410946544 0.2870065416
C 4.7520587739 -1.4997767149 -0.3563653585
O 4.8146876288 -0.5731839571 -1.5085380365
H 4.5691973948 1.1315633582 1.3499534026
H 3.8049723191 -1.1202011077 1.6550681028
H 0.2957014084 1.9256143962 -0.3236562728
H 5.3527783121 1.490312273 -1.356037019
H 7.4235253067 0.1434395823 -0.7267304279
H 6.8299362319 0.6571986663 0.8833153357
H 6.8804256934 -2.1183120732 -0.2038552934
H 6.1751595671 -1.6280605558 1.3670409912
H 4.4453724702 -2.5117459327 -0.6857683706
H 1.0024144792 3.4283112481 0.3776727088
H 0.044313404 2.3060447105 1.4264378261
H -2.3104356039 -3.9215461215 -0.7267813187
H -4.1196127646 -3.9630755372 -0.7385959853
H -3.2461423499 -3.4622183404 0.754121536
H -1.1486980697 -1.8786284229 2.3365041406
H 0.1616110307 -0.6723796503 2.1324348437
H 0.0091223623 -3.3363526596 0.8918465187
H -0.0299434923 -2.0315548507 -0.4097526801
$end

$rem
JOBTYPE                   OPT
METHOD                    B3LYP
DFT_D                     d3_op
BASIS                     STO-3G
GEOM_OPT_MAX_CYCLES       100
GEOM_OPT_TOL_GRADIENT     300
GEOM_OPT_TOL_DISPLACEMENT 1200
GEOM_OPT_TOL_ENERGY       100
SYMMETRY                  False
THRESH                    12
SCF_CONVERGENCE           8
MAX_SUB_FILE_NUM          128
MEM_STATIC                400
MEM_TOTAL                 4000
$end
--------------------------------------------------------------

   16   -1510.2737984856      5.24E-09 Convergence criterion met
 Total energy in the final basis set = -1510.27379849
   14   -1510.2757475908      4.22E-09 Convergence criterion met
 Total energy in the final basis set = -1510.27574759
   14   -1510.2769188039      7.62E-09 Convergence criterion met
 Total energy in the final basis set = -1510.27691880
   14   -1510.2780364193      8.54E-09 Convergence criterion met
 Total energy in the final basis set = -1510.27803642
   13   -1510.2781958858      5.00E-09 Convergence criterion met
 Total energy in the final basis set = -1510.27819589
   14   -1510.2792798977      2.03E-09 Convergence criterion met
 Total energy in the final basis set = -1510.27927990
   14   -1510.2797172774      1.88E-09 Convergence criterion met
 Total energy in the final basis set = -1510.27971728
   14   -1510.2808144607      1.66E-09 Convergence criterion met
   13   -1510.2922849107      5.16E-09 Convergence criterion met
 Total energy in the final basis set = -1510.29228491
   12   -1510.2923718462      5.68E-09 Convergence criterion met
 Total energy in the final basis set = -1510.29237185
   12   -1510.2924034147      3.69E-09 Convergence criterion met
 Total energy in the final basis set = -1510.29240341
   11   -1510.2924306340      9.42E-09 Convergence criterion met
 Total energy in the final basis set = -1510.29243063
   11   -1510.2924624689      8.24E-09 Convergence criterion met
 Total energy in the final basis set = -1510.29246247
   11   -1510.2924691009      7.98E-09 Convergence criterion met
 Total energy in the final basis set = -1510.29246910

             Standard Nuclear Orientation (Angstroms)
    I     Atom           X                Y                Z
 ----------------------------------------------------------------
    1      O      -4.0004812829     2.1900596331     1.4837214527
    2      C      -3.6934701145     1.6109909499     0.4194618329
    3      C      -4.5866658327     0.6208766318    -0.4094764134
    4      C      -3.8667906608    -0.7464806945    -0.7751399901
    5      C      -2.3995100403    -0.8411848311    -0.2404220900
    6      O      -1.5225285115    -0.9711675466    -1.3734999036
    7      C      -0.1144332180    -1.0234165515    -0.9162719466
    8      C       0.6594680300     0.2020042666    -1.5198722560
    9      O       2.0512998264     0.2837470460    -1.0112656108
   10      C       2.1041464434     0.9225571949     0.2667264672
   11      C       3.6056130616     1.1273938714     0.6549103192
   12      C       4.4864296191    -0.1882259885     0.5971771740
   13      C       3.6891092690    -1.5077526272     0.3059007969
   14      O       3.9473160966    -2.3771852057    -0.5522974317
   15      O      -2.4453999290     1.7638839979    -0.2619231268
   16      O       2.6164647459    -1.5939842075     1.2544607847
   17      O       1.1078142888     1.3100599323     0.9185289235
   18      C       1.9331383040    -2.9031992940     1.1452805351
   19      C       4.3496750314     2.0133920126    -0.4401211646
   20      C       5.7446810205     2.4724288070     0.1444500477
   21      C       6.5875165647     1.1496906994     0.0051870588
   22      C       5.5000808616     0.1628424994    -0.5709659592
   23      O       4.7075499698     1.0247167272    -1.4794954379
   24      H       3.6317434115     1.5938749191     1.6549864701
   25      H       5.0184702143    -0.3294121152     1.5564947509
   26      H       3.7302216300     2.8242174274    -0.8702272767
   27      H       6.1664407874     3.2878807879    -0.4641874416
   28      H       5.6623461117     2.8165126408     1.1878657554
   29      H       7.4132619862     1.2720058882    -0.7136894286
   30      H       7.0026217219     0.8032924430     0.9651460175
   31      H       5.8815686718    -0.7243929636    -1.1130569055
   32      O      -2.0133752949    -0.8625013207     0.9490417800
   33      C      -1.5347632148     2.6531858183     0.5025278104
   34      C      -5.8103334219     0.1038499038     0.4524499462
   35      C      -6.8718220254    -0.5454972104    -0.5177594026
   36      C      -6.1602425583    -1.9006774792    -0.8828292424
   37      C      -4.8266551949    -1.7823378432    -0.0426637912
   38      O      -5.2462184275    -1.0588170348     1.1784404187
   39      H      -4.9207788993     1.1401487334    -1.3268158080
   40      H      -3.8439273017    -0.9074767488    -1.8669926289
   41      H      -0.5784922624     2.1104917370     0.6841047853
   42      H      -6.2004602588     0.8540003130     1.1677524318
   43      H      -7.8222213653    -0.7183161909     0.0119598876
   44      H      -7.0696579226     0.0837285790    -1.4005145754
   45      H      -6.7487380365    -2.7694233165    -0.5476376207
   46      H      -5.9632088756    -2.0018484230    -1.9620947645
   47      H      -4.3477215144    -2.7447746559     0.2224285673
   48      H      -2.0151900974     2.9332381035     1.4603321390
   49      H      -1.3437009001     3.5646276682    -0.0977506204
   50      H       0.9697868543    -2.7991224960     1.6778661057
   51      H       2.5337898449    -3.7032654806     1.6252762193
   52      H       1.7542702453    -3.1851220983     0.0891282574
   53      H       0.7540510377     0.0919709107    -2.6187724399
   54      H       0.0958164787     1.1311260323    -1.2939619088
   55      H       0.3363651649    -1.9747036220    -1.2653660565
   56      H      -0.1084098960    -0.9809145033     0.1949816218
 ----------------------------------------------------------------

    9   -1510.2924685082      8.40E-09 Convergence criterion met
 Total energy in the final basis set = -1510.29246851
 Final energy is   -1510.29246850819
 **  OPTIMIZATION CONVERGED  **

                    Orbital Energies (a.u.)
 --------------------------------------------------------------

 Alpha MOs
 -- Occupied --
-18.943 -18.936 -18.929 -18.925 -18.891 -18.886 -18.885 -18.880
-18.872 -18.872 -10.110 -10.103 -10.097 -10.095 -10.073 -10.065
-10.065 -10.063 -10.060 -10.059 -10.055 -10.043 -10.041 -10.037
-10.035 -10.035 -10.024 -10.022 -10.019 -10.018  -1.021  -1.012
 -1.010  -1.002  -0.973  -0.968  -0.945  -0.940  -0.933  -0.930
 -0.768  -0.761  -0.730  -0.722  -0.712  -0.706  -0.695  -0.665
 -0.649  -0.617  -0.599  -0.583  -0.548  -0.543  -0.540  -0.535
 -0.516  -0.507  -0.487  -0.475  -0.468  -0.458  -0.449  -0.447
 -0.437  -0.433  -0.428  -0.416  -0.411  -0.409  -0.403  -0.399
 -0.395  -0.379  -0.377  -0.366  -0.364  -0.357  -0.356  -0.351
 -0.349  -0.336  -0.335  -0.330  -0.328  -0.326  -0.324  -0.313
 -0.308  -0.308  -0.303  -0.302  -0.295  -0.291  -0.285  -0.278
 -0.269  -0.256  -0.255  -0.244  -0.241  -0.237  -0.232  -0.190
 -0.180  -0.172  -0.166  -0.161  -0.158  -0.155  -0.150  -0.146
 -0.142

          Ground-State Mulliken Net Atomic Charges

     Atom                 Charge (a.u.)
  ----------------------------------------
      1 O                    -0.210497
      2 C                     0.214054
      3 C                    -0.077896
      4 C                    -0.078617
      5 C                     0.214188
      6 O                    -0.173474
      7 C                    -0.059543
      8 C                    -0.049914
      9 O                    -0.165768
     10 C                     0.218968
     11 C                    -0.077736
     12 C                    -0.078162
     13 C                     0.213882
     14 O                    -0.210671
     15 O                    -0.177908
     16 O                    -0.173425
     17 O                    -0.213030
     18 C                    -0.130299
     19 C                     0.026305
     20 C                    -0.144153
     21 C                    -0.143532
     22 C                     0.024526
     23 O                    -0.185438
     24 H                     0.087628
     25 H                     0.085530
     26 H                     0.082119
     27 H                     0.078732
     28 H                     0.074438
     29 H                     0.078794
     30 H                     0.073708
     31 H                     0.091336
     32 O                    -0.213520
     33 C                    -0.153564
     34 C                     0.024282
     35 C                    -0.144083
     36 C                    -0.143877
     37 C                     0.025612
     38 O                    -0.186254
     39 H                     0.084443
     40 H                     0.086270
     41 H                     0.110316
     42 H                     0.091201
     43 H                     0.078168
     44 H                     0.072840
     45 H                     0.077877
     46 H                     0.073232
     47 H                     0.082713
     48 H                     0.097676
     49 H                     0.074679
     50 H                     0.095148
     51 H                     0.085926
     52 H                     0.091829
     53 H                     0.093069
     54 H                     0.095267
     55 H                     0.081380
     56 H                     0.105228
  ----------------------------------------
  Sum of atomic charges =     0.000000

                    Cartesian Multipole Moments
 -----------------------------------------------------------------
    Charge (ESU x 10^10)
                 0.0000
    Dipole Moment (Debye)
         X       1.2630      Y       0.0382      Z      -1.4474
       Tot       1.9214
    Quadrupole Moments (Debye-Ang)
        XX    -145.3174     XY       8.3311     YY    -154.1704
        XZ      21.2152     YZ      -3.0783     ZZ    -167.4544

 Total job time:  113.28s(wall), 5397.58s(cpu)
        *  Thank you very much for using Q-Chem.  Have a nice day.  *
