 Q-Chem 5.0, Q-Chem, Inc., Pleasanton, CA (2017)
 Q-Chem 5.0.1 for Intel X86 EM64T Linux

User input:
--------------------------------------------------------------
$molecule
0  1
O -3.94934 -3.66094 2.70899
C -3.26408 -4.56952 2.26188
C -3.36658 -6.02376 2.66595
C -2.09714 -6.68975 3.22166
C -0.9155 -5.78075 3.47768
O 0.24459 -6.49879 3.41426
C 1.41727 -5.67864 3.45212
C 1.33593 -4.59546 2.38149
O 1.96494 -3.39332 2.85275
C 2.20636 -3.34577 4.18639
C 2.89504 -2.0718 4.6146
C 4.41114 -2.04248 4.37199
C 4.95118 -3.10479 3.43575
O 5.44228 -2.8968 2.33569
O -2.37537 -4.29251 1.27196
O 4.88574 -4.38449 3.88923
O 1.40271 -3.73138 5.0313
C 5.30524 -5.48579 3.1734
C 2.46302 -0.81217 3.82734
C 2.71523 0.43518 4.67245
C 4.22964 0.47707 4.66596
C 4.53085 -0.66523 3.68704
O 3.42776 -0.67285 2.81396
H 2.6606 -1.88583 5.69062
H 5.0011 -2.10871 5.31245
H 1.40204 -0.84203 3.49533
H 2.33243 1.3004 4.08449
H 2.24544 0.44521 5.67941
H 4.55072 1.45898 4.25301
H 4.71418 0.29791 5.65027
H 5.5266 -0.512 3.21557
O -1.01654 -4.70809 4.06365
C -2.14161 -3.03058 0.76752
C -4.33947 -6.24007 3.84165
C -4.80795 -7.69575 3.87937
C -3.56267 -8.37791 4.40199
C -2.63933 -7.17128 4.58335
O -3.51545 -6.14229 4.97522
H -3.7368 -6.55955 1.76349
H -1.75844 -7.55653 2.60881
H -1.77124 -2.36054 1.57283
H -5.22121 -5.56336 3.81404
H -5.60785 -7.78489 4.64874
H -5.18581 -8.07484 2.90541
H -3.79331 -8.81322 5.40019
H -3.1334 -9.16109 3.74053
H -1.82613 -7.41831 5.30183
H -3.07351 -2.61394 0.32915
H -1.36942 -3.09401 -0.0263
H 5.13279 -6.39944 3.77831
H 6.3896 -5.40491 2.94588
H 4.7272 -5.56909 2.22815
H 1.85603 -4.94335 1.46124
H 0.32786 -4.30377 2.03244
H 2.23843 -6.32166 3.06664
H 1.87951 -5.73887 4.45688
$end

$opt
CONSTRAINT
tors           1           2           3           4    -122.335
tors           3           4           5           6    -154.647
tors           4           5           6           7    +171.433
tors           5           6           7           8     -52.813
tors           6           7           8           9    +145.752
tors           7           8           9          10     -14.592
tors           8           9          10          11    +178.748
tors           9          10          11          12     -80.130
tors          11          12          13          14    +113.229
ENDCONSTRAINT
$end

$rem
JOBTYPE                   OPT
METHOD                    B3LYP
DFT_D                     d3_op
BASIS                     STO-3G
GEOM_OPT_MAX_CYCLES       100
GEOM_OPT_TOL_GRADIENT     300
GEOM_OPT_TOL_DISPLACEMENT 1200
GEOM_OPT_TOL_ENERGY       100
SYMMETRY                  False
THRESH                    12
SCF_CONVERGENCE           8
MAX_SUB_FILE_NUM          128
MEM_STATIC                400
MEM_TOTAL                 4000
$end
--------------------------------------------------------------

   16   -1510.0745867645      2.16E-09 Convergence criterion met
 Total energy in the final basis set = -1510.07458676
   14   -1510.1543755908      9.86E-09 Convergence criterion met
 Total energy in the final basis set = -1510.15437559
   14   -1510.2022274664      7.34E-09 Convergence criterion met
 Total energy in the final basis set = -1510.20222747
   15   -1510.2328980032      1.96E-09 Convergence criterion met
 Total energy in the final basis set = -1510.23289800
   13   -1510.2502875302      9.25E-09 Convergence criterion met
 Total energy in the final basis set = -1510.25028753
   13   -1510.2608557054      7.75E-09 Convergence criterion met
 Total energy in the final basis set = -1510.26085571
   13   -1510.2676984326      3.20E-09 Convergence criterion met
 Total energy in the final basis set = -1510.26769843
   13   -1510.2717456575      2.62E-09 Convergence criterion met
   11   -1510.2742829967      3.54E-09 Convergence criterion met
 Total energy in the final basis set = -1510.27428300
   11   -1510.2743227718      7.49E-09 Convergence criterion met
 Total energy in the final basis set = -1510.27432277
   10   -1510.2743513222      6.73E-09 Convergence criterion met
 Total energy in the final basis set = -1510.27435132
   10   -1510.2743752994      8.82E-09 Convergence criterion met
 Total energy in the final basis set = -1510.27437530
   10   -1510.2743812683      3.09E-09 Convergence criterion met
 Total energy in the final basis set = -1510.27438127
    9   -1510.2743848764      6.64E-09 Convergence criterion met
 Total energy in the final basis set = -1510.27438488

             Standard Nuclear Orientation (Angstroms)
    I     Atom           X                Y                Z
 ----------------------------------------------------------------
    1      O       3.4832535718    -2.6334800569     0.1804050825
    2      C       3.4470564913    -1.6352667047    -0.5687835613
    3      C       4.4633843208    -0.4343348196    -0.5945307898
    4      C       3.8086256486     0.9868336710    -0.3542015204
    5      C       2.2888015369     0.8680802014    -0.0056281305
    6      O       1.6297057439     2.0796259941    -0.3710734175
    7      C       0.1508395735     1.9775414159    -0.2620953970
    8      C      -0.4638474914     0.7408114146    -1.0426487152
    9      O      -1.6583457360     0.0551330141    -0.4735597876
   10      C      -2.0285942155     0.3039680851     0.8750648819
   11      C      -3.3288607745    -0.5356895921     1.1474873669
   12      C      -4.6543948448     0.1484929678     0.5972003339
   13      C      -4.3591252775     1.3449474028    -0.3768968325
   14      O      -4.6016617054     1.4110845248    -1.6000001149
   15      O       2.5291349191    -1.4816647572    -1.6660486238
   16      O      -3.6882448973     2.3734396959     0.3632762064
   17      O      -1.4269279578     0.9898064578     1.7374424843
   18      C      -3.3172362793     3.4874571649    -0.5385258069
   19      C      -3.3869241712    -1.9412493261     0.4080323106
   20      C      -4.4252893023    -2.8441778694     1.1830413607
   21      C      -5.7829064690    -2.1675263637     0.7616427210
   22      C      -5.2763088314    -1.0498408306    -0.2317838824
   23      O      -4.0794653629    -1.6516839741    -0.8674623697
   24      H      -3.3969281310    -0.6605629534     2.2427806202
   25      H      -5.3025028763     0.4933546689     1.4229854243
   26      H      -2.3997120756    -2.4047616472     0.2189868216
   27      H      -4.3667619068    -3.8847218746     0.8256142284
   28      H      -4.2607143615    -2.8335456895     2.2721609610
   29      H      -6.4442686505    -2.8767468914     0.2393217207
   30      H      -6.3294402665    -1.7429881103     1.6191033104
   31      H      -5.9997813166    -0.7299550006    -1.0066766522
   32      O       1.7395126884    -0.1104222204     0.5528913789
   33      C       1.5451986820    -2.5874205059    -1.6485363326
   34      C       5.4778395845    -0.5178582701     0.6206217077
   35      C       6.7255893042     0.3861290189     0.2823491086
   36      C       6.1069151354     1.8241026927     0.4522020685
   37      C       4.6359755422     1.4756006925     0.9143109134
   38      O       4.7943196922     0.2331517186     1.7006384498
   39      H       4.9914885517    -0.4555799290    -1.5652376578
   40      H       3.9340660420     1.6647998500    -1.2160811402
   41      H       0.9270100423    -2.5606063531    -0.7275163794
   42      H       5.6973002196    -1.5521228077     0.9498668019
   43      H       7.5375702955     0.2092147830     1.0054239174
   44      H       7.1099944307     0.2030174764    -0.7337548465
   45      H       6.6284518888     2.3998647615     1.2332625162
   46      H       6.1193056952     2.4064814849    -0.4830079230
   47      H       4.1329282781     2.2582845075     1.5149935196
   48      H       2.0391363688    -3.5784093252    -1.7118297947
   49      H       0.8978591544    -2.4384096834    -2.5325127932
   50      H      -2.7201024728     4.1892387437     0.0723377412
   51      H      -4.2131687314     4.0092554422    -0.9328688648
   52      H      -2.7137803006     3.1302436595    -1.3975476140
   53      H      -0.7787096748     1.0490320119    -2.0623648361
   54      H       0.3195192849    -0.0383509709    -1.1512824495
   55      H      -0.2285390973     2.9286003112    -0.6803859253
   56      H      -0.1859286991     1.8665070536     0.7984692806
 ----------------------------------------------------------------

    9   -1510.2743850849      3.94E-09 Convergence criterion met
 Total energy in the final basis set = -1510.27438508
 Final energy is   -1510.27438508490
 **  OPTIMIZATION CONVERGED  **

                    Orbital Energies (a.u.)
 --------------------------------------------------------------

 Alpha MOs
 -- Occupied --
-18.942 -18.938 -18.937 -18.922 -18.886 -18.886 -18.883 -18.881
-18.877 -18.866 -10.110 -10.102 -10.102 -10.093 -10.071 -10.069
-10.060 -10.060 -10.058 -10.057 -10.057 -10.055 -10.040 -10.037
-10.037 -10.033 -10.020 -10.020 -10.019 -10.018  -1.019  -1.014
 -1.009  -1.000  -0.969  -0.968  -0.944  -0.940  -0.938  -0.928
 -0.764  -0.761  -0.728  -0.722  -0.713  -0.704  -0.693  -0.667
 -0.657  -0.622  -0.597  -0.586  -0.548  -0.544  -0.537  -0.536
 -0.514  -0.509  -0.481  -0.475  -0.464  -0.458  -0.452  -0.446
 -0.441  -0.430  -0.429  -0.417  -0.409  -0.408  -0.405  -0.393
 -0.386  -0.380  -0.375  -0.370  -0.362  -0.358  -0.353  -0.351
 -0.346  -0.342  -0.337  -0.332  -0.331  -0.330  -0.324  -0.310
 -0.309  -0.306  -0.302  -0.301  -0.292  -0.290  -0.281  -0.279
 -0.275  -0.263  -0.255  -0.248  -0.234  -0.232  -0.232  -0.191
 -0.182  -0.176  -0.168  -0.158  -0.153  -0.146  -0.145  -0.142
 -0.141

          Ground-State Mulliken Net Atomic Charges

     Atom                 Charge (a.u.)
  ----------------------------------------
      1 O                    -0.212586
      2 C                     0.215694
      3 C                    -0.080207
      4 C                    -0.078877
      5 C                     0.213982
      6 O                    -0.171317
      7 C                    -0.073521
      8 C                    -0.056566
      9 O                    -0.167728
     10 C                     0.221051
     11 C                    -0.078382
     12 C                    -0.077801
     13 C                     0.209866
     14 O                    -0.207564
     15 O                    -0.180151
     16 O                    -0.171411
     17 O                    -0.208173
     18 C                    -0.128978
     19 C                     0.026415
     20 C                    -0.143135
     21 C                    -0.145039
     22 C                     0.024855
     23 O                    -0.186481
     24 H                     0.085814
     25 H                     0.086391
     26 H                     0.085953
     27 H                     0.078183
     28 H                     0.074269
     29 H                     0.078249
     30 H                     0.073214
     31 H                     0.088576
     32 O                    -0.210922
     33 C                    -0.130340
     34 C                     0.024543
     35 C                    -0.143803
     36 C                    -0.143925
     37 C                     0.025704
     38 O                    -0.187593
     39 H                     0.083198
     40 H                     0.086042
     41 H                     0.090741
     42 H                     0.091207
     43 H                     0.078128
     44 H                     0.072884
     45 H                     0.078133
     46 H                     0.073414
     47 H                     0.084018
     48 H                     0.088351
     49 H                     0.087829
     50 H                     0.092159
     51 H                     0.089266
     52 H                     0.087800
     53 H                     0.085931
     54 H                     0.098936
     55 H                     0.082120
     56 H                     0.121583
  ----------------------------------------
  Sum of atomic charges =    -0.000000

                    Cartesian Multipole Moments
 -----------------------------------------------------------------
    Charge (ESU x 10^10)
                -0.0000
    Dipole Moment (Debye)
         X      -0.4531      Y       1.5189      Z      -1.1697
       Tot       1.9699
    Quadrupole Moments (Debye-Ang)
        XX    -143.4851     XY       6.6417     YY    -153.9354
        XZ     -15.7053     YZ      -1.2489     ZZ    -166.5926

 Total job time:  53.30s(wall), 2534.66s(cpu)
        *  Thank you very much for using Q-Chem.  Have a nice day.  *
