 Q-Chem 5.0, Q-Chem, Inc., Pleasanton, CA (2017)
 Q-Chem 5.0.1 for Intel X86 EM64T Linux

User input:
--------------------------------------------------------------
$molecule
0  1
O 3.4832535718 -2.6334800569 0.1804050825
C 3.4470564913 -1.6352667047 -0.5687835613
C 4.4633843208 -0.4343348196 -0.5945307898
C 3.8086256486 0.986833671 -0.3542015204
C 2.2888015369 0.8680802014 -0.0056281305
O 1.6297057439 2.0796259941 -0.3710734175
C 0.1508395735 1.9775414159 -0.262095397
C -0.4638474914 0.7408114146 -1.0426487152
O -1.658345736 0.0551330141 -0.4735597876
C -2.0285942155 0.3039680851 0.8750648819
C -3.3288607745 -0.5356895921 1.1474873669
C -4.6543948448 0.1484929678 0.5972003339
C -4.3591252775 1.3449474028 -0.3768968325
O -4.6016617054 1.4110845248 -1.6000001149
O 2.5291349191 -1.4816647572 -1.6660486238
O -3.6882448973 2.3734396959 0.3632762064
O -1.4269279578 0.9898064578 1.7374424843
C -3.3172362793 3.4874571649 -0.5385258069
C -3.3869241712 -1.9412493261 0.4080323106
C -4.4252893023 -2.8441778694 1.1830413607
C -5.782906469 -2.1675263637 0.761642721
C -5.2763088314 -1.0498408306 -0.2317838824
O -4.0794653629 -1.6516839741 -0.8674623697
H -3.396928131 -0.6605629534 2.2427806202
H -5.3025028763 0.4933546689 1.4229854243
H -2.3997120756 -2.4047616472 0.2189868216
H -4.3667619068 -3.8847218746 0.8256142284
H -4.2607143615 -2.8335456895 2.272160961
H -6.4442686505 -2.8767468914 0.2393217207
H -6.3294402665 -1.7429881103 1.6191033104
H -5.9997813166 -0.7299550006 -1.0066766522
O 1.7395126884 -0.1104222204 0.5528913789
C 1.545198682 -2.5874205059 -1.6485363326
C 5.4778395845 -0.5178582701 0.6206217077
C 6.7255893042 0.3861290189 0.2823491086
C 6.1069151354 1.8241026927 0.4522020685
C 4.6359755422 1.4756006925 0.9143109134
O 4.7943196922 0.2331517186 1.7006384498
H 4.9914885517 -0.455579929 -1.5652376578
H 3.934066042 1.66479985 -1.2160811402
H 0.9270100423 -2.5606063531 -0.7275163794
H 5.6973002196 -1.5521228077 0.9498668019
H 7.5375702955 0.209214783 1.0054239174
H 7.1099944307 0.2030174764 -0.7337548465
H 6.6284518888 2.3998647615 1.2332625162
H 6.1193056952 2.4064814849 -0.483007923
H 4.1329282781 2.2582845075 1.5149935196
H 2.0391363688 -3.5784093252 -1.7118297947
H 0.8978591544 -2.4384096834 -2.5325127932
H -2.7201024728 4.1892387437 0.0723377412
H -4.2131687314 4.0092554422 -0.9328688648
H -2.7137803006 3.1302436595 -1.397547614
H -0.7787096748 1.0490320119 -2.0623648361
H 0.3195192849 -0.0383509709 -1.1512824495
H -0.2285390973 2.9286003112 -0.6803859253
H -0.1859286991 1.8665070536 0.7984692806
$end

$rem
JOBTYPE                   OPT
METHOD                    B3LYP
DFT_D                     d3_op
BASIS                     STO-3G
GEOM_OPT_MAX_CYCLES       100
GEOM_OPT_TOL_GRADIENT     300
GEOM_OPT_TOL_DISPLACEMENT 1200
GEOM_OPT_TOL_ENERGY       100
SYMMETRY                  False
THRESH                    12
SCF_CONVERGENCE           8
MAX_SUB_FILE_NUM          128
MEM_STATIC                400
MEM_TOTAL                 4000
$end
--------------------------------------------------------------

   16   -1510.2742931738      4.86E-09 Convergence criterion met
 Total energy in the final basis set = -1510.27429317
   14   -1510.2767676775      3.65E-09 Convergence criterion met
 Total energy in the final basis set = -1510.27676768
   13   -1510.2786770544      6.65E-09 Convergence criterion met
 Total energy in the final basis set = -1510.27867705
   13   -1510.2797970665      4.25E-09 Convergence criterion met
 Total energy in the final basis set = -1510.27979707
   14   -1510.2804611202      4.52E-09 Convergence criterion met
 Total energy in the final basis set = -1510.28046112
   13   -1510.2814920763      8.35E-09 Convergence criterion met
 Total energy in the final basis set = -1510.28149208
   13   -1510.2819710390      3.97E-09 Convergence criterion met
 Total energy in the final basis set = -1510.28197104
   13   -1510.2828495970      4.30E-09 Convergence criterion met
   12   -1510.2924770163      6.05E-09 Convergence criterion met
 Total energy in the final basis set = -1510.29247702
   12   -1510.2925163355      2.48E-09 Convergence criterion met
 Total energy in the final basis set = -1510.29251634
   11   -1510.2925106111      5.87E-09 Convergence criterion met
 Total energy in the final basis set = -1510.29251061
   11   -1510.2925222219      3.46E-09 Convergence criterion met
 Total energy in the final basis set = -1510.29252222
   10   -1510.2925253706      9.55E-09 Convergence criterion met
 Total energy in the final basis set = -1510.29252537
    9   -1510.2925275013      9.61E-09 Convergence criterion met
 Total energy in the final basis set = -1510.29252750

             Standard Nuclear Orientation (Angstroms)
    I     Atom           X                Y                Z
 ----------------------------------------------------------------
    1      O      -3.9158717920    -1.9103303216    -1.8599544205
    2      C      -3.6606234277    -1.4255551795    -0.7364218869
    3      C      -4.5829509471    -0.4821320664     0.1141218637
    4      C      -3.8651499531     0.8404924021     0.6210059458
    5      C      -2.3698329303     0.9430105877     0.1722962014
    6      O      -1.5495155483     0.9761356909     1.3536772321
    7      C      -0.1191038257     1.0177536568     0.9691625941
    8      C       0.5907254440    -0.2726411196     1.5137074687
    9      O       2.0051464160    -0.3576165361     1.0707895502
   10      C       2.1044219255    -0.8907922122    -0.2521417305
   11      C       3.6155239246    -1.1165215394    -0.5889241816
   12      C       4.5290787418     0.1668917061    -0.4179267801
   13      C       3.7578902370     1.4867240365    -0.0637324280
   14      O       4.0075482563     2.2873234370     0.8612929645
   15      O      -2.4624235343    -1.6696068864     0.0047533976
   16      O       2.7208552420     1.6661343473    -1.0382416141
   17      O       1.1310774756    -1.1871499431    -0.9819601750
   18      C       2.0632905839     2.9806394283    -0.8579665006
   19      C       4.2913499221    -2.0899382641     0.4753282964
   20      C       5.6907692991    -2.5601310695    -0.0892260392
   21      C       6.5676501085    -1.2745440807     0.1530735282
   22      C       5.4930368512    -0.2888846388     0.7550757826
   23      O       4.6443492899    -1.1772376487     1.5836820999
   24      H       3.6692587924    -1.5214206736    -1.6145814127
   25      H       5.0951585930     0.3543637866    -1.3494286115
   26      H       3.6321727801    -2.9035337892     0.8356999110
   27      H       6.0664870789    -3.4213772580     0.4855923847
   28      H       5.6339220156    -2.8429303955    -1.1525531771
   29      H       7.3666712815    -1.4658795171     0.8868009665
   30      H       7.0219357429    -0.8861957583    -0.7724419654
   31      H       5.8844612566     0.5499412638     1.3629588762
   32      O      -1.9224402359     1.0307729493    -0.9924526553
   33      C      -1.5314618136    -2.5281780225    -0.7705520789
   34      C      -5.7464187173     0.1193697088    -0.7758257977
   35      C      -6.8549439103     0.7135001412     0.1770757901
   36      C      -6.1460534766     2.0233476262     0.6862787573
   37      C      -4.7680487343     1.9449697346    -0.0839663590
   38      O      -5.1243831304     1.3228158925    -1.3777574371
   39      H      -4.9760386170    -1.0615129836     0.9699836743
   40      H      -3.8999351446     0.9200847659     1.7213737261
   41      H      -0.5649743443    -1.9867642348    -0.8921868848
   42      H      -6.1019935243    -0.5684621005    -1.5677550352
   43      H      -7.7687465051     0.9449535018    -0.3929696003
   44      H      -7.1142810899     0.0237851508     0.9961999147
   45      H      -6.7019623480     2.9262658707     0.3877161955
   46      H      -6.0097072678     2.0370474689     1.7793855849
   47      H      -4.2620577664     2.9162101154    -0.2470615233
   48      H      -1.9802625529    -2.7565826925    -1.7571216873
   49      H      -1.3688982673    -3.4680567428    -0.2071792642
   50      H       1.1180891909     2.9389035041    -1.4300034274
   51      H       2.6988445521     3.7979049610    -1.2570875784
   52      H       1.8521309480     3.1898561309     0.2091131711
   53      H       0.6306180650    -0.2497080659     2.6211498888
   54      H       0.0156474928    -1.1644278862     1.1884222800
   55      H       0.3402909636     1.9259746262     1.4095535599
   56      H      -0.0612149633     1.0565652357    -0.1407758858
 ----------------------------------------------------------------

    9   -1510.2925272442      7.74E-09 Convergence criterion met
 Total energy in the final basis set = -1510.29252724
 Final energy is   -1510.29252724424
 **  OPTIMIZATION CONVERGED  **

                    Orbital Energies (a.u.)
 --------------------------------------------------------------

 Alpha MOs
 -- Occupied --
-18.942 -18.936 -18.929 -18.925 -18.891 -18.886 -18.885 -18.880
-18.873 -18.872 -10.110 -10.103 -10.097 -10.095 -10.073 -10.066
-10.064 -10.063 -10.060 -10.059 -10.055 -10.043 -10.041 -10.037
-10.035 -10.035 -10.023 -10.022 -10.019 -10.018  -1.021  -1.012
 -1.010  -1.002  -0.973  -0.968  -0.945  -0.940  -0.934  -0.930
 -0.768  -0.761  -0.730  -0.722  -0.712  -0.706  -0.695  -0.665
 -0.649  -0.617  -0.599  -0.583  -0.548  -0.543  -0.540  -0.535
 -0.516  -0.507  -0.487  -0.475  -0.468  -0.458  -0.449  -0.447
 -0.438  -0.433  -0.428  -0.416  -0.411  -0.409  -0.403  -0.399
 -0.394  -0.379  -0.377  -0.366  -0.363  -0.357  -0.355  -0.351
 -0.350  -0.336  -0.335  -0.330  -0.329  -0.326  -0.324  -0.313
 -0.308  -0.308  -0.303  -0.302  -0.294  -0.291  -0.285  -0.278
 -0.269  -0.256  -0.255  -0.244  -0.241  -0.237  -0.232  -0.190
 -0.180  -0.171  -0.165  -0.161  -0.158  -0.155  -0.150  -0.146
 -0.142

          Ground-State Mulliken Net Atomic Charges

     Atom                 Charge (a.u.)
  ----------------------------------------
      1 O                    -0.210659
      2 C                     0.214071
      3 C                    -0.077997
      4 C                    -0.078600
      5 C                     0.213905
      6 O                    -0.173272
      7 C                    -0.059739
      8 C                    -0.050087
      9 O                    -0.165734
     10 C                     0.218761
     11 C                    -0.077781
     12 C                    -0.078164
     13 C                     0.213714
     14 O                    -0.210309
     15 O                    -0.178130
     16 O                    -0.173129
     17 O                    -0.213094
     18 C                    -0.130271
     19 C                     0.026313
     20 C                    -0.144140
     21 C                    -0.143581
     22 C                     0.024459
     23 O                    -0.185525
     24 H                     0.087579
     25 H                     0.085635
     26 H                     0.082165
     27 H                     0.078669
     28 H                     0.074388
     29 H                     0.078832
     30 H                     0.073699
     31 H                     0.091291
     32 O                    -0.213079
     33 C                    -0.153955
     34 C                     0.024291
     35 C                    -0.144107
     36 C                    -0.143929
     37 C                     0.025852
     38 O                    -0.186262
     39 H                     0.084417
     40 H                     0.086252
     41 H                     0.110336
     42 H                     0.091368
     43 H                     0.078214
     44 H                     0.072918
     45 H                     0.077866
     46 H                     0.073229
     47 H                     0.082631
     48 H                     0.097683
     49 H                     0.074635
     50 H                     0.095299
     51 H                     0.086068
     52 H                     0.091829
     53 H                     0.092922
     54 H                     0.095342
     55 H                     0.081393
     56 H                     0.105516
  ----------------------------------------
  Sum of atomic charges =     0.000000

                    Cartesian Multipole Moments
 -----------------------------------------------------------------
    Charge (ESU x 10^10)
                 0.0000
    Dipole Moment (Debye)
         X       1.1287      Y      -0.2075      Z       1.4892
       Tot       1.8801
    Quadrupole Moments (Debye-Ang)
        XX    -143.6888     XY      -6.8591     YY    -153.3219
        XZ     -20.6801     YZ      -1.7707     ZZ    -169.9312

 Total job time:  129.71s(wall), 4906.41s(cpu)
        *  Thank you very much for using Q-Chem.  Have a nice day.  *
