 Q-Chem 5.0, Q-Chem, Inc., Pleasanton, CA (2017)
 Q-Chem 5.0.1 for Intel X86 EM64T Linux

User input:
--------------------------------------------------------------
$molecule
0  1
O -3.94934 -3.66094 2.70899
C -3.26408 -4.56952 2.26188
C -3.36658 -6.02376 2.66595
C -2.06889 -6.84826 2.65836
C -0.7856 -6.08389 2.41963
O -0.0773 -6.67023 1.40971
C 1.12948 -5.97051 1.08827
C 0.80667 -4.6853 0.33318
O 1.87119 -3.73646 0.50455
C 2.74811 -4.01745 1.50014
C 3.84781 -2.98972 1.62303
C 4.79336 -2.90595 0.41589
C 4.30809 -3.5802 -0.85163
O 4.20237 -3.04269 -1.94455
O -2.62336 -4.34126 1.08475
O 4.13986 -4.92803 -0.77956
O 2.31783 -4.24439 2.62733
C 3.76154 -5.72433 -1.84022
C 3.36865 -1.52679 1.71726
C 4.43041 -0.68689 2.42386
C 5.52215 -0.6674 1.37153
C 4.80532 -1.37718 0.21519
O 3.44908 -1.04402 0.39728
H 4.44588 -3.24251 2.53237
H 5.79479 -3.33567 0.63965
H 2.38409 -1.41724 2.22214
H 4.01206 0.34071 2.52187
H 4.74529 -1.04863 3.42627
H 5.74289 0.39283 1.11658
H 6.45897 -1.1976 1.64898
H 5.25729 -1.07822 -0.75582
O -0.41318 -5.12643 3.08956
C -2.58236 -3.1182 0.44496
C -3.78639 -6.18789 4.14122
C -4.38604 -7.57667 4.3658
C -3.14011 -8.43429 4.30888
C -2.06977 -7.35774 4.11117
O -2.56631 -6.25892 4.83623
H -4.13861 -6.47028 2.0001
H -2.1268 -7.69968 1.94122
H -2.08946 -2.36378 1.0949
H -4.50194 -5.41035 4.48666
H -4.79027 -7.61142 5.40278
H -5.18768 -7.85218 3.64715
H -3.00081 -8.91811 5.30152
H -3.12789 -9.20553 3.50869
H -1.07418 -7.74227 4.42628
H -3.61059 -2.78266 0.19137
H -2.00131 -3.21653 -0.49484
H 3.69757 -6.7778 -1.49903
H 4.51165 -5.65723 -2.65686
H 2.76529 -5.40962 -2.2177
H 0.59756 -4.89289 -0.73786
H -0.08183 -4.18746 0.75594
H 1.72083 -6.5783 0.37061
H 1.71725 -6.14763 2.00098
$end

$opt
CONSTRAINT
tors           1           2           3           4    -147.072
tors           3           4           5           6    -128.156
tors           4           5           6           7    +177.671
tors           5           6           7           8     -73.784
tors           6           7           8           9    +155.563
tors           7           8           9          10     -14.592
tors           8           9          10          11    +179.578
tors           9          10          11          12     -64.887
tors          11          12          13          14    +125.010
ENDCONSTRAINT
$end

$rem
JOBTYPE                   OPT
METHOD                    B3LYP
DFT_D                     d3_op
BASIS                     STO-3G
GEOM_OPT_MAX_CYCLES       100
GEOM_OPT_TOL_GRADIENT     300
GEOM_OPT_TOL_DISPLACEMENT 1200
GEOM_OPT_TOL_ENERGY       100
SYMMETRY                  False
THRESH                    12
SCF_CONVERGENCE           8
MAX_SUB_FILE_NUM          128
MEM_STATIC                400
MEM_TOTAL                 4000
$end
--------------------------------------------------------------

   16   -1510.0818868698      3.76E-09 Convergence criterion met
 Total energy in the final basis set = -1510.08188687
   15   -1510.1624756762      4.27E-09 Convergence criterion met
 Total energy in the final basis set = -1510.16247568
   14   -1510.2101265248      8.63E-09 Convergence criterion met
 Total energy in the final basis set = -1510.21012652
   14   -1510.2408188070      8.71E-09 Convergence criterion met
 Total energy in the final basis set = -1510.24081881
   14   -1510.2576527914      6.12E-09 Convergence criterion met
 Total energy in the final basis set = -1510.25765279
   13   -1510.2672361439      8.70E-09 Convergence criterion met
 Total energy in the final basis set = -1510.26723614
   13   -1510.2723753526      5.81E-09 Convergence criterion met
 Total energy in the final basis set = -1510.27237535
   13   -1510.2758010635      3.76E-09 Convergence criterion met
   11   -1510.2781295350      8.61E-09 Convergence criterion met
 Total energy in the final basis set = -1510.27812953
   11   -1510.2781668225      8.17E-09 Convergence criterion met
 Total energy in the final basis set = -1510.27816682
   10   -1510.2781852214      8.49E-09 Convergence criterion met
 Total energy in the final basis set = -1510.27818522
    9   -1510.2781926014      8.48E-09 Convergence criterion met
 Total energy in the final basis set = -1510.27819260
    9   -1510.2781980234      7.21E-09 Convergence criterion met
 Total energy in the final basis set = -1510.27819802
    9   -1510.2781997918      2.28E-09 Convergence criterion met
 Total energy in the final basis set = -1510.27819979

             Standard Nuclear Orientation (Angstroms)
    I     Atom           X                Y                Z
 ----------------------------------------------------------------
    1      O       3.6828105597    -2.5847195073    -1.2791710110
    2      C       3.4126649367    -1.3682505373    -1.1809502056
    3      C       4.4174397255    -0.2475478988    -0.7304925198
    4      C       3.8393927869     0.9845910298     0.0810560204
    5      C       2.3332699185     0.8435784212     0.4802046593
    6      O       1.6512331596     2.0310075249     0.0476845244
    7      C       0.2038410460     1.9312652247     0.3496282864
    8      C      -0.4811958598     0.9229535584    -0.6565465821
    9      O      -1.7415171901     0.2351500107    -0.2624527860
   10      C      -2.1305993328     0.2527769695     1.1073801032
   11      C      -3.4863340817    -0.5367765057     1.1903936821
   12      C      -4.6835474240     0.1597372602     0.4132679261
   13      C      -4.2461419166     1.4316152114    -0.3966592583
   14      O      -4.4176185155     1.6585441087    -1.6122909691
   15      O       2.1729021915    -0.7990949436    -1.6293664347
   16      O      -3.6049234449     2.3419180325     0.5082508947
   17      O      -1.5039703730     0.7126655660     2.0904933344
   18      C      -3.1504367064     3.5463646136    -0.2224231861
   19      C      -3.4378849059    -1.9453418094     0.4514278809
   20      C      -4.6475496815    -2.8127595580     0.9808981156
   21      C      -5.8588367533    -2.1188268206     0.2533708863
   22      C      -5.1164648193    -0.9981815140    -0.5757741500
   23      O      -3.8255430629    -1.6270313377    -0.9404440913
   24      H      -3.7276089111    -0.6531177140     2.2614019723
   25      H      -5.4960361320     0.4418294263     1.1078836013
   26      H      -2.4501202376    -2.4450267489     0.4751215702
   27      H      -4.5340492903    -3.8618531672     0.6643088012
   28      H      -4.7339005409    -2.7823458802     2.0788169069
   29      H      -6.3798804220    -2.8172205849    -0.4204201203
   30      H      -6.5915319234    -1.6936889244     0.9578397587
   31      H      -5.6398517124    -0.6395341786    -1.4832980523
   32      O       1.7938995530    -0.0905239334     1.1114871905
   33      C       1.3015469330    -1.8776844090    -2.1596705276
   34      C       5.4878966720    -0.8228545269     0.2893744370
   35      C       6.7600254995     0.1086196899     0.2522306427
   36      C       6.2177221455     1.3833546974     1.0003021168
   37      C       4.7556883044     0.9190557247     1.3813791686
   38      O       4.8933896379    -0.5357036279     1.6154704442
   39      H       4.9130966461     0.1144598699    -1.6514736781
   40      H       3.9645952658     1.9307041461    -0.4735045802
   41      H       0.9313999515    -2.5323431596    -1.3444220434
   42      H       5.6747814085    -1.9080450625     0.1689384289
   43      H       7.5931385797    -0.3580337457     0.8016736923
   44      H       7.0909058601     0.3239340120    -0.7763016748
   45      H       6.8021467610     1.6003138218     1.9085917435
   46      H       6.2127969826     2.2810311441     0.3615462859
   47      H       4.3209592949     1.4149685136     2.2709805887
   48      H       1.8384622557    -2.5043385506    -2.8995243455
   49      H       0.4450672747    -1.3752609984    -2.6453005424
   50      H      -2.6259986767     4.1748714929     0.5205628765
   51      H      -4.0043867023     4.1109951317    -0.6493100651
   52      H      -2.4567608691     3.2846101559    -1.0469571449
   53      H      -0.7199445193     1.4342482707    -1.6130154191
   54      H       0.2651669802     0.1295036527    -0.8787835617
   55      H      -0.1999273011     2.9533363423     0.2221583821
   56      H      -0.0106468270     1.5691800675     1.3803642870
 ----------------------------------------------------------------

    9   -1510.2782007302      3.53E-09 Convergence criterion met
 Total energy in the final basis set = -1510.27820073
 Final energy is   -1510.27820073024
 **  OPTIMIZATION CONVERGED  **

                    Orbital Energies (a.u.)
 --------------------------------------------------------------

 Alpha MOs
 -- Occupied --
-18.939 -18.937 -18.935 -18.927 -18.886 -18.886 -18.879 -18.877
-18.877 -18.868 -10.105 -10.102 -10.102 -10.094 -10.068 -10.065
-10.064 -10.059 -10.059 -10.057 -10.057 -10.054 -10.039 -10.038
-10.036 -10.035 -10.020 -10.020 -10.019 -10.019  -1.017  -1.014
 -1.007  -1.002  -0.969  -0.969  -0.939  -0.939  -0.938  -0.930
 -0.764  -0.762  -0.727  -0.722  -0.711  -0.704  -0.691  -0.666
 -0.663  -0.619  -0.597  -0.586  -0.546  -0.544  -0.537  -0.536
 -0.512  -0.510  -0.481  -0.475  -0.464  -0.461  -0.450  -0.445
 -0.438  -0.430  -0.429  -0.416  -0.412  -0.409  -0.408  -0.390
 -0.387  -0.378  -0.374  -0.369  -0.361  -0.358  -0.353  -0.350
 -0.345  -0.337  -0.336  -0.331  -0.330  -0.327  -0.325  -0.311
 -0.308  -0.305  -0.304  -0.298  -0.296  -0.291  -0.284  -0.277
 -0.273  -0.264  -0.255  -0.253  -0.233  -0.233  -0.232  -0.185
 -0.180  -0.175  -0.172  -0.157  -0.157  -0.147  -0.144  -0.142
 -0.141

          Ground-State Mulliken Net Atomic Charges

     Atom                 Charge (a.u.)
  ----------------------------------------
      1 O                    -0.210860
      2 C                     0.213289
      3 C                    -0.078599
      4 C                    -0.079940
      5 C                     0.211104
      6 O                    -0.174009
      7 C                    -0.069163
      8 C                    -0.057856
      9 O                    -0.171234
     10 C                     0.220840
     11 C                    -0.078282
     12 C                    -0.078256
     13 C                     0.214082
     14 O                    -0.209682
     15 O                    -0.172770
     16 O                    -0.172463
     17 O                    -0.210310
     18 C                    -0.128773
     19 C                     0.026415
     20 C                    -0.143594
     21 C                    -0.144446
     22 C                     0.024504
     23 O                    -0.186925
     24 H                     0.084992
     25 H                     0.085126
     26 H                     0.084133
     27 H                     0.077959
     28 H                     0.074207
     29 H                     0.077946
     30 H                     0.072911
     31 H                     0.089433
     32 O                    -0.213103
     33 C                    -0.130227
     34 C                     0.024339
     35 C                    -0.143514
     36 C                    -0.144403
     37 C                     0.026251
     38 O                    -0.186524
     39 H                     0.084602
     40 H                     0.086064
     41 H                     0.092383
     42 H                     0.091455
     43 H                     0.078567
     44 H                     0.072932
     45 H                     0.078209
     46 H                     0.073452
     47 H                     0.083774
     48 H                     0.092628
     49 H                     0.093497
     50 H                     0.091396
     51 H                     0.089534
     52 H                     0.088157
     53 H                     0.082453
     54 H                     0.096801
     55 H                     0.080105
     56 H                     0.121389
  ----------------------------------------
  Sum of atomic charges =     0.000000

                    Cartesian Multipole Moments
 -----------------------------------------------------------------
    Charge (ESU x 10^10)
                 0.0000
    Dipole Moment (Debye)
         X      -0.4780      Y       1.8170      Z      -0.8345
       Tot       2.0558
    Quadrupole Moments (Debye-Ang)
        XX    -141.7258     XY      10.1763     YY    -155.8613
        XZ     -11.6291     YZ       0.0079     ZZ    -165.9498

 Total job time:  55.96s(wall), 2660.29s(cpu)
        *  Thank you very much for using Q-Chem.  Have a nice day.  *
