 Q-Chem 5.0, Q-Chem, Inc., Pleasanton, CA (2017)
 Q-Chem 5.0.1 for Intel X86 EM64T Linux

User input:
--------------------------------------------------------------
$molecule
0  1
O 3.6828105597 -2.5847195073 -1.279171011
C 3.4126649367 -1.3682505373 -1.1809502056
C 4.4174397255 -0.2475478988 -0.7304925198
C 3.8393927869 0.9845910298 0.0810560204
C 2.3332699185 0.8435784212 0.4802046593
O 1.6512331596 2.0310075249 0.0476845244
C 0.203841046 1.9312652247 0.3496282864
C -0.4811958598 0.9229535584 -0.6565465821
O -1.7415171901 0.2351500107 -0.262452786
C -2.1305993328 0.2527769695 1.1073801032
C -3.4863340817 -0.5367765057 1.1903936821
C -4.683547424 0.1597372602 0.4132679261
C -4.2461419166 1.4316152114 -0.3966592583
O -4.4176185155 1.6585441087 -1.6122909691
O 2.1729021915 -0.7990949436 -1.6293664347
O -3.6049234449 2.3419180325 0.5082508947
O -1.503970373 0.712665566 2.0904933344
C -3.1504367064 3.5463646136 -0.2224231861
C -3.4378849059 -1.9453418094 0.4514278809
C -4.6475496815 -2.812759558 0.9808981156
C -5.8588367533 -2.1188268206 0.2533708863
C -5.1164648193 -0.998181514 -0.57577415
O -3.8255430629 -1.6270313377 -0.9404440913
H -3.7276089111 -0.653117714 2.2614019723
H -5.496036132 0.4418294263 1.1078836013
H -2.4501202376 -2.4450267489 0.4751215702
H -4.5340492903 -3.8618531672 0.6643088012
H -4.7339005409 -2.7823458802 2.0788169069
H -6.379880422 -2.8172205849 -0.4204201203
H -6.5915319234 -1.6936889244 0.9578397587
H -5.6398517124 -0.6395341786 -1.4832980523
O 1.793899553 -0.0905239334 1.1114871905
C 1.301546933 -1.877684409 -2.1596705276
C 5.487896672 -0.8228545269 0.289374437
C 6.7600254995 0.1086196899 0.2522306427
C 6.2177221455 1.3833546974 1.0003021168
C 4.7556883044 0.9190557247 1.3813791686
O 4.8933896379 -0.5357036279 1.6154704442
H 4.9130966461 0.1144598699 -1.6514736781
H 3.9645952658 1.9307041461 -0.4735045802
H 0.9313999515 -2.5323431596 -1.3444220434
H 5.6747814085 -1.9080450625 0.1689384289
H 7.5931385797 -0.3580337457 0.8016736923
H 7.0909058601 0.323934012 -0.7763016748
H 6.802146761 1.6003138218 1.9085917435
H 6.2127969826 2.2810311441 0.3615462859
H 4.3209592949 1.4149685136 2.2709805887
H 1.8384622557 -2.5043385506 -2.8995243455
H 0.4450672747 -1.3752609984 -2.6453005424
H -2.6259986767 4.1748714929 0.5205628765
H -4.0043867023 4.1109951317 -0.6493100651
H -2.4567608691 3.2846101559 -1.0469571449
H -0.7199445193 1.4342482707 -1.6130154191
H 0.2651669802 0.1295036527 -0.8787835617
H -0.1999273011 2.9533363423 0.2221583821
H -0.010646827 1.5691800675 1.380364287
$end

$rem
JOBTYPE                   OPT
METHOD                    B3LYP
DFT_D                     d3_op
BASIS                     STO-3G
GEOM_OPT_MAX_CYCLES       100
GEOM_OPT_TOL_GRADIENT     300
GEOM_OPT_TOL_DISPLACEMENT 1200
GEOM_OPT_TOL_ENERGY       100
SYMMETRY                  False
THRESH                    12
SCF_CONVERGENCE           8
MAX_SUB_FILE_NUM          128
MEM_STATIC                400
MEM_TOTAL                 4000
$end
--------------------------------------------------------------

   16   -1510.2778839852      5.82E-09 Convergence criterion met
 Total energy in the final basis set = -1510.27788399
   14   -1510.2790033267      2.97E-09 Convergence criterion met
 Total energy in the final basis set = -1510.27900333
   14   -1510.2800804601      2.40E-09 Convergence criterion met
 Total energy in the final basis set = -1510.28008046
   13   -1510.2815050370      9.23E-09 Convergence criterion met
 Total energy in the final basis set = -1510.28150504
   14   -1510.2829633486      5.48E-09 Convergence criterion met
 Total energy in the final basis set = -1510.28296335
   14   -1510.2830332136      2.44E-09 Convergence criterion met
 Total energy in the final basis set = -1510.28303321
   13   -1510.2840738191      5.68E-09 Convergence criterion met
 Total energy in the final basis set = -1510.28407382
   13   -1510.2852852664      4.17E-09 Convergence criterion met
   12   -1510.2924943422      5.05E-09 Convergence criterion met
 Total energy in the final basis set = -1510.29249434
   12   -1510.2925001151      4.66E-09 Convergence criterion met
 Total energy in the final basis set = -1510.29250012
   11   -1510.2925296144      9.53E-09 Convergence criterion met
 Total energy in the final basis set = -1510.29252961
   11   -1510.2925140962      5.36E-09 Convergence criterion met
 Total energy in the final basis set = -1510.29251410
   10   -1510.2925163771      3.63E-09 Convergence criterion met
 Total energy in the final basis set = -1510.29251638
    9   -1510.2925314293      6.11E-09 Convergence criterion met
 Total energy in the final basis set = -1510.29253143

             Standard Nuclear Orientation (Angstroms)
    I     Atom           X                Y                Z
 ----------------------------------------------------------------
    1      O       3.8934158066    -2.0081661743     1.8463207096
    2      C       3.6435685540    -1.4869899532     0.7381547238
    3      C       4.5780372068    -0.5377456246    -0.0921626176
    4      C       3.8744988308     0.8005295130    -0.5763778255
    5      C       2.3826550245     0.9162688892    -0.1210950612
    6      O       1.5618100350     0.9897448782    -1.3006487977
    7      C       0.1322160444     1.0506220681    -0.9159598933
    8      C      -0.6012332964    -0.2108516810    -1.4964066120
    9      O      -2.0179506508    -0.2836682088    -1.0596925651
   10      C      -2.1314781982    -0.8434488443     0.2510220855
   11      C      -3.6485923195    -1.0590917971     0.5697205986
   12      C      -4.5528018342     0.2300700318     0.3905675934
   13      C      -3.7706631344     1.5454827166     0.0442815258
   14      O      -4.0017468088     2.3423938306    -0.8887794670
   15      O       2.4366571160    -1.6849386638    -0.0038817234
   16      O      -2.7506646500     1.7268723739     1.0361371030
   17      O      -1.1667385008    -1.1673291956     0.9804518333
   18      C      -2.0857724358     3.0379225303     0.8586480318
   19      C      -4.3180657433    -2.0257929507    -0.5057573705
   20      C      -5.7264242428    -2.4901545167     0.0413698283
   21      C      -6.5935375410    -1.1990206389    -0.2063574943
   22      C      -5.5071758418    -0.2176921728    -0.7936742649
   23      O      -4.6539874867    -1.1082060038    -1.6152366290
   24      H      -3.7183548188    -1.4669581695     1.5932218305
   25      H      -5.1276719783     0.4200156031     1.3161685566
   26      H      -3.6597281362    -2.8420322104    -0.8616757073
   27      H      -6.1002309640    -3.3471181115    -0.5410808897
   28      H      -5.6835800267    -2.7773164516     1.1041651096
   29      H      -7.3855029332    -1.3835130538    -0.9494353847
   30      H      -7.0558516242    -0.8109064682     0.7152598065
   31      H      -5.8874659125     0.6247942415    -1.4036117851
   32      O       1.9379663323     0.9888797549     1.0456604614
   33      C       1.4853897244    -2.5379233923     0.7524224721
   34      C       5.7466759635     0.0367432292     0.8083072110
   35      C       6.8624510618     0.6331858819    -0.1350038409
   36      C       6.1681364382     1.9580126994    -0.6251636503
   37      C       4.7895951170     1.8837627400     0.1440747233
   38      O       5.1380705336     1.2378184216     1.4284915442
   39      H       4.9660699317    -1.1058143803    -0.9578829656
   40      H       3.9063644165     0.8973934786    -1.6754468310
   41      H       0.5268712602    -1.9821308610     0.8734829467
   42      H       6.0941504717    -0.6672332080     1.5896118760
   43      H       7.7783161643     0.8461426539     0.4389566983
   44      H       7.1149895459    -0.0470129139    -0.9642074407
   45      H       6.7340731914     2.8504237979    -0.3142636622
   46      H       6.0311535837     1.9886355102    -1.7178811773
   47      H       4.2940010907     2.8578685087     0.3214541991
   48      H       1.9212885009    -2.7875648645     1.7395842177
   49      H       1.3109236882    -3.4679348094     0.1761216187
   50      H      -1.1428437379     2.9921477659     1.4340291832
   51      H      -2.7191081281     3.8580279864     1.2555636285
   52      H      -1.8708377790     3.2459677864    -0.2079341052
   53      H      -0.6386094010    -0.1561961978    -2.6028578020
   54      H      -0.0437425671    -1.1222267460    -1.1960241397
   55      H      -0.3082584829     1.9785842036    -1.3339429116
   56      H       0.0713230037     1.0627833769     0.1944096109
 ----------------------------------------------------------------

    9   -1510.2925317663      3.88E-09 Convergence criterion met
 Total energy in the final basis set = -1510.29253177
 Final energy is   -1510.29253176625
 **  OPTIMIZATION CONVERGED  **

                    Orbital Energies (a.u.)
 --------------------------------------------------------------

 Alpha MOs
 -- Occupied --
-18.943 -18.936 -18.929 -18.925 -18.891 -18.886 -18.885 -18.880
-18.872 -18.872 -10.110 -10.103 -10.097 -10.095 -10.073 -10.066
-10.065 -10.063 -10.060 -10.059 -10.055 -10.043 -10.041 -10.037
-10.035 -10.035 -10.023 -10.022 -10.019 -10.018  -1.021  -1.012
 -1.010  -1.002  -0.973  -0.968  -0.945  -0.940  -0.933  -0.930
 -0.767  -0.762  -0.730  -0.722  -0.712  -0.706  -0.695  -0.665
 -0.649  -0.617  -0.599  -0.583  -0.548  -0.543  -0.540  -0.535
 -0.516  -0.507  -0.487  -0.475  -0.468  -0.458  -0.449  -0.447
 -0.438  -0.433  -0.428  -0.416  -0.411  -0.409  -0.403  -0.399
 -0.394  -0.379  -0.378  -0.366  -0.364  -0.357  -0.356  -0.351
 -0.350  -0.336  -0.335  -0.330  -0.328  -0.326  -0.324  -0.313
 -0.308  -0.308  -0.303  -0.302  -0.295  -0.291  -0.285  -0.278
 -0.269  -0.256  -0.255  -0.244  -0.241  -0.237  -0.232  -0.190
 -0.180  -0.172  -0.165  -0.161  -0.158  -0.155  -0.150  -0.146
 -0.142

          Ground-State Mulliken Net Atomic Charges

     Atom                 Charge (a.u.)
  ----------------------------------------
      1 O                    -0.210441
      2 C                     0.214262
      3 C                    -0.078003
      4 C                    -0.078587
      5 C                     0.214143
      6 O                    -0.173564
      7 C                    -0.059617
      8 C                    -0.049944
      9 O                    -0.165768
     10 C                     0.218778
     11 C                    -0.077751
     12 C                    -0.078169
     13 C                     0.214003
     14 O                    -0.210538
     15 O                    -0.178029
     16 O                    -0.173344
     17 O                    -0.212944
     18 C                    -0.130318
     19 C                     0.026300
     20 C                    -0.144110
     21 C                    -0.143628
     22 C                     0.024528
     23 O                    -0.185602
     24 H                     0.087513
     25 H                     0.085555
     26 H                     0.082098
     27 H                     0.078684
     28 H                     0.074417
     29 H                     0.078828
     30 H                     0.073716
     31 H                     0.091323
     32 O                    -0.213311
     33 C                    -0.153422
     34 C                     0.024264
     35 C                    -0.144039
     36 C                    -0.143954
     37 C                     0.025808
     38 O                    -0.186257
     39 H                     0.084490
     40 H                     0.086316
     41 H                     0.110122
     42 H                     0.091311
     43 H                     0.078223
     44 H                     0.072915
     45 H                     0.077872
     46 H                     0.073247
     47 H                     0.082643
     48 H                     0.097610
     49 H                     0.074716
     50 H                     0.094793
     51 H                     0.085950
     52 H                     0.092034
     53 H                     0.093067
     54 H                     0.095052
     55 H                     0.081301
     56 H                     0.105463
  ----------------------------------------
  Sum of atomic charges =     0.000000

                    Cartesian Multipole Moments
 -----------------------------------------------------------------
    Charge (ESU x 10^10)
                 0.0000
    Dipole Moment (Debye)
         X      -1.1486      Y      -0.1354      Z      -1.5042
       Tot       1.8974
    Quadrupole Moments (Debye-Ang)
        XX    -143.3210     XY       6.9661     YY    -153.5113
        XZ     -20.5125     YZ       2.2792     ZZ    -170.2220

 Total job time:  98.85s(wall), 4710.77s(cpu)
        *  Thank you very much for using Q-Chem.  Have a nice day.  *
