 Q-Chem 5.0, Q-Chem, Inc., Pleasanton, CA (2017)
 Q-Chem 5.0.1 for Intel X86 EM64T Linux

User input:
--------------------------------------------------------------
$molecule
0  1
O -3.94934 -3.66094 2.70899
C -3.26408 -4.56952 2.26188
C -3.36658 -6.02376 2.66595
C -2.07891 -6.71132 3.14867
C -0.87114 -5.82146 3.34241
O 0.09949 -6.15382 2.44084
C 1.25818 -5.31759 2.52693
C 0.90793 -3.89044 2.11865
O 1.83263 -2.96909 2.71775
C 2.55629 -3.4603 3.75417
C 3.52035 -2.4503 4.3296
C 4.89158 -2.39847 3.64017
C 4.97832 -3.08046 2.28959
O 5.35964 -2.55531 1.25355
O -2.42554 -4.3023 1.22641
O 4.74952 -4.42076 2.28391
O 2.03171 -4.0915 4.66596
C 4.8412 -5.22109 1.16434
C 3.09007 -0.96904 4.16375
C 3.75044 -0.11518 5.24537
C 5.19497 -0.15396 4.79083
C 5.03909 -0.87786 3.44723
O 3.75221 -0.5211 3.00598
H 3.6248 -2.625 5.42876
H 5.68523 -2.85277 4.27311
H 1.98808 -0.8219 4.1874
H 3.36256 0.92038 5.11041
H 3.57608 -0.43136 6.29626
H 5.54702 0.89236 4.65324
H 5.88847 -0.70767 5.46043
H 5.88045 -0.61342 2.7698
O -0.79783 -4.93975 4.1919
C -2.28434 -3.06069 0.64147
C -4.26875 -6.25049 3.89734
C -4.77033 -7.69508 3.92247
C -3.50779 -8.42738 4.32694
C -2.54753 -7.24909 4.51047
O -3.37721 -6.21558 4.98608
H -3.79516 -6.54915 1.78292
H -1.79952 -7.53751 2.45413
H -1.94141 -2.31736 1.39239
H -5.13268 -5.55261 3.94644
H -5.50882 -7.78327 4.75124
H -5.23756 -8.03864 2.97452
H -3.68657 -8.92077 5.30839
H -3.13337 -9.17287 3.59251
H -1.69732 -7.53898 5.16688
H -3.25183 -2.73138 0.20605
H -1.53043 -3.12452 -0.16967
H 4.60112 -6.26715 1.4446
H 5.87261 -5.18853 0.75297
H 4.11752 -4.88189 0.39244
H 0.90674 -3.80385 1.01104
H -0.0869 -3.54986 2.45333
H 2.01256 -5.661 1.78869
H 1.70636 -5.7297 3.43921
$end

$opt
CONSTRAINT
tors           1           2           3           4    -125.615
tors           3           4           5           6    -114.215
tors           4           5           6           7    +177.671
tors           5           6           7           8     -66.092
tors           6           7           8           9    +155.563
tors           7           8           9          10     -16.802
tors           8           9          10          11    +179.317
tors           9          10          11          12     -87.043
tors          11          12          13          14    +125.010
ENDCONSTRAINT
$end

$rem
JOBTYPE                   OPT
METHOD                    B3LYP
DFT_D                     d3_op
BASIS                     STO-3G
GEOM_OPT_MAX_CYCLES       100
GEOM_OPT_TOL_GRADIENT     300
GEOM_OPT_TOL_DISPLACEMENT 1200
GEOM_OPT_TOL_ENERGY       100
SYMMETRY                  False
THRESH                    12
SCF_CONVERGENCE           8
MAX_SUB_FILE_NUM          128
MEM_STATIC                400
MEM_TOTAL                 4000
$end
--------------------------------------------------------------

   16   -1510.0880069898      3.54E-09 Convergence criterion met
 Total energy in the final basis set = -1510.08800699
   15   -1510.1674282927      2.77E-09 Convergence criterion met
 Total energy in the final basis set = -1510.16742829
   14   -1510.2141521789      9.90E-09 Convergence criterion met
 Total energy in the final basis set = -1510.21415218
   15   -1510.2443061782      2.36E-09 Convergence criterion met
 Total energy in the final basis set = -1510.24430618
   14   -1510.2601778726      6.35E-09 Convergence criterion met
 Total energy in the final basis set = -1510.26017787
   14   -1510.2684636613      3.66E-09 Convergence criterion met
 Total energy in the final basis set = -1510.26846366
   13   -1510.2724764172      4.04E-09 Convergence criterion met
 Total energy in the final basis set = -1510.27247642
   13   -1510.2738775140      2.68E-09 Convergence criterion met
   10   -1510.2746502476      6.80E-09 Convergence criterion met
 Total energy in the final basis set = -1510.27465025
    9   -1510.2746588405      9.68E-09 Convergence criterion met
 Total energy in the final basis set = -1510.27465884
    9   -1510.2746659247      6.59E-09 Convergence criterion met
 Total energy in the final basis set = -1510.27466592
    9   -1510.2746710954      8.78E-09 Convergence criterion met
 Total energy in the final basis set = -1510.27467110
    9   -1510.2746739287      6.65E-09 Convergence criterion met
 Total energy in the final basis set = -1510.27467393
    9   -1510.2746751752      5.01E-09 Convergence criterion met
 Total energy in the final basis set = -1510.27467518

             Standard Nuclear Orientation (Angstroms)
    I     Atom           X                Y                Z
 ----------------------------------------------------------------
    1      O       3.8039284486    -2.5756681243    -0.9100393329
    2      C       3.5935825548    -1.3579808938    -1.0942972254
    3      C       4.5439622392    -0.1745681197    -0.6860019774
    4      C       3.8965133173     0.9609266597     0.2157864835
    5      C       2.3609403041     0.7897855187     0.4672213320
    6      O       1.6884733378     1.8819894940    -0.1744076781
    7      C       0.2156728954     1.7713500856    -0.0346326847
    8      C      -0.3555659244     0.5194999753    -0.8115902910
    9      O      -1.6492382903    -0.0739467380    -0.3705864892
   10      C      -2.1426760658     0.2538690349     0.9227364274
   11      C      -3.5148070595    -0.4971717035     1.0970290524
   12      C      -4.7820203590     0.2897289346     0.5515942153
   13      C      -4.4236317419     1.4842543080    -0.4053730298
   14      O      -4.8428676889     1.6734846844    -1.5666436181
   15      O       2.4510428838    -0.8494200753    -1.7977916330
   16      O      -3.4925152976     2.3483958859     0.2563236045
   17      O      -1.5646132743     0.8952088065     1.8332857509
   18      C      -3.0879014566     3.4484340071    -0.6485859313
   19      C      -3.6458098843    -1.8668632283     0.3008148111
   20      C      -4.7387333490    -2.7386161489     1.0358805130
   21      C      -6.0512930072    -1.9621906066     0.6443681317
   22      C      -5.4765197544    -0.8436623138    -0.3102795007
   23      O      -4.3145925648    -1.4917703252    -0.9655432435
   24      H      -3.6298460591    -0.6665819853     2.1827281569
   25      H      -5.4140056695     0.6593225375     1.3797281387
   26      H      -2.6847772923    -2.3771488203     0.0987545690
   27      H      -4.7430166900    -3.7642776794     0.6332855305
   28      H      -4.5765397947    -2.7859849507     2.1245038878
   29      H      -6.7579965765    -2.6086046482     0.1003194738
   30      H      -6.5677171620    -1.5343056053     1.5187607884
   31      H      -6.1768769075    -0.4517815298    -1.0732883642
   32      O       1.7920786636    -0.1136450906     1.1181980613
   33      C       1.6357119299    -1.9846227464    -2.2973504953
   34      C       5.6690355755    -0.7248590858     0.2844216379
   35      C       6.8309201300     0.3395519337     0.3822582546
   36      C       6.1710747591     1.4264278137     1.3101219191
   37      C       4.7445753924     0.7935562102     1.5518102898
   38      O       5.0168518459    -0.6591760414     1.6134282492
   39      H       4.9641117896     0.2594399062    -1.6124511434
   40      H       4.0530463521     1.9539750492    -0.2402581675
   41      H       1.1788980208    -2.5567780711    -1.4639817088
   42      H       5.9778668911    -1.7639106814     0.0581309969
   43      H       7.7234874375    -0.1051895795     0.8502643130
   44      H       7.1119089245     0.7381367782    -0.6057407614
   45      H       6.7123250672     1.5249331072     2.2645786986
   46      H       6.1125522514     2.4176500143     0.8327839376
   47      H       4.2251520595     1.1301581080     2.4698101711
   48      H       2.2437397333    -2.6810039976    -2.9091135624
   49      H       0.8383437973    -1.5401541983    -2.9202980544
   50      H      -2.3549212100     4.0527268171    -0.0833379786
   51      H      -3.9524172720     4.0826518473    -0.9320729405
   52      H      -2.6180008465     3.0594521829    -1.5750686172
   53      H      -0.5030699349     0.7624511741    -1.8848940501
   54      H       0.4062711089    -0.2848817092    -0.7484417110
   55      H      -0.1861637425     2.7112025297    -0.4574106060
   56      H      -0.1175334118     1.6644243704     1.0246895262
 ----------------------------------------------------------------

    9   -1510.2746761294      4.65E-09 Convergence criterion met
 Total energy in the final basis set = -1510.27467613
 Final energy is   -1510.27467612943
 **  OPTIMIZATION CONVERGED  **

                    Orbital Energies (a.u.)
 --------------------------------------------------------------

 Alpha MOs
 -- Occupied --
-18.941 -18.937 -18.936 -18.930 -18.886 -18.885 -18.881 -18.879
-18.876 -18.870 -10.106 -10.102 -10.101 -10.096 -10.069 -10.066
-10.065 -10.059 -10.058 -10.057 -10.056 -10.054 -10.040 -10.039
-10.036 -10.035 -10.020 -10.019 -10.018 -10.018  -1.018  -1.015
 -1.008  -1.003  -0.968  -0.968  -0.941  -0.939  -0.938  -0.932
 -0.763  -0.762  -0.726  -0.722  -0.712  -0.704  -0.691  -0.667
 -0.664  -0.619  -0.597  -0.586  -0.546  -0.544  -0.536  -0.536
 -0.512  -0.510  -0.480  -0.475  -0.465  -0.460  -0.450  -0.446
 -0.439  -0.430  -0.428  -0.418  -0.415  -0.410  -0.408  -0.390
 -0.385  -0.380  -0.374  -0.373  -0.362  -0.356  -0.353  -0.351
 -0.346  -0.337  -0.336  -0.332  -0.331  -0.329  -0.327  -0.309
 -0.309  -0.305  -0.304  -0.298  -0.296  -0.290  -0.283  -0.279
 -0.273  -0.265  -0.255  -0.253  -0.234  -0.232  -0.230  -0.186
 -0.182  -0.179  -0.171  -0.158  -0.157  -0.146  -0.145  -0.142
 -0.139

          Ground-State Mulliken Net Atomic Charges

     Atom                 Charge (a.u.)
  ----------------------------------------
      1 O                    -0.207581
      2 C                     0.211567
      3 C                    -0.078291
      4 C                    -0.080059
      5 C                     0.209011
      6 O                    -0.171698
      7 C                    -0.070668
      8 C                    -0.056830
      9 O                    -0.170735
     10 C                     0.221402
     11 C                    -0.079342
     12 C                    -0.077756
     13 C                     0.211551
     14 O                    -0.208513
     15 O                    -0.173945
     16 O                    -0.169732
     17 O                    -0.211040
     18 C                    -0.128491
     19 C                     0.025699
     20 C                    -0.143037
     21 C                    -0.145200
     22 C                     0.024153
     23 O                    -0.188487
     24 H                     0.084736
     25 H                     0.086222
     26 H                     0.086957
     27 H                     0.077786
     28 H                     0.073904
     29 H                     0.078165
     30 H                     0.073076
     31 H                     0.089470
     32 O                    -0.213794
     33 C                    -0.130305
     34 C                     0.024349
     35 C                    -0.144590
     36 C                    -0.143567
     37 C                     0.025954
     38 O                    -0.186341
     39 H                     0.084723
     40 H                     0.085760
     41 H                     0.092062
     42 H                     0.091034
     43 H                     0.078365
     44 H                     0.072624
     45 H                     0.078168
     46 H                     0.073333
     47 H                     0.084824
     48 H                     0.090858
     49 H                     0.091607
     50 H                     0.092214
     51 H                     0.090841
     52 H                     0.089196
     53 H                     0.083148
     54 H                     0.096954
     55 H                     0.079937
     56 H                     0.120356
  ----------------------------------------
  Sum of atomic charges =     0.000000

                    Cartesian Multipole Moments
 -----------------------------------------------------------------
    Charge (ESU x 10^10)
                 0.0000
    Dipole Moment (Debye)
         X      -0.1240      Y       1.8186      Z      -0.9291
       Tot       2.0460
    Quadrupole Moments (Debye-Ang)
        XX    -145.0982     XY      10.1565     YY    -156.7880
        XZ     -13.9759     YZ       0.5954     ZZ    -163.9551

 Total job time:  63.60s(wall), 3025.62s(cpu)
        *  Thank you very much for using Q-Chem.  Have a nice day.  *
