 Q-Chem 5.0, Q-Chem, Inc., Pleasanton, CA (2017)
 Q-Chem 5.0.1 for Intel X86 EM64T Linux

User input:
--------------------------------------------------------------
$molecule
0  1
O 3.8039284486 -2.5756681243 -0.9100393329
C 3.5935825548 -1.3579808938 -1.0942972254
C 4.5439622392 -0.1745681197 -0.6860019774
C 3.8965133173 0.9609266597 0.2157864835
C 2.3609403041 0.7897855187 0.467221332
O 1.6884733378 1.881989494 -0.1744076781
C 0.2156728954 1.7713500856 -0.0346326847
C -0.3555659244 0.5194999753 -0.811590291
O -1.6492382903 -0.073946738 -0.3705864892
C -2.1426760658 0.2538690349 0.9227364274
C -3.5148070595 -0.4971717035 1.0970290524
C -4.782020359 0.2897289346 0.5515942153
C -4.4236317419 1.484254308 -0.4053730298
O -4.8428676889 1.6734846844 -1.5666436181
O 2.4510428838 -0.8494200753 -1.797791633
O -3.4925152976 2.3483958859 0.2563236045
O -1.5646132743 0.8952088065 1.8332857509
C -3.0879014566 3.4484340071 -0.6485859313
C -3.6458098843 -1.8668632283 0.3008148111
C -4.738733349 -2.7386161489 1.035880513
C -6.0512930072 -1.9621906066 0.6443681317
C -5.4765197544 -0.8436623138 -0.3102795007
O -4.3145925648 -1.4917703252 -0.9655432435
H -3.6298460591 -0.6665819853 2.1827281569
H -5.4140056695 0.6593225375 1.3797281387
H -2.6847772923 -2.3771488203 0.098754569
H -4.74301669 -3.7642776794 0.6332855305
H -4.5765397947 -2.7859849507 2.1245038878
H -6.7579965765 -2.6086046482 0.1003194738
H -6.567717162 -1.5343056053 1.5187607884
H -6.1768769075 -0.4517815298 -1.0732883642
O 1.7920786636 -0.1136450906 1.1181980613
C 1.6357119299 -1.9846227464 -2.2973504953
C 5.6690355755 -0.7248590858 0.2844216379
C 6.83092013 0.3395519337 0.3822582546
C 6.1710747591 1.4264278137 1.3101219191
C 4.7445753924 0.7935562102 1.5518102898
O 5.0168518459 -0.6591760414 1.6134282492
H 4.9641117896 0.2594399062 -1.6124511434
H 4.0530463521 1.9539750492 -0.2402581675
H 1.1788980208 -2.5567780711 -1.4639817088
H 5.9778668911 -1.7639106814 0.0581309969
H 7.7234874375 -0.1051895795 0.850264313
H 7.1119089245 0.7381367782 -0.6057407614
H 6.7123250672 1.5249331072 2.2645786986
H 6.1125522514 2.4176500143 0.8327839376
H 4.2251520595 1.130158108 2.4698101711
H 2.2437397333 -2.6810039976 -2.9091135624
H 0.8383437973 -1.5401541983 -2.9202980544
H -2.35492121 4.0527268171 -0.0833379786
H -3.952417272 4.0826518473 -0.9320729405
H -2.6180008465 3.0594521829 -1.5750686172
H -0.5030699349 0.7624511741 -1.8848940501
H 0.4062711089 -0.2848817092 -0.748441711
H -0.1861637425 2.7112025297 -0.457410606
H -0.1175334118 1.6644243704 1.0246895262
$end

$rem
JOBTYPE                   OPT
METHOD                    B3LYP
DFT_D                     d3_op
BASIS                     STO-3G
GEOM_OPT_MAX_CYCLES       100
GEOM_OPT_TOL_GRADIENT     300
GEOM_OPT_TOL_DISPLACEMENT 1200
GEOM_OPT_TOL_ENERGY       100
SYMMETRY                  False
THRESH                    12
SCF_CONVERGENCE           8
MAX_SUB_FILE_NUM          128
MEM_STATIC                400
MEM_TOTAL                 4000
$end
--------------------------------------------------------------

   16   -1510.2746769981      5.06E-09 Convergence criterion met
 Total energy in the final basis set = -1510.27467700
   14   -1510.2762119482      7.27E-09 Convergence criterion met
 Total energy in the final basis set = -1510.27621195
   13   -1510.2777835799      9.97E-09 Convergence criterion met
 Total energy in the final basis set = -1510.27778358
   13   -1510.2786897374      5.42E-09 Convergence criterion met
 Total energy in the final basis set = -1510.27868974
   13   -1510.2801960925      4.35E-09 Convergence criterion met
 Total energy in the final basis set = -1510.28019609
   14   -1510.2815298671      4.98E-09 Convergence criterion met
 Total energy in the final basis set = -1510.28152987
   14   -1510.2828315760      5.40E-09 Convergence criterion met
 Total energy in the final basis set = -1510.28283158
   14   -1510.2839214121      4.94E-09 Convergence criterion met
   12   -1510.2924082868      4.45E-09 Convergence criterion met
 Total energy in the final basis set = -1510.29240829
   11   -1510.2924578801      6.22E-09 Convergence criterion met
 Total energy in the final basis set = -1510.29245788
   11   -1510.2924643240      3.82E-09 Convergence criterion met
 Total energy in the final basis set = -1510.29246432
   11   -1510.2924871482      7.08E-09 Convergence criterion met
 Total energy in the final basis set = -1510.29248715
   10   -1510.2924734411      9.55E-09 Convergence criterion met
 Total energy in the final basis set = -1510.29247344
   10   -1510.2924885115      7.28E-09 Convergence criterion met
 Total energy in the final basis set = -1510.29248851

             Standard Nuclear Orientation (Angstroms)
    I     Atom           X                Y                Z
 ----------------------------------------------------------------
    1      O       3.9552863793    -2.0554617830     1.6874298899
    2      C       3.6808042356    -1.4843726784     0.6101244463
    3      C       4.5923658893    -0.4896303249    -0.1921570110
    4      C       3.8739769063     0.8714342437    -0.5822261939
    5      C       2.3929776061     0.9539707555    -0.0868050592
    6      O       1.5458638149     1.0919692661    -1.2414951149
    7      C       0.1243428834     1.1163791387    -0.8242916514
    8      C      -0.6089049361    -0.1114442975    -1.4730992626
    9      O      -2.0187223004    -0.2247234315    -1.0237939958
   10      C      -2.1112537219    -0.8688716428     0.2492367453
   11      C      -3.6228156733    -1.1258584309     0.5646123458
   12      C      -4.5453788896     0.1590280882     0.4672647284
   13      C      -3.7791602945     1.5053001206     0.2170702021
   14      O      -4.0273162125     2.3723066856    -0.6464621923
   15      O       2.4599743719    -1.6547045787    -0.1161542074
   16      O      -2.7500496609     1.6165181462     1.2098743948
   17      O      -1.1351408884    -1.2256786261     0.9474421302
   18      C      -2.0950812416     2.9418458779     1.1284650307
   19      C      -4.2838643387    -2.0334449019    -0.5655666145
   20      C      -5.6883000458    -2.5421540184    -0.0486037105
   21      C      -6.5688327452    -1.2486560718    -0.2247204690
   22      C      -5.4904543952    -0.2232158328    -0.7479964536
   23      O      -4.6268444360    -1.0544820818    -1.6192337946
   24      H      -3.6805744303    -1.5962188756     1.5615821256
   25      H      -5.1273844845     0.2775815956     1.4003159223
   26      H      -3.6181155722    -2.8215419268    -0.9679856015
   27      H      -6.0521367317    -3.3689939811    -0.6789725188
   28      H      -5.6439099491    -2.8884732956     0.9964543687
   29      H      -7.3552939568    -1.3975732046    -0.9815006955
   30      H      -7.0393456578    -0.9196288177     0.7154317679
   31      H      -5.8768578818     0.6516968003    -1.3063441576
   32      O       1.9741685108     0.9558735221     1.0917683101
   33      C       1.5298948178    -2.5496215274     0.6177488375
   34      C       5.7838639273     0.0374517742     0.7069431357
   35      C       6.8716897787     0.6914200103    -0.2304813698
   36      C       6.1617622756     2.0395955248    -0.6239511007
   37      C       4.8039699574     1.9155773724     0.1755324615
   38      O       5.1893692547     1.1983718820     1.4113783449
   39      H       4.9573549691    -1.0087748904    -1.0977080493
   40      H       3.8795671334     1.0302428730    -1.6745417372
   41      H       0.5660096952    -2.0118742478     0.7725568412
   42      H       6.1551592325    -0.7084160545     1.4366730288
   43      H       7.8027078750     0.8738036380     0.3295621184
   44      H       7.1033573309     0.0607550419    -1.1039485521
   45      H       6.7332662839     2.9142867559    -0.2752914870
   46      H       5.9965444249     2.1341658911    -1.7091557198
   47      H       4.3104320575     2.8755715092     0.4220758334
   48      H       1.9816820518    -2.8317436850     1.5888587669
   49      H       1.3598672860    -3.4592401239     0.0084515693
   50      H      -1.1546145651     2.8621398203     1.7042161006
   51      H      -2.7362913748     3.7276141287     1.5786463164
   52      H      -1.8760679476     3.2260688653     0.0804942057
   53      H      -0.6617801336     0.0130253189    -2.5732725157
   54      H      -0.0398804584    -1.0352997586    -1.2388384848
   55      H      -0.3316654232     2.0659222072    -1.1713181266
   56      H       0.0855506487     1.0545850680     0.2853138373
 ----------------------------------------------------------------

    9   -1510.2924883443      3.25E-09 Convergence criterion met
 Total energy in the final basis set = -1510.29248834
 Final energy is   -1510.29248834427
 **  OPTIMIZATION CONVERGED  **

                    Orbital Energies (a.u.)
 --------------------------------------------------------------

 Alpha MOs
 -- Occupied --
-18.942 -18.936 -18.929 -18.925 -18.891 -18.886 -18.885 -18.880
-18.872 -18.872 -10.110 -10.103 -10.097 -10.095 -10.073 -10.066
-10.065 -10.064 -10.060 -10.059 -10.055 -10.043 -10.041 -10.037
-10.035 -10.035 -10.024 -10.022 -10.019 -10.018  -1.021  -1.012
 -1.010  -1.002  -0.973  -0.968  -0.945  -0.940  -0.933  -0.930
 -0.768  -0.762  -0.730  -0.722  -0.712  -0.706  -0.695  -0.665
 -0.649  -0.617  -0.599  -0.583  -0.548  -0.543  -0.540  -0.535
 -0.516  -0.507  -0.487  -0.475  -0.468  -0.458  -0.449  -0.447
 -0.437  -0.433  -0.428  -0.416  -0.411  -0.409  -0.403  -0.399
 -0.394  -0.379  -0.378  -0.366  -0.363  -0.357  -0.356  -0.351
 -0.350  -0.336  -0.335  -0.330  -0.328  -0.326  -0.324  -0.313
 -0.308  -0.308  -0.303  -0.302  -0.295  -0.291  -0.285  -0.278
 -0.269  -0.256  -0.255  -0.244  -0.241  -0.237  -0.232  -0.190
 -0.180  -0.172  -0.165  -0.161  -0.158  -0.155  -0.150  -0.146
 -0.142

          Ground-State Mulliken Net Atomic Charges

     Atom                 Charge (a.u.)
  ----------------------------------------
      1 O                    -0.210355
      2 C                     0.214149
      3 C                    -0.077952
      4 C                    -0.078628
      5 C                     0.214089
      6 O                    -0.173579
      7 C                    -0.059479
      8 C                    -0.049831
      9 O                    -0.165902
     10 C                     0.219065
     11 C                    -0.077701
     12 C                    -0.078153
     13 C                     0.214059
     14 O                    -0.210537
     15 O                    -0.178209
     16 O                    -0.173299
     17 O                    -0.213132
     18 C                    -0.130161
     19 C                     0.026273
     20 C                    -0.144163
     21 C                    -0.143573
     22 C                     0.024532
     23 O                    -0.185552
     24 H                     0.087508
     25 H                     0.085499
     26 H                     0.082049
     27 H                     0.078696
     28 H                     0.074411
     29 H                     0.078817
     30 H                     0.073730
     31 H                     0.091303
     32 O                    -0.213261
     33 C                    -0.153422
     34 C                     0.024312
     35 C                    -0.144057
     36 C                    -0.143893
     37 C                     0.025644
     38 O                    -0.186182
     39 H                     0.084489
     40 H                     0.086362
     41 H                     0.110003
     42 H                     0.091240
     43 H                     0.078197
     44 H                     0.072874
     45 H                     0.077886
     46 H                     0.073253
     47 H                     0.082710
     48 H                     0.097615
     49 H                     0.074644
     50 H                     0.094964
     51 H                     0.086097
     52 H                     0.091763
     53 H                     0.093095
     54 H                     0.094954
     55 H                     0.081302
     56 H                     0.105436
  ----------------------------------------
  Sum of atomic charges =     0.000000

                    Cartesian Multipole Moments
 -----------------------------------------------------------------
    Charge (ESU x 10^10)
                 0.0000
    Dipole Moment (Debye)
         X      -1.2163      Y      -0.0871      Z      -1.5170
       Tot       1.9463
    Quadrupole Moments (Debye-Ang)
        XX    -144.1234     XY       8.2998     YY    -153.8076
        XZ     -20.4859     YZ       2.9549     ZZ    -169.2480

 Total job time:  103.48s(wall), 4930.11s(cpu)
        *  Thank you very much for using Q-Chem.  Have a nice day.  *
