 Q-Chem 5.0, Q-Chem, Inc., Pleasanton, CA (2017)
 Q-Chem 5.0.1 for Intel X86 EM64T Linux

User input:
--------------------------------------------------------------
$molecule
0  1
O 2.8731607464 -2.808920252 -0.9783558883
C 2.7281937871 -1.5703901067 -0.8869157359
C 3.896053975 -0.5319084631 -0.787156047
C 3.6285660278 0.9453061559 -0.2818158972
C 2.2604622081 1.248377506 0.4450662741
O 1.6834879719 2.3865628103 -0.2227660128
C 0.2018085826 2.4144222004 -0.2091725419
C -0.4215660315 1.2978741065 -1.1390036254
O -1.4982894469 0.4140370247 -0.588162475
C -1.6155727626 0.254877181 0.8278951114
C -2.8302629821 -0.7116052887 1.0947631084
C -4.2182372983 -0.0860229436 0.6329304983
C -4.0835936138 1.2944986952 -0.1029487098
O -4.5190253248 1.6017796642 -1.2321798979
O 1.4639414793 -0.920425533 -1.0487312073
O -3.3782354438 2.198104388 0.7585143587
O -0.9243963498 0.7852518854 1.7268921061
C -3.2082416815 3.5082127819 0.0910807293
C -2.8396438012 -2.0685021082 0.2747412347
C -3.8820570619 -3.0460090925 0.9519598358
C -5.2452878451 -2.4311490778 0.4631289046
C -4.7329332301 -1.1969674509 -0.3747003269
O -3.4862136981 -1.6970530488 -1.0033482163
H -2.8351767734 -0.9057867503 2.1818512716
H -4.9002517387 0.0390374744 1.4938386101
H -1.8438898637 -2.5133926873 0.1004014852
H -3.7432866292 -4.0719606562 0.5757563921
H -3.7877253256 -3.0564789165 2.0495097053
H -5.7970471876 -3.1333272346 -0.1818915994
H -5.8991117108 -2.1263649499 1.2958924902
H -5.4250105183 -0.8106270525 -1.1482087688
O 1.7529637131 0.6385635168 1.4077837355
C 0.3994182054 -1.9253593944 -1.2851626837
C 5.0460922917 -1.0093540928 0.2045271606
C 6.4077627957 -0.4064772657 -0.3137375496
C 6.2000503227 1.1162750119 0.0260319323
C 4.8105702144 1.0800526236 0.779880912
O 4.7920824321 -0.2434093964 1.4445943954
H 4.305655997 -0.4722331381 -1.814244682
H 3.7277982143 1.6692536005 -1.1087245692
H 0.4059561584 -2.7068952991 -0.499771795
H 5.0437144549 -2.0993187242 0.4014536914
H 7.2529759238 -0.8324856489 0.250243576
H 6.5695741518 -0.5901480332 -1.3879241551
H 6.9922319603 1.4972753108 0.6897232803
H 6.1599554227 1.7498227541 -0.8745945658
H 4.6601791835 1.8872929498 1.5225249844
H 0.5230891499 -2.4156148718 -2.2720014791
H -0.5515823807 -1.3578982361 -1.2561371386
H -2.5600596897 4.1085193649 0.7555538658
H -4.1804762506 4.025023708 -0.0439828995
H -2.7281897215 3.3985953269 -0.9021150898
H -0.8780637208 1.7464307494 -2.0447733618
H 0.4145134637 0.6281456685 -1.4480845786
H -0.0761046244 3.4250538086 -0.5632177913
H -0.1813648952 2.2305156475 0.8213203983
$end

$rem
JOBTYPE                   OPT
METHOD                    B3LYP
DFT_D                     d3_op
BASIS                     STO-3G
GEOM_OPT_MAX_CYCLES       100
GEOM_OPT_TOL_GRADIENT     300
GEOM_OPT_TOL_DISPLACEMENT 1200
GEOM_OPT_TOL_ENERGY       100
SYMMETRY                  False
THRESH                    12
SCF_CONVERGENCE           8
MAX_SUB_FILE_NUM          128
MEM_STATIC                400
MEM_TOTAL                 4000
$end
--------------------------------------------------------------

   16   -1510.2690940465      5.18E-09 Convergence criterion met
 Total energy in the final basis set = -1510.26909405
   14   -1510.2710094734      5.21E-09 Convergence criterion met
 Total energy in the final basis set = -1510.27100947
   14   -1510.2749919112      6.00E-09 Convergence criterion met
 Total energy in the final basis set = -1510.27499191
   13   -1510.2771443317      6.11E-09 Convergence criterion met
 Total energy in the final basis set = -1510.27714433
   14   -1510.2785794839      3.50E-09 Convergence criterion met
 Total energy in the final basis set = -1510.27857948
   14   -1510.2795068287      4.85E-09 Convergence criterion met
 Total energy in the final basis set = -1510.27950683
   14   -1510.2798222760      4.20E-09 Convergence criterion met
 Total energy in the final basis set = -1510.27982228
   13   -1510.2805644925      8.37E-09 Convergence criterion met
   11   -1510.3041994140      6.98E-09 Convergence criterion met
 Total energy in the final basis set = -1510.30419941
   11   -1510.3042016354      7.95E-09 Convergence criterion met
 Total energy in the final basis set = -1510.30420164
   11   -1510.3042071082      4.95E-09 Convergence criterion met
 Total energy in the final basis set = -1510.30420711
    9   -1510.3042081232      5.31E-09 Convergence criterion met
 Total energy in the final basis set = -1510.30420812
    9   -1510.3042094566      8.60E-09 Convergence criterion met
 Total energy in the final basis set = -1510.30420946
    9   -1510.3042086973      6.12E-09 Convergence criterion met
 Total energy in the final basis set = -1510.30420870

             Standard Nuclear Orientation (Angstroms)
    I     Atom           X                Y                Z
 ----------------------------------------------------------------
    1      O      -1.0488853496    -2.3691460319     1.2628658057
    2      C      -1.6155201857    -1.2624923004     1.3955144716
    3      C      -3.0834239118    -0.9151110771     0.9519718329
    4      C      -3.2374595416     0.3811591581     0.0500017295
    5      C      -1.8915719987     1.1001284987    -0.3046461309
    6      O      -1.8351364687     2.3373021861     0.4115747141
    7      C      -0.6535839618     3.1342987106     0.0069265093
    8      C       0.6664257217     2.7430163618     0.7726089506
    9      O       1.2271932636     1.4359067215     0.3669437513
   10      C       1.8207220390     1.5284709834    -0.9374277797
   11      C       2.3854167468     0.1268253271    -1.3421711749
   12      C       3.5456349851    -0.4179558618    -0.4045294050
   13      C       3.7244113321     0.4349226555     0.9017429681
   14      O       3.6004546534     0.0563582161     2.0850973910
   15      O      -1.0425192286    -0.1221947419     2.0283542712
   16      O       4.0722852721     1.7722866780     0.5162350870
   17      O       1.8440960764     2.5734745516    -1.6226821105
   18      C       4.1935178839     2.6276721952     1.7181177370
   19      C       1.3111291795    -1.0424338555    -1.2075024222
   20      C       1.7790313629    -2.2262909825    -2.1354655709
   21      C       3.0243886975    -2.7668384166    -1.3346686436
   22      C       2.9913937655    -1.8536106151    -0.0477272217
   23      O       1.5464688747    -1.5947144273     0.1476334556
   24      H       2.7401501000     0.2148349247    -2.3837254605
   25      H       4.5093544995    -0.4539531284    -0.9444786131
   26      H       0.2598299401    -0.6920453318    -1.3102716123
   27      H       0.9870487985    -2.9888468633    -2.2083513262
   28      H       2.0389316288    -1.8849284120    -3.1501141147
   29      H       2.8991110319    -3.8254939034    -1.0578784070
   30      H       3.9676685187    -2.6577106359    -1.8939621319
   31      H       3.4290026515    -2.2928787481     0.8697170950
   32      O      -1.0354822405     0.7361179959    -1.1422802194
   33      C       0.3335283572    -0.4516197854     2.4894899111
   34      C      -3.6493924030    -2.0330914588    -0.0155786732
   35      C      -5.2213713351    -1.9083921110    -0.0676453762
   36      C      -5.3916769668    -0.6164706536    -0.9507476632
   37      C      -3.8845043992    -0.2542649431    -1.2583452122
   38      O      -3.2197545422    -1.5716891385    -1.3574317627
   39      H      -3.7008730840    -0.8174386210     1.8642201235
   40      H      -3.9030228487     1.1206805223     0.5282749412
   41      H       0.3015182349    -1.2016499141     3.3054641345
   42      H      -3.2445743331    -3.0427031392     0.1927909732
   43      H      -5.6638458683    -2.7915148032    -0.5554860825
   44      H      -5.6632582564    -1.7994048032     0.9354917754
   45      H      -5.9318846161    -0.8332252709    -1.8860591553
   46      H      -5.9141383237     0.1960229362    -0.4209777175
   47      H      -3.7185604176     0.3333181239    -2.1821822786
   48      H       0.7596494420     0.4900981895     2.8767186190
   49      H       0.9407389072    -0.8437701792     1.6338147577
   50      H       4.3216241850     3.6614078416     1.3477401493
   51      H       5.0726356508     2.3442389571     2.3326552169
   52      H       3.2873619859     2.5654924090     2.3535729972
   53      H       1.4081877642     3.5545106990     0.6059490343
   54      H       0.4550165908     2.6510737760     1.8568056869
   55      H      -0.9070797722     4.1835740804     0.2618082960
   56      H      -0.4726949714     3.0523566129    -1.0855790517
 ----------------------------------------------------------------

    9   -1510.3042090776      2.27E-09 Convergence criterion met
 Total energy in the final basis set = -1510.30420908
 Final energy is   -1510.30420907759
 **  OPTIMIZATION CONVERGED  **

                    Orbital Energies (a.u.)
 --------------------------------------------------------------

 Alpha MOs
 -- Occupied --
-18.936 -18.935 -18.930 -18.915 -18.895 -18.883 -18.877 -18.876
-18.870 -18.858 -10.103 -10.100 -10.097 -10.083 -10.074 -10.072
-10.066 -10.058 -10.057 -10.052 -10.047 -10.037 -10.035 -10.032
-10.030 -10.020 -10.018 -10.016 -10.016 -10.013  -1.018  -1.012
 -1.003  -0.993  -0.971  -0.966  -0.938  -0.937  -0.933  -0.918
 -0.762  -0.758  -0.725  -0.719  -0.709  -0.701  -0.694  -0.664
 -0.637  -0.617  -0.594  -0.580  -0.545  -0.539  -0.533  -0.532
 -0.508  -0.505  -0.478  -0.474  -0.464  -0.452  -0.445  -0.440
 -0.429  -0.427  -0.425  -0.414  -0.414  -0.403  -0.399  -0.389
 -0.386  -0.374  -0.370  -0.367  -0.358  -0.355  -0.349  -0.346
 -0.342  -0.338  -0.335  -0.327  -0.325  -0.323  -0.319  -0.307
 -0.304  -0.302  -0.299  -0.294  -0.289  -0.286  -0.277  -0.271
 -0.266  -0.254  -0.251  -0.246  -0.242  -0.230  -0.223  -0.192
 -0.178  -0.165  -0.159  -0.156  -0.153  -0.148  -0.141  -0.141
 -0.136

          Ground-State Mulliken Net Atomic Charges

     Atom                 Charge (a.u.)
  ----------------------------------------
      1 O                    -0.210444
      2 C                     0.206536
      3 C                    -0.079195
      4 C                    -0.078979
      5 C                     0.219680
      6 O                    -0.167716
      7 C                    -0.052289
      8 C                    -0.048861
      9 O                    -0.172313
     10 C                     0.218475
     11 C                    -0.080279
     12 C                    -0.078930
     13 C                     0.213641
     14 O                    -0.210697
     15 O                    -0.177656
     16 O                    -0.172813
     17 O                    -0.217391
     18 C                    -0.128881
     19 C                     0.018861
     20 C                    -0.142152
     21 C                    -0.143997
     22 C                     0.027098
     23 O                    -0.182603
     24 H                     0.085532
     25 H                     0.085931
     26 H                     0.112982
     27 H                     0.082746
     28 H                     0.073650
     29 H                     0.079790
     30 H                     0.072384
     31 H                     0.090153
     32 O                    -0.220221
     33 C                    -0.147067
     34 C                     0.023348
     35 C                    -0.144126
     36 C                    -0.144131
     37 C                     0.025559
     38 O                    -0.188891
     39 H                     0.082749
     40 H                     0.085685
     41 H                     0.073580
     42 H                     0.091370
     43 H                     0.077380
     44 H                     0.072863
     45 H                     0.077312
     46 H                     0.072794
     47 H                     0.082095
     48 H                     0.074946
     49 H                     0.124407
     50 H                     0.090141
     51 H                     0.087970
     52 H                     0.089426
     53 H                     0.089395
     54 H                     0.091846
     55 H                     0.089142
     56 H                     0.100165
  ----------------------------------------
  Sum of atomic charges =     0.000000

                    Cartesian Multipole Moments
 -----------------------------------------------------------------
    Charge (ESU x 10^10)
                 0.0000
    Dipole Moment (Debye)
         X      -0.2518      Y       1.8067      Z       0.3244
       Tot       1.8527
    Quadrupole Moments (Debye-Ang)
        XX    -141.1793     XY      -1.3425     YY    -156.6532
        XZ      -1.5579     YZ       7.0834     ZZ    -161.9585

 Total job time:  147.61s(wall), 7042.19s(cpu)
        *  Thank you very much for using Q-Chem.  Have a nice day.  *
