 Q-Chem 5.0, Q-Chem, Inc., Pleasanton, CA (2017)
 Q-Chem 5.0.1 for Intel X86 EM64T Linux

User input:
--------------------------------------------------------------
$molecule
0  1
O -3.94934 -3.66094 2.70899
C -3.26408 -4.56952 2.26188
C -3.36658 -6.02376 2.66595
C -2.18334 -6.93769 2.30746
C -0.95418 -6.25979 1.74379
O -0.5839 -6.86585 0.57717
C 0.05933 -5.97524 -0.34061
C -0.95132 -4.98232 -0.90525
O -0.43565 -3.64593 -0.80014
C 0.53058 -3.46557 0.13421
C 1.03811 -2.04427 0.18898
C 1.76361 -1.56674 -1.07747
C 1.56789 -2.42184 -2.31327
O 1.16041 -2.0223 -3.39442
O -2.86613 -4.30052 1.00159
O 2.04396 -3.69368 -2.23597
O 0.95737 -4.1726 1.01804
C 2.02459 -4.59909 -3.27621
C -0.04138 -0.95533 0.32498
C 0.56679 0.29776 0.95538
C 1.44966 0.78459 -0.17562
C 1.06009 -0.20948 -1.27621
O -0.28283 -0.52788 -0.99379
H 1.71781 -1.9601 1.071
H 2.86192 -1.48432 -0.92173
H -0.91869 -1.28348 0.914
H -0.26584 1.02435 1.09419
H 1.08372 0.14901 1.92789
H 1.13919 1.81921 -0.44213
H 2.5424 0.75308 0.02659
H 1.25927 0.23317 -2.27669
O -0.27392 -5.52079 2.42962
C -3.2544 -3.14785 0.31241
C -3.37361 -6.1883 4.20101
C -4.01935 -7.52049 4.58115
C -2.93613 -8.49016 4.15799
C -1.85199 -7.51079 3.69719
O -2.02459 -6.39742 4.53932
H -4.33126 -6.39439 2.25234
H -2.50453 -7.74138 1.60506
H -2.9311 -2.24014 0.85944
H -3.88578 -5.35572 4.73116
H -4.10058 -7.54569 5.6916
H -5.0212 -7.7006 4.13547
H -2.59117 -9.04653 5.05793
H -3.22375 -9.20553 3.35746
H -0.85169 -7.99717 3.72518
H -4.36039 -3.12594 0.20843
H -2.8378 -3.11372 -0.71
H 2.46462 -5.55729 -2.93182
H 2.6231 -4.21503 -4.12955
H 0.97979 -4.78332 -3.60452
H -0.92378 -5.13358 -2.00855
H -2.0114 -5.21568 -0.77197
H 0.17734 -6.67544 -1.1986
H 1.16849 -5.90387 -0.29002
$end

$opt
CONSTRAINT
tors           1           2           3           4    -163.036
tors           3           4           5           6    -128.156
tors           4           5           6           7    +150.047
tors           5           6           7           8     -70.515
tors           6           7           8           9    +130.728
tors           7           8           9          10     -21.980
tors           8           9          10          11    +179.578
tors           9          10          11          12     -64.887
tors          11          12          13          14    +125.010
ENDCONSTRAINT
$end

$rem
JOBTYPE                   OPT
METHOD                    B3LYP
DFT_D                     d3_op
BASIS                     STO-3G
GEOM_OPT_MAX_CYCLES       100
GEOM_OPT_TOL_GRADIENT     300
GEOM_OPT_TOL_DISPLACEMENT 1200
GEOM_OPT_TOL_ENERGY       100
SYMMETRY                  False
THRESH                    12
SCF_CONVERGENCE           8
MAX_SUB_FILE_NUM          128
MEM_STATIC                400
MEM_TOTAL                 4000
$end
--------------------------------------------------------------

   15   -1510.0534710187      6.12E-09 Convergence criterion met
 Total energy in the final basis set = -1510.05347102
   14   -1510.1362719956      8.32E-09 Convergence criterion met
 Total energy in the final basis set = -1510.13627200
   14   -1510.1884536048      5.52E-09 Convergence criterion met
 Total energy in the final basis set = -1510.18845360
   14   -1510.2169258515      7.08E-09 Convergence criterion met
 Total energy in the final basis set = -1510.21692585
   14   -1510.2345252524      7.23E-09 Convergence criterion met
 Total energy in the final basis set = -1510.23452525
   14   -1510.2453698716      4.42E-09 Convergence criterion met
 Total energy in the final basis set = -1510.24536987
   13   -1510.2521425042      1.00E-08 Convergence criterion met
 Total energy in the final basis set = -1510.25214250
   12   -1510.2577396286      8.52E-09 Convergence criterion met
   11   -1510.2691066709      2.67E-09 Convergence criterion met
 Total energy in the final basis set = -1510.26910667
    9   -1510.2691152388      6.20E-09 Convergence criterion met
 Total energy in the final basis set = -1510.26911524
    9   -1510.2691200011      4.34E-09 Convergence criterion met
 Total energy in the final basis set = -1510.26912000
    9   -1510.2691231557      4.52E-09 Convergence criterion met
 Total energy in the final basis set = -1510.26912316
    9   -1510.2691246494      3.43E-09 Convergence criterion met
 Total energy in the final basis set = -1510.26912465
    9   -1510.2691256689      2.53E-09 Convergence criterion met
 Total energy in the final basis set = -1510.26912567

             Standard Nuclear Orientation (Angstroms)
    I     Atom           X                Y                Z
 ----------------------------------------------------------------
    1      O       2.8731607464    -2.8089202520    -0.9783558883
    2      C       2.7281937871    -1.5703901067    -0.8869157359
    3      C       3.8960539750    -0.5319084631    -0.7871560470
    4      C       3.6285660278     0.9453061559    -0.2818158972
    5      C       2.2604622081     1.2483775060     0.4450662741
    6      O       1.6834879719     2.3865628103    -0.2227660128
    7      C       0.2018085826     2.4144222004    -0.2091725419
    8      C      -0.4215660315     1.2978741065    -1.1390036254
    9      O      -1.4982894469     0.4140370247    -0.5881624750
   10      C      -1.6155727626     0.2548771810     0.8278951114
   11      C      -2.8302629821    -0.7116052887     1.0947631084
   12      C      -4.2182372983    -0.0860229436     0.6329304983
   13      C      -4.0835936138     1.2944986952    -0.1029487098
   14      O      -4.5190253248     1.6017796642    -1.2321798979
   15      O       1.4639414793    -0.9204255330    -1.0487312073
   16      O      -3.3782354438     2.1981043880     0.7585143587
   17      O      -0.9243963498     0.7852518854     1.7268921061
   18      C      -3.2082416815     3.5082127819     0.0910807293
   19      C      -2.8396438012    -2.0685021082     0.2747412347
   20      C      -3.8820570619    -3.0460090925     0.9519598358
   21      C      -5.2452878451    -2.4311490778     0.4631289046
   22      C      -4.7329332301    -1.1969674509    -0.3747003269
   23      O      -3.4862136981    -1.6970530488    -1.0033482163
   24      H      -2.8351767734    -0.9057867503     2.1818512716
   25      H      -4.9002517387     0.0390374744     1.4938386101
   26      H      -1.8438898637    -2.5133926873     0.1004014852
   27      H      -3.7432866292    -4.0719606562     0.5757563921
   28      H      -3.7877253256    -3.0564789165     2.0495097053
   29      H      -5.7970471876    -3.1333272346    -0.1818915994
   30      H      -5.8991117108    -2.1263649499     1.2958924902
   31      H      -5.4250105183    -0.8106270525    -1.1482087688
   32      O       1.7529637131     0.6385635168     1.4077837355
   33      C       0.3994182054    -1.9253593944    -1.2851626837
   34      C       5.0460922917    -1.0093540928     0.2045271606
   35      C       6.4077627957    -0.4064772657    -0.3137375496
   36      C       6.2000503227     1.1162750119     0.0260319323
   37      C       4.8105702144     1.0800526236     0.7798809120
   38      O       4.7920824321    -0.2434093964     1.4445943954
   39      H       4.3056559970    -0.4722331381    -1.8142446820
   40      H       3.7277982143     1.6692536005    -1.1087245692
   41      H       0.4059561584    -2.7068952991    -0.4997717950
   42      H       5.0437144549    -2.0993187242     0.4014536914
   43      H       7.2529759238    -0.8324856489     0.2502435760
   44      H       6.5695741518    -0.5901480332    -1.3879241551
   45      H       6.9922319603     1.4972753108     0.6897232803
   46      H       6.1599554227     1.7498227541    -0.8745945658
   47      H       4.6601791835     1.8872929498     1.5225249844
   48      H       0.5230891499    -2.4156148718    -2.2720014791
   49      H      -0.5515823807    -1.3578982361    -1.2561371386
   50      H      -2.5600596897     4.1085193649     0.7555538658
   51      H      -4.1804762506     4.0250237080    -0.0439828995
   52      H      -2.7281897215     3.3985953269    -0.9021150898
   53      H      -0.8780637208     1.7464307494    -2.0447733618
   54      H       0.4145134637     0.6281456685    -1.4480845786
   55      H      -0.0761046244     3.4250538086    -0.5632177913
   56      H      -0.1813648952     2.2305156475     0.8213203983
 ----------------------------------------------------------------

    9   -1510.2691263597      3.15E-09 Convergence criterion met
 Total energy in the final basis set = -1510.26912636
 Final energy is   -1510.26912635972
 **  OPTIMIZATION CONVERGED  **

                    Orbital Energies (a.u.)
 --------------------------------------------------------------

 Alpha MOs
 -- Occupied --
-18.943 -18.937 -18.935 -18.912 -18.888 -18.887 -18.882 -18.879
-18.878 -18.875 -10.106 -10.105 -10.102 -10.093 -10.068 -10.061
-10.061 -10.060 -10.058 -10.058 -10.057 -10.055 -10.040 -10.039
-10.036 -10.033 -10.021 -10.020 -10.019 -10.018  -1.018  -1.017
 -1.006  -0.996  -0.971  -0.969  -0.942  -0.940  -0.939  -0.928
 -0.764  -0.761  -0.727  -0.721  -0.711  -0.704  -0.693  -0.666
 -0.663  -0.619  -0.598  -0.585  -0.548  -0.544  -0.538  -0.536
 -0.514  -0.511  -0.483  -0.474  -0.464  -0.461  -0.448  -0.445
 -0.439  -0.431  -0.430  -0.417  -0.414  -0.410  -0.408  -0.394
 -0.387  -0.379  -0.373  -0.367  -0.359  -0.358  -0.351  -0.349
 -0.347  -0.341  -0.338  -0.332  -0.329  -0.327  -0.320  -0.311
 -0.309  -0.307  -0.305  -0.299  -0.297  -0.291  -0.288  -0.279
 -0.273  -0.263  -0.254  -0.248  -0.236  -0.233  -0.226  -0.184
 -0.181  -0.178  -0.169  -0.157  -0.156  -0.149  -0.145  -0.142
 -0.137

          Ground-State Mulliken Net Atomic Charges

     Atom                 Charge (a.u.)
  ----------------------------------------
      1 O                    -0.212336
      2 C                     0.214010
      3 C                    -0.079879
      4 C                    -0.079766
      5 C                     0.212447
      6 O                    -0.185780
      7 C                    -0.068304
      8 C                    -0.067527
      9 O                    -0.176170
     10 C                     0.218624
     11 C                    -0.078566
     12 C                    -0.078697
     13 C                     0.213143
     14 O                    -0.210505
     15 O                    -0.173462
     16 O                    -0.172396
     17 O                    -0.197926
     18 C                    -0.128761
     19 C                     0.023245
     20 C                    -0.143713
     21 C                    -0.144127
     22 C                     0.024266
     23 O                    -0.188755
     24 H                     0.086372
     25 H                     0.085654
     26 H                     0.082404
     27 H                     0.077894
     28 H                     0.074661
     29 H                     0.078232
     30 H                     0.073517
     31 H                     0.090182
     32 O                    -0.195463
     33 C                    -0.136577
     34 C                     0.025523
     35 C                    -0.142819
     36 C                    -0.145294
     37 C                     0.025542
     38 O                    -0.186407
     39 H                     0.085227
     40 H                     0.085005
     41 H                     0.089157
     42 H                     0.089591
     43 H                     0.078412
     44 H                     0.073050
     45 H                     0.078011
     46 H                     0.073150
     47 H                     0.083269
     48 H                     0.087260
     49 H                     0.107488
     50 H                     0.092377
     51 H                     0.088737
     52 H                     0.088494
     53 H                     0.084449
     54 H                     0.105908
     55 H                     0.081046
     56 H                     0.116878
  ----------------------------------------
  Sum of atomic charges =     0.000000

                    Cartesian Multipole Moments
 -----------------------------------------------------------------
    Charge (ESU x 10^10)
                 0.0000
    Dipole Moment (Debye)
         X      -0.5667      Y       0.9690      Z      -1.2325
       Tot       1.6671
    Quadrupole Moments (Debye-Ang)
        XX    -146.3455     XY       6.6341     YY    -154.8391
        XZ     -14.8744     YZ      -2.8956     ZZ    -166.4564

 Total job time:  70.59s(wall), 3364.36s(cpu)
        *  Thank you very much for using Q-Chem.  Have a nice day.  *
