 Q-Chem 5.0, Q-Chem, Inc., Pleasanton, CA (2017)
 Q-Chem 5.0.1 for Intel X86 EM64T Linux

User input:
--------------------------------------------------------------
$molecule
0  1
O -3.94934 -3.66094 2.70899
C -3.26408 -4.56952 2.26188
C -3.36658 -6.02376 2.66595
C -2.06769 -6.72818 3.09084
C -0.84209 -5.85339 3.23485
O 0.19218 -6.38179 2.51617
C 1.39139 -5.60458 2.60037
C 1.29784 -4.39234 1.67957
O 2.31015 -3.43455 2.02703
C 2.82324 -3.55571 3.27652
C 3.88822 -2.52813 3.57743
C 4.78817 -2.16131 2.38839
C 4.2847 -2.585 1.02321
O 4.22002 -1.86554 0.03693
O -2.4256 -4.30275 1.2261
O 4.34561 -3.93083 0.79612
O 2.10026 -3.71702 4.25374
C 4.19829 -4.52568 -0.44089
C 3.32746 -1.12735 3.92914
C 4.34969 -0.37055 4.77447
C 5.42643 -0.10692 3.74232
C 4.72557 -0.62418 2.47932
O 3.35899 -0.40463 2.72375
H 4.46644 -2.90204 4.45403
H 5.81815 -2.56661 2.49813
H 2.34736 -1.15456 4.45311
H 3.87717 0.59949 5.05134
H 4.69434 -0.88257 5.69853
H 5.60033 0.99071 3.69021
H 6.38708 -0.64039 3.91092
H 5.14678 -0.12483 1.57936
O -0.77997 -4.85425 3.94368
C -2.23651 -3.04988 0.68137
C -4.2266 -6.23444 3.92727
C -4.72899 -7.67797 3.98811
C -3.4576 -8.40322 4.37425
C -2.48683 -7.22539 4.48737
O -3.29357 -6.18101 4.97785
H -3.8268 -6.5408 1.79429
H -1.82678 -7.58919 2.42489
H -1.84482 -2.35301 1.45305
H -5.0871 -5.53402 3.9966
H -5.45087 -7.75927 4.8319
H -5.21246 -8.02977 3.05133
H -3.60285 -8.85483 5.38119
H -3.11627 -9.18225 3.65885
H -1.61398 -7.50658 5.11771
H -3.19378 -2.6604 0.27388
H -1.49833 -3.12007 -0.14371
H 4.27096 -5.6265 -0.32591
H 5.00178 -4.18337 -1.12725
H 3.20815 -4.27345 -0.87528
H 1.36578 -4.69881 0.61536
H 0.32825 -3.8733 1.81563
H 2.2311 -6.20397 2.18698
H 1.61075 -5.6652 3.67625
$end

$opt
CONSTRAINT
tors           1           2           3           4    -128.182
tors           3           4           5           6    -128.156
tors           4           5           6           7    +179.844
tors           5           6           7           8     -78.516
tors           6           7           8           9    +164.219
tors           7           8           9          10     -20.126
tors           8           9          10          11    +179.578
tors           9          10          11          12     -35.817
tors          11          12          13          14    +131.040
ENDCONSTRAINT
$end

$rem
JOBTYPE                   OPT
METHOD                    B3LYP
DFT_D                     d3_op
BASIS                     STO-3G
GEOM_OPT_MAX_CYCLES       100
GEOM_OPT_TOL_GRADIENT     300
GEOM_OPT_TOL_DISPLACEMENT 1200
GEOM_OPT_TOL_ENERGY       100
SYMMETRY                  False
THRESH                    12
SCF_CONVERGENCE           8
MAX_SUB_FILE_NUM          128
MEM_STATIC                400
MEM_TOTAL                 4000
$end
--------------------------------------------------------------

   16   -1510.0911408352      4.53E-09 Convergence criterion met
 Total energy in the final basis set = -1510.09114084
   14   -1510.1699915005      6.68E-09 Convergence criterion met
 Total energy in the final basis set = -1510.16999150
   14   -1510.2159337086      7.66E-09 Convergence criterion met
 Total energy in the final basis set = -1510.21593371
   14   -1510.2448224508      3.63E-09 Convergence criterion met
 Total energy in the final basis set = -1510.24482245
   14   -1510.2599124353      5.95E-09 Convergence criterion met
 Total energy in the final basis set = -1510.25991244
   14   -1510.2679279084      4.34E-09 Convergence criterion met
 Total energy in the final basis set = -1510.26792791
   13   -1510.2728270273      7.09E-09 Convergence criterion met
 Total energy in the final basis set = -1510.27282703
   13   -1510.2758299874      5.48E-09 Convergence criterion met
   12   -1510.2801092811      3.71E-09 Convergence criterion met
 Total energy in the final basis set = -1510.28010928
   11   -1510.2801964108      7.02E-09 Convergence criterion met
 Total energy in the final basis set = -1510.28019641
   11   -1510.2802701166      9.16E-09 Convergence criterion met
 Total energy in the final basis set = -1510.28027012
   10   -1510.2803055975      8.82E-09 Convergence criterion met
 Total energy in the final basis set = -1510.28030560
   10   -1510.2803279386      5.18E-09 Convergence criterion met
 Total energy in the final basis set = -1510.28032794
   10   -1510.2803342460      7.43E-09 Convergence criterion met
 Total energy in the final basis set = -1510.28033425

             Standard Nuclear Orientation (Angstroms)
    I     Atom           X                Y                Z
 ----------------------------------------------------------------
    1      O       3.4896891743    -1.5957005539    -2.3188697145
    2      C       3.3355881026    -0.5056380370    -1.7287788056
    3      C       4.3882747506     0.2236055719    -0.8176019596
    4      C       3.8650458580     0.6524701526     0.6165792829
    5      C       2.3729539198     0.2654934061     0.8774031071
    6      O       1.6780856700     1.4401366555     1.3247672221
    7      C       0.2531793989     1.1240892679     1.5827174318
    8      C      -0.5254505271     1.0658107713     0.2112962861
    9      O      -1.8681247458     0.4267319909     0.1724414347
   10      C      -2.2234588552    -0.4758797460     1.2179241129
   11      C      -3.6814585018    -0.9678053266     0.9058943640
   12      C      -4.6166859658     0.1353570410     0.2618602902
   13      C      -4.0194023677     1.5881510922     0.2843988150
   14      O      -3.9448201344     2.4001461111    -0.6609593889
   15      O       2.1698424613     0.3195309455    -1.8685307557
   16      O      -3.6808785904     1.8997474449     1.6476697549
   17      O      -1.5066254343    -0.8785772542     2.1620829497
   18      C      -3.1555169672     3.2793653574     1.7350378990
   19      C      -3.6299507825    -2.0216511334    -0.2895714381
   20      C      -5.0439177975    -2.7167881760    -0.4203510130
   21      C      -5.8762516307    -1.5899026232    -1.1388692501
   22      C      -4.8092764336    -0.4289962692    -1.2063505112
   23      O      -3.5454825413    -1.1521434769    -1.4833015034
   24      H      -4.1069206623    -1.4022369663     1.8270526734
   25      H      -5.5832778951     0.1684110476     0.7978560142
   26      H      -2.7672258466    -2.7149499670    -0.2499821298
   27      H      -4.9713979340    -3.6260448274    -1.0378843743
   28      H      -5.4594990431    -2.9896464426     0.5628210731
   29      H      -6.1754806063    -1.8966553602    -2.1540028095
   30      H      -6.7775237468    -1.2993170635    -0.5759937770
   31      H      -4.9857031646     0.3526722901    -1.9707674385
   32      O       1.8473951517    -0.8626123337     0.7591791064
   33      C       1.1991498287    -0.3413989820    -2.7744892709
   34      C       5.5584754794    -0.7716235453    -0.4340769726
   35      C       6.7855037485     0.0669729486     0.0964786843
   36      C       6.2681720782     0.4918721613     1.5219103188
   37      C       4.8444467952    -0.1921515309     1.5456252687
   38      O       5.0441902124    -1.4433941915     0.7831899834
   39      H       4.7620351775     1.1051091841    -1.3710119139
   40      H       3.9753834419     1.7382035755     0.7815189503
   41      H       0.7928855001    -1.2701269863    -2.3237959389
   42      H       5.7798558946    -1.5177849306    -1.2218232189
   43      H       7.6836737315    -0.5671074404     0.1658863126
   44      H       7.0123900967     0.9303822937    -0.5496306247
   45      H       6.9041339058     0.0804915012     2.3218062938
   46      H       6.2069969132     1.5849693337     1.6456463195
   47      H       4.4431950749    -0.4121336125     2.5540340420
   48      H       1.6612404811    -0.5960222166    -3.7495669089
   49      H       0.3782755810     0.3825849888    -2.9294288983
   50      H      -2.9124081458     3.4479354097     2.8003545194
   51      H      -3.9061425622     4.0263290702     1.4043179205
   52      H      -2.2403942104     3.4109044128     1.1226311237
   53      H      -0.6822940449     2.0883691045    -0.1909902430
   54      H       0.1200265578     0.5157193981    -0.5071213980
   55      H      -0.1326152721     1.9433401540     2.2199700542
   56      H       0.1086471818     0.1504168631     2.0987775489
 ----------------------------------------------------------------

    9   -1510.2803355250      4.64E-09 Convergence criterion met
 Total energy in the final basis set = -1510.28033553
 Final energy is   -1510.28033552501
 **  OPTIMIZATION CONVERGED  **

                    Orbital Energies (a.u.)
 --------------------------------------------------------------

 Alpha MOs
 -- Occupied --
-18.943 -18.933 -18.932 -18.928 -18.887 -18.886 -18.883 -18.876
-18.871 -18.870 -10.109 -10.099 -10.098 -10.097 -10.071 -10.064
-10.061 -10.061 -10.060 -10.060 -10.057 -10.056 -10.038 -10.038
-10.036 -10.036 -10.021 -10.020 -10.019 -10.019  -1.017  -1.012
 -1.006  -1.003  -0.970  -0.969  -0.944  -0.936  -0.933  -0.933
 -0.764  -0.762  -0.728  -0.722  -0.710  -0.704  -0.694  -0.662
 -0.661  -0.620  -0.597  -0.587  -0.546  -0.544  -0.537  -0.536
 -0.512  -0.510  -0.483  -0.475  -0.463  -0.462  -0.450  -0.444
 -0.437  -0.431  -0.429  -0.413  -0.411  -0.408  -0.406  -0.393
 -0.389  -0.378  -0.374  -0.366  -0.363  -0.360  -0.355  -0.346
 -0.346  -0.339  -0.338  -0.332  -0.331  -0.326  -0.325  -0.310
 -0.310  -0.305  -0.304  -0.299  -0.298  -0.291  -0.284  -0.275
 -0.272  -0.262  -0.253  -0.252  -0.235  -0.234  -0.233  -0.186
 -0.176  -0.175  -0.172  -0.156  -0.154  -0.148  -0.146  -0.144
 -0.142

          Ground-State Mulliken Net Atomic Charges

     Atom                 Charge (a.u.)
  ----------------------------------------
      1 O                    -0.208128
      2 C                     0.213508
      3 C                    -0.078687
      4 C                    -0.079784
      5 C                     0.210234
      6 O                    -0.172408
      7 C                    -0.066176
      8 C                    -0.053782
      9 O                    -0.166627
     10 C                     0.221221
     11 C                    -0.076950
     12 C                    -0.078678
     13 C                     0.218279
     14 O                    -0.217793
     15 O                    -0.175441
     16 O                    -0.178269
     17 O                    -0.209173
     18 C                    -0.129075
     19 C                     0.025137
     20 C                    -0.144279
     21 C                    -0.143215
     22 C                     0.024523
     23 O                    -0.188230
     24 H                     0.086799
     25 H                     0.083341
     26 H                     0.084093
     27 H                     0.078628
     28 H                     0.074206
     29 H                     0.078014
     30 H                     0.073131
     31 H                     0.090245
     32 O                    -0.212653
     33 C                    -0.130796
     34 C                     0.024286
     35 C                    -0.144141
     36 C                    -0.143784
     37 C                     0.026207
     38 O                    -0.186155
     39 H                     0.084386
     40 H                     0.086202
     41 H                     0.093677
     42 H                     0.091526
     43 H                     0.078416
     44 H                     0.072814
     45 H                     0.078239
     46 H                     0.073448
     47 H                     0.083562
     48 H                     0.090748
     49 H                     0.092374
     50 H                     0.088799
     51 H                     0.088080
     52 H                     0.084434
     53 H                     0.086825
     54 H                     0.095575
     55 H                     0.082745
     56 H                     0.120524
  ----------------------------------------
  Sum of atomic charges =     0.000000

                    Cartesian Multipole Moments
 -----------------------------------------------------------------
    Charge (ESU x 10^10)
                 0.0000
    Dipole Moment (Debye)
         X      -0.8631      Y       2.3893      Z       0.6041
       Tot       2.6112
    Quadrupole Moments (Debye-Ang)
        XX    -139.4004     XY      14.7826     YY    -161.7603
        XZ      -2.9171     YZ       4.1018     ZZ    -161.0639

 Total job time:  57.31s(wall), 2726.41s(cpu)
        *  Thank you very much for using Q-Chem.  Have a nice day.  *
