 Q-Chem 5.0, Q-Chem, Inc., Pleasanton, CA (2017)
 Q-Chem 5.0.1 for Intel X86 EM64T Linux

User input:
--------------------------------------------------------------
$molecule
0  1
O 3.4896891743 -1.5957005539 -2.3188697145
C 3.3355881026 -0.505638037 -1.7287788056
C 4.3882747506 0.2236055719 -0.8176019596
C 3.865045858 0.6524701526 0.6165792829
C 2.3729539198 0.2654934061 0.8774031071
O 1.67808567 1.4401366555 1.3247672221
C 0.2531793989 1.1240892679 1.5827174318
C -0.5254505271 1.0658107713 0.2112962861
O -1.8681247458 0.4267319909 0.1724414347
C -2.2234588552 -0.475879746 1.2179241129
C -3.6814585018 -0.9678053266 0.905894364
C -4.6166859658 0.135357041 0.2618602902
C -4.0194023677 1.5881510922 0.284398815
O -3.9448201344 2.4001461111 -0.6609593889
O 2.1698424613 0.3195309455 -1.8685307557
O -3.6808785904 1.8997474449 1.6476697549
O -1.5066254343 -0.8785772542 2.1620829497
C -3.1555169672 3.2793653574 1.735037899
C -3.6299507825 -2.0216511334 -0.2895714381
C -5.0439177975 -2.716788176 -0.420351013
C -5.8762516307 -1.5899026232 -1.1388692501
C -4.8092764336 -0.4289962692 -1.2063505112
O -3.5454825413 -1.1521434769 -1.4833015034
H -4.1069206623 -1.4022369663 1.8270526734
H -5.5832778951 0.1684110476 0.7978560142
H -2.7672258466 -2.714949967 -0.2499821298
H -4.971397934 -3.6260448274 -1.0378843743
H -5.4594990431 -2.9896464426 0.5628210731
H -6.1754806063 -1.8966553602 -2.1540028095
H -6.7775237468 -1.2993170635 -0.575993777
H -4.9857031646 0.3526722901 -1.9707674385
O 1.8473951517 -0.8626123337 0.7591791064
C 1.1991498287 -0.341398982 -2.7744892709
C 5.5584754794 -0.7716235453 -0.4340769726
C 6.7855037485 0.0669729486 0.0964786843
C 6.2681720782 0.4918721613 1.5219103188
C 4.8444467952 -0.1921515309 1.5456252687
O 5.0441902124 -1.4433941915 0.7831899834
H 4.7620351775 1.1051091841 -1.3710119139
H 3.9753834419 1.7382035755 0.7815189503
H 0.7928855001 -1.2701269863 -2.3237959389
H 5.7798558946 -1.5177849306 -1.2218232189
H 7.6836737315 -0.5671074404 0.1658863126
H 7.0123900967 0.9303822937 -0.5496306247
H 6.9041339058 0.0804915012 2.3218062938
H 6.2069969132 1.5849693337 1.6456463195
H 4.4431950749 -0.4121336125 2.554034042
H 1.6612404811 -0.5960222166 -3.7495669089
H 0.378275581 0.3825849888 -2.9294288983
H -2.9124081458 3.4479354097 2.8003545194
H -3.9061425622 4.0263290702 1.4043179205
H -2.2403942104 3.4109044128 1.1226311237
H -0.6822940449 2.0883691045 -0.190990243
H 0.1200265578 0.5157193981 -0.507121398
H -0.1326152721 1.943340154 2.2199700542
H 0.1086471818 0.1504168631 2.0987775489
$end

$rem
JOBTYPE                   OPT
METHOD                    B3LYP
DFT_D                     d3_op
BASIS                     STO-3G
GEOM_OPT_MAX_CYCLES       100
GEOM_OPT_TOL_GRADIENT     300
GEOM_OPT_TOL_DISPLACEMENT 1200
GEOM_OPT_TOL_ENERGY       100
SYMMETRY                  False
THRESH                    12
SCF_CONVERGENCE           8
MAX_SUB_FILE_NUM          128
MEM_STATIC                400
MEM_TOTAL                 4000
$end
--------------------------------------------------------------

   16   -1510.2802363365      5.55E-09 Convergence criterion met
 Total energy in the final basis set = -1510.28023634
   14   -1510.2815989377      4.25E-09 Convergence criterion met
 Total energy in the final basis set = -1510.28159894
   14   -1510.2824099216      5.53E-09 Convergence criterion met
 Total energy in the final basis set = -1510.28240992
   15   -1510.2840794913      2.85E-09 Convergence criterion met
 Total energy in the final basis set = -1510.28407949
   15   -1510.2844210999      2.51E-09 Convergence criterion met
 Total energy in the final basis set = -1510.28442110
   14   -1510.2853597494      3.00E-09 Convergence criterion met
 Total energy in the final basis set = -1510.28535975
   14   -1510.2836826355      3.57E-09 Convergence criterion met
 Total energy in the final basis set = -1510.28368264
   14   -1510.2857203841      7.53E-09 Convergence criterion met
   13   -1510.2923359054      2.42E-09 Convergence criterion met
 Total energy in the final basis set = -1510.29233591
   12   -1510.2922768831      7.10E-09 Convergence criterion met
 Total energy in the final basis set = -1510.29227688
   12   -1510.2924065096      6.17E-09 Convergence criterion met
 Total energy in the final basis set = -1510.29240651
   11   -1510.2924378883      9.78E-09 Convergence criterion met
 Total energy in the final basis set = -1510.29243789
   12   -1510.2924508205      2.13E-09 Convergence criterion met
 Total energy in the final basis set = -1510.29245082
   11   -1510.2924566534      8.12E-09 Convergence criterion met
 Total energy in the final basis set = -1510.29245665

             Standard Nuclear Orientation (Angstroms)
    I     Atom           X                Y                Z
 ----------------------------------------------------------------
    1      O       3.8592942413    -2.0913974703     1.7295328445
    2      C       3.6058455266    -1.5213976747     0.6465092848
    3      C       4.5439692573    -0.5492629636    -0.1528663581
    4      C       3.8549354078     0.8211798186    -0.5616686572
    5      C       2.3708418544     0.9355342656    -0.0819698764
    6      O       1.5382844515     1.0834043656    -1.2458649448
    7      C       0.1133440475     1.1353786647    -0.8426699933
    8      C      -0.6350040676    -0.0817084782    -1.4942640265
    9      O      -2.0526087215    -0.1645579482    -1.0637977964
   10      C      -2.1764493551    -0.8050847163     0.2085388638
   11      C      -3.6976550568    -1.0320188610     0.5006747403
   12      C      -4.5926300343     0.2710669017     0.3894063400
   13      C      -3.7928402405     1.6008909326     0.1565683880
   14      O      -4.0046225991     2.4759764081    -0.7084571345
   15      O       2.3887709249    -1.6728182290    -0.0902611056
   16      O      -2.7790087543     1.6852206094     1.1675759941
   17      O      -1.2180914131    -1.1813341518     0.9209357952
   18      C      -2.0922633820     2.9952588470     1.1018684795
   19      C      -4.3579885867    -1.9254690692    -0.6409624325
   20      C      -5.7808810342    -2.4053457536    -0.1477505723
   21      C      -6.6320516274    -1.0943792877    -0.3387456119
   22      C      -5.5240353525    -0.0906311361    -0.8425385221
   23      O      -4.6630016636    -0.9391395533    -1.6995271086
   24      H      -3.7805671161    -1.5018305889     1.4961400289
   25      H      -5.1883181932     0.4002082644     1.3123980631
   26      H      -3.7017717022    -2.7267644065    -1.0327978612
   27      H      -6.1509066773    -3.2249372586    -0.7839636552
   28      H      -5.7608794866    -2.7519195329     0.8979822342
   29      H      -7.4080435330    -1.2273564118    -1.1091949875
   30      H      -7.1121587139    -0.7559842115     0.5931875795
   31      H      -5.8830201247     0.7921589418    -1.4067294429
   32      O       1.9404175605     0.9527671674     1.0922799118
   33      C       1.4348994996    -2.5458613015     0.6394172988
   34      C       5.7347687606    -0.0363589693     0.7552963376
   35      C       6.8447712891     0.5900089929    -0.1753650284
   36      C       6.1639507425     1.9476655123    -0.5874669012
   37      C       4.7954675325     1.8545267400     0.1976879635
   38      O       5.1539096077     1.1411036769     1.4435964982
   39      H       4.9096705567    -1.0820870091    -1.0501794730
   40      H       3.8745690187     0.9708598106    -1.6551028415
   41      H       0.4771227021    -1.9921897262     0.7745115096
   42      H       6.0841631721    -0.7827210142     1.4953291501
   43      H       7.7728697269     0.7598322022     0.3934323473
   44      H       7.0741821581    -0.0518923126    -1.0412078707
   45      H       6.7474677990     2.8146820667    -0.2395578851
   46      H       6.0123129648     2.0362479620    -1.6751526998
   47      H       4.3167519945     2.8253503518     0.4306388229
   48      H       1.8682065553    -2.8247635928     1.6198326848
   49      H       1.2595973129    -3.4594435542     0.0375013567
   50      H      -1.1673940512     2.8935730692     1.6990833587
   51      H      -2.7252248052     3.7958690298     1.5373027882
   52      H      -1.8421877078     3.2743229945     0.0594860272
   53      H      -0.6701780223     0.0372267073    -2.5957760166
   54      H      -0.0875556859    -1.0149590808    -1.2466696135
   55      H      -0.3217691541     2.0916600981    -1.1980858761
   56      H       0.0625894677     1.0792117383     0.2667486079
 ----------------------------------------------------------------

   11   -1510.2924570619      2.94E-09 Convergence criterion met
 Total energy in the final basis set = -1510.29245706
 Final energy is   -1510.29245706187
 **  OPTIMIZATION CONVERGED  **

                    Orbital Energies (a.u.)
 --------------------------------------------------------------

 Alpha MOs
 -- Occupied --
-18.942 -18.936 -18.929 -18.925 -18.891 -18.886 -18.885 -18.880
-18.872 -18.872 -10.110 -10.103 -10.097 -10.095 -10.073 -10.066
-10.065 -10.064 -10.060 -10.059 -10.055 -10.043 -10.041 -10.037
-10.036 -10.035 -10.024 -10.022 -10.019 -10.018  -1.021  -1.012
 -1.010  -1.002  -0.973  -0.968  -0.945  -0.940  -0.933  -0.930
 -0.768  -0.762  -0.730  -0.722  -0.712  -0.706  -0.695  -0.665
 -0.649  -0.617  -0.599  -0.583  -0.548  -0.543  -0.540  -0.535
 -0.516  -0.507  -0.488  -0.475  -0.468  -0.458  -0.449  -0.447
 -0.437  -0.433  -0.428  -0.416  -0.411  -0.409  -0.403  -0.399
 -0.394  -0.379  -0.378  -0.366  -0.363  -0.357  -0.356  -0.351
 -0.349  -0.336  -0.335  -0.330  -0.328  -0.326  -0.324  -0.313
 -0.308  -0.308  -0.303  -0.302  -0.295  -0.291  -0.285  -0.278
 -0.269  -0.256  -0.255  -0.244  -0.241  -0.237  -0.232  -0.190
 -0.180  -0.172  -0.165  -0.161  -0.158  -0.155  -0.150  -0.146
 -0.142

          Ground-State Mulliken Net Atomic Charges

     Atom                 Charge (a.u.)
  ----------------------------------------
      1 O                    -0.210373
      2 C                     0.214167
      3 C                    -0.077972
      4 C                    -0.078627
      5 C                     0.214138
      6 O                    -0.173549
      7 C                    -0.059465
      8 C                    -0.049840
      9 O                    -0.165969
     10 C                     0.219036
     11 C                    -0.077636
     12 C                    -0.078133
     13 C                     0.214035
     14 O                    -0.210483
     15 O                    -0.178211
     16 O                    -0.173310
     17 O                    -0.213202
     18 C                    -0.130157
     19 C                     0.026248
     20 C                    -0.144163
     21 C                    -0.143558
     22 C                     0.024552
     23 O                    -0.185523
     24 H                     0.087483
     25 H                     0.085501
     26 H                     0.082055
     27 H                     0.078687
     28 H                     0.074403
     29 H                     0.078819
     30 H                     0.073715
     31 H                     0.091265
     32 O                    -0.213382
     33 C                    -0.153253
     34 C                     0.024293
     35 C                    -0.144037
     36 C                    -0.143912
     37 C                     0.025686
     38 O                    -0.186186
     39 H                     0.084496
     40 H                     0.086374
     41 H                     0.109955
     42 H                     0.091236
     43 H                     0.078195
     44 H                     0.072869
     45 H                     0.077897
     46 H                     0.073257
     47 H                     0.082681
     48 H                     0.097630
     49 H                     0.074687
     50 H                     0.095043
     51 H                     0.086116
     52 H                     0.091672
     53 H                     0.093117
     54 H                     0.094933
     55 H                     0.081333
     56 H                     0.105369
  ----------------------------------------
  Sum of atomic charges =     0.000000

                    Cartesian Multipole Moments
 -----------------------------------------------------------------
    Charge (ESU x 10^10)
                 0.0000
    Dipole Moment (Debye)
         X      -1.2109      Y      -0.0912      Z      -1.5344
       Tot       1.9568
    Quadrupole Moments (Debye-Ang)
        XX    -143.1388     XY       7.9514     YY    -154.1878
        XZ     -20.0036     YZ       3.3718     ZZ    -169.6643

 Total job time:  93.62s(wall), 4457.10s(cpu)
        *  Thank you very much for using Q-Chem.  Have a nice day.  *
