 Q-Chem 5.0, Q-Chem, Inc., Pleasanton, CA (2017)
 Q-Chem 5.0.1 for Intel X86 EM64T Linux

User input:
--------------------------------------------------------------
$molecule
0  1
O 3.3434862955 -1.5169172473 -2.2076853738
C 3.2998632373 -0.3656324753 -1.7261548021
C 4.3571948763 0.3061059106 -0.7764575832
C 3.8574061889 0.4656801241 0.7232510387
C 2.3370841643 0.1510455104 0.9030518088
O 1.6959861921 1.344263233 1.3759777518
C 0.2432184909 1.1193162829 1.5664647611
C -0.4911013827 1.0810610795 0.168093842
O -1.8340878172 0.4464451888 0.0974983135
C -2.1315774761 -0.5787796453 1.0446658757
C -3.6013772445 -1.0605182845 0.7533526297
C -4.5709637445 0.0969857058 0.2931908677
C -4.1290677704 1.5484413764 0.689975143
O -4.491272012 2.6170319127 0.1540066545
O 2.2317830599 0.5620526737 -1.970699237
O -3.419773597 1.4879510096 1.9399758319
O -1.3691916514 -1.0685299717 1.910617913
C -3.0486874637 2.850847524 2.3783523672
C -3.5735724047 -1.9255715326 -0.5859063834
C -5.0030220287 -2.5489252089 -0.8502879149
C -5.7779633341 -1.3141447249 -1.446584562
C -4.6971104789 -0.1796711032 -1.2660134025
O -3.4401208673 -0.8770277378 -1.6247370949
H -3.974871152 -1.6209743111 1.6271805584
H -5.56016965 -0.0490252431 0.7691176034
H -2.7314923029 -2.6424249663 -0.6479013304
H -4.9361626036 -3.3760977462 -1.574563676
H -5.4610394702 -2.9307727808 0.0764437946
H -6.0029128347 -1.4607863917 -2.5152362607
H -6.7165347151 -1.0965264748 -0.9122559148
H -4.8361406312 0.7293336071 -1.8831833695
O 1.7480544377 -0.9293919952 0.6811691832
C 1.2427344403 -0.0511866401 -2.8903809219
C 5.573308896 -0.6892943217 -0.5737496771
C 6.7521645595 0.0718181086 0.1512927953
C 6.2214256085 0.1220960598 1.6327729713
C 4.8104574763 -0.5672051899 1.4690300756
O 5.0594919887 -1.6189728296 0.4598048485
H 4.6591110507 1.2803936753 -1.2010432917
H 4.0286726779 1.4956915924 1.081279223
H 0.8038127126 -0.9747678917 -2.4605163929
H 5.8513912825 -1.2497536214 -1.4870431119
H 7.6881136688 -0.5039305571 0.0758000859
H 6.9194839547 1.0742969075 -0.2742711935
H 6.8596040325 -0.4688971624 2.3090943841
H 6.1424089621 1.1481971648 2.0260159762
H 4.3843274238 -1.0073260633 2.3913982181
H 1.6990350602 -0.3019528652 -3.8695499792
H 0.4483139958 0.7035648417 -3.0357199812
H -2.5526948094 2.7319894953 3.3592902252
H -3.9393161493 3.5028172615 2.4876242259
H -2.3482542218 3.3312347452 1.6647751862
H -0.6447187932 2.1079180215 -0.2233826708
H 0.1760566609 0.5439324586 -0.5397030333
H -0.1183207101 1.9641510332 2.182373436
H 0.0196021397 0.149263417 2.0667573154
$end

$rem
JOBTYPE                   OPT
METHOD                    B3LYP
DFT_D                     d3_op
BASIS                     STO-3G
GEOM_OPT_MAX_CYCLES       100
GEOM_OPT_TOL_GRADIENT     300
GEOM_OPT_TOL_DISPLACEMENT 1200
GEOM_OPT_TOL_ENERGY       100
SYMMETRY                  False
THRESH                    12
SCF_CONVERGENCE           8
MAX_SUB_FILE_NUM          128
MEM_STATIC                400
MEM_TOTAL                 4000
$end
--------------------------------------------------------------

   16   -1510.2764386445      5.49E-09 Convergence criterion met
 Total energy in the final basis set = -1510.27643864
   14   -1510.2787252028      3.05E-09 Convergence criterion met
 Total energy in the final basis set = -1510.27872520
   14   -1510.2803197814      6.79E-09 Convergence criterion met
 Total energy in the final basis set = -1510.28031978
   14   -1510.2820761454      7.15E-09 Convergence criterion met
 Total energy in the final basis set = -1510.28207615
   14   -1510.2839781941      8.70E-09 Convergence criterion met
 Total energy in the final basis set = -1510.28397819
   14   -1510.2817817416      7.07E-09 Convergence criterion met
 Total energy in the final basis set = -1510.28178174
   15   -1510.2856346554      2.33E-09 Convergence criterion met
 Total energy in the final basis set = -1510.28563466
   13   -1510.2864684368      9.68E-09 Convergence criterion met
   12   -1510.2924269617      6.16E-09 Convergence criterion met
 Total energy in the final basis set = -1510.29242696
   11   -1510.2924468556      8.10E-09 Convergence criterion met
 Total energy in the final basis set = -1510.29244686
   10   -1510.2924295807      9.71E-09 Convergence criterion met
 Total energy in the final basis set = -1510.29242958
   11   -1510.2924560759      4.37E-09 Convergence criterion met
 Total energy in the final basis set = -1510.29245608
   11   -1510.2924551407      3.04E-09 Convergence criterion met
 Total energy in the final basis set = -1510.29245514
    9   -1510.2924569794      5.74E-09 Convergence criterion met
 Total energy in the final basis set = -1510.29245698

             Standard Nuclear Orientation (Angstroms)
    I     Atom           X                Y                Z
 ----------------------------------------------------------------
    1      O       3.8882851360    -2.0853642245     1.7012913754
    2      C       3.6287117203    -1.5035713989     0.6260336579
    3      C       4.5566972113    -0.5117566300    -0.1610189021
    4      C       3.8551708994     0.8593735516    -0.5464917678
    5      C       2.3708641911     0.9523264646    -0.0630129252
    6      O       1.5357501036     1.1083426277    -1.2239379070
    7      C       0.1103674597     1.1366555370    -0.8204431136
    8      C      -0.6234793641    -0.0769639391    -1.4942998153
    9      O      -2.0414791575    -0.1797869941    -1.0695124450
   10      C      -2.1635884858    -0.8423641518     0.1916356169
   11      C      -3.6842550910    -1.0850340245     0.4746433683
   12      C      -4.5871890795     0.2140242498     0.3797485831
   13      C      -3.7932633750     1.5523384469     0.1769840633
   14      O      -4.0025155115     2.4423419823    -0.6732523707
   15      O       2.4121757957    -1.6560179407    -0.1115599403
   16      O      -2.7881926842     1.6226916518     1.1979169422
   17      O      -1.2042030121    -1.2224710899     0.9005861776
   18      C      -2.1070224121     2.9368721634     1.1636005953
   19      C      -4.3337945729    -1.9639322357    -0.6841154117
   20      C      -5.7568987479    -2.4587050525    -0.2064422713
   21      C      -6.6141918407    -1.1497707051    -0.3829764785
   22      C      -5.5084704722    -0.1324010266    -0.8641447847
   23      O      -4.6379090354    -0.9628257186    -1.7291379121
   24      H      -3.7679324340    -1.5712000346     1.4621469967
   25      H      -5.1899034091     0.3233154528     1.3007104052
   26      H      -3.6713826594    -2.7558168403    -1.0845160763
   27      H      -6.1188767563    -3.2710250274    -0.8564900006
   28      H      -5.7407778060    -2.8203550886     0.8342687704
   29      H      -7.3845106103    -1.2752567648    -1.1603673091
   30      H      -7.1019725424    -0.8282562516     0.5509187468
   31      H      -5.8687193023     0.7573634536    -1.4164686833
   32      O       1.9416313495     0.9479108812     1.1118071463
   33      C       1.4669523618    -2.5473595862     0.6071871196
   34      C       5.7458227722    -0.0033931089     0.7516376600
   35      C       6.8476831324     0.6470392107    -0.1719856287
   36      C       6.1544019514     2.0053590033    -0.5603768742
   37      C       4.7888678906     1.8884419789     0.2268984197
   38      O       5.1570602544     1.1580225400     1.4601857668
   39      H       4.9238973461    -1.0278723324    -1.0674199470
   40      H       3.8714997318     1.0265698657    -1.6374218411
   41      H       0.5032070745    -2.0056105983     0.7481871614
   42      H       6.1037784637    -0.7584137755     1.4786329146
   43      H       7.7759871158     0.8155745229     0.3968586036
   44      H       7.0801359882     0.0209980563    -1.0485897433
   45      H       6.7315273901     2.8714846520    -0.1998280957
   46      H       5.9992003945     2.1103694082    -1.6461175114
   47      H       4.3027188611     2.8513294330     0.4768072659
   48      H       1.9028385026    -2.8329008706     1.5845529881
   49      H       1.3016130978    -3.4556844187    -0.0053585355
   50      H      -1.1786999151     2.8243364913     1.7535167806
   51      H      -2.7417660393     3.7223491666     1.6233426230
   52      H      -1.8641508536     3.2444849373     0.1275956408
   53      H      -0.6565592667     0.0599359074    -2.5937709869
   54      H      -0.0677756206    -1.0089773334    -1.2604768265
   55      H      -0.3363247650     2.0940174512    -1.1582513888
   56      H       0.0601660075     1.0593470707     0.2876360550
 ----------------------------------------------------------------

    9   -1510.2924575976      5.95E-09 Convergence criterion met
 Total energy in the final basis set = -1510.29245760
 Final energy is   -1510.29245759765
 **  OPTIMIZATION CONVERGED  **

                    Orbital Energies (a.u.)
 --------------------------------------------------------------

 Alpha MOs
 -- Occupied --
-18.942 -18.936 -18.929 -18.925 -18.891 -18.886 -18.885 -18.880
-18.872 -18.872 -10.110 -10.103 -10.097 -10.095 -10.073 -10.066
-10.065 -10.064 -10.060 -10.059 -10.055 -10.043 -10.041 -10.037
-10.036 -10.035 -10.024 -10.022 -10.019 -10.018  -1.021  -1.012
 -1.010  -1.002  -0.973  -0.968  -0.945  -0.940  -0.933  -0.930
 -0.768  -0.762  -0.730  -0.722  -0.712  -0.706  -0.695  -0.665
 -0.649  -0.617  -0.599  -0.583  -0.549  -0.543  -0.540  -0.535
 -0.516  -0.507  -0.488  -0.475  -0.468  -0.458  -0.449  -0.447
 -0.437  -0.433  -0.428  -0.416  -0.411  -0.409  -0.403  -0.399
 -0.394  -0.379  -0.378  -0.366  -0.363  -0.357  -0.356  -0.351
 -0.349  -0.336  -0.335  -0.330  -0.328  -0.326  -0.324  -0.313
 -0.308  -0.308  -0.303  -0.302  -0.295  -0.291  -0.285  -0.278
 -0.269  -0.256  -0.255  -0.244  -0.241  -0.237  -0.232  -0.190
 -0.180  -0.172  -0.165  -0.161  -0.158  -0.155  -0.150  -0.146
 -0.142

          Ground-State Mulliken Net Atomic Charges

     Atom                 Charge (a.u.)
  ----------------------------------------
      1 O                    -0.210332
      2 C                     0.214127
      3 C                    -0.077953
      4 C                    -0.078636
      5 C                     0.214142
      6 O                    -0.173586
      7 C                    -0.059413
      8 C                    -0.049810
      9 O                    -0.165947
     10 C                     0.219051
     11 C                    -0.077584
     12 C                    -0.078099
     13 C                     0.214029
     14 O                    -0.210499
     15 O                    -0.178280
     16 O                    -0.173403
     17 O                    -0.213198
     18 C                    -0.130316
     19 C                     0.026224
     20 C                    -0.144172
     21 C                    -0.143535
     22 C                     0.024557
     23 O                    -0.185464
     24 H                     0.087505
     25 H                     0.085508
     26 H                     0.082053
     27 H                     0.078694
     28 H                     0.074392
     29 H                     0.078816
     30 H                     0.073714
     31 H                     0.091240
     32 O                    -0.213427
     33 C                    -0.153308
     34 C                     0.024303
     35 C                    -0.144047
     36 C                    -0.143892
     37 C                     0.025643
     38 O                    -0.186205
     39 H                     0.084496
     40 H                     0.086388
     41 H                     0.109989
     42 H                     0.091235
     43 H                     0.078192
     44 H                     0.072866
     45 H                     0.077891
     46 H                     0.073256
     47 H                     0.082725
     48 H                     0.097600
     49 H                     0.074680
     50 H                     0.095081
     51 H                     0.086015
     52 H                     0.091883
     53 H                     0.093168
     54 H                     0.094961
     55 H                     0.081448
     56 H                     0.105238
  ----------------------------------------
  Sum of atomic charges =     0.000000

                    Cartesian Multipole Moments
 -----------------------------------------------------------------
    Charge (ESU x 10^10)
                 0.0000
    Dipole Moment (Debye)
         X      -1.2294      Y      -0.0835      Z      -1.5434
       Tot       1.9750
    Quadrupole Moments (Debye-Ang)
        XX    -143.2056     XY       8.3411     YY    -154.2000
        XZ     -19.8654     YZ       3.4708     ZZ    -169.5994

 Total job time:  94.85s(wall), 4515.51s(cpu)
        *  Thank you very much for using Q-Chem.  Have a nice day.  *
