 Q-Chem 5.0, Q-Chem, Inc., Pleasanton, CA (2017)
 Q-Chem 5.0.1 for Intel X86 EM64T Linux

User input:
--------------------------------------------------------------
$molecule
0  1
O -3.94934 -3.66094 2.70899
C -3.26408 -4.56952 2.26188
C -3.36658 -6.02376 2.66595
C -2.22677 -6.59655 3.5242
C -1.20156 -5.60673 4.03142
O 0.03113 -5.91901 3.53304
C 1.05811 -5.0213 3.96741
C 0.94598 -3.69475 3.22321
O 1.64688 -2.66871 3.94353
C 1.73345 -2.8529 5.28433
C 2.48928 -1.74747 5.98248
C 3.66997 -1.16919 5.18885
C 3.70507 -1.51159 3.71297
O 4.30775 -0.88434 2.85396
O -2.28644 -4.27397 1.36603
O 3.90818 -2.86105 3.55143
O 0.78112 -3.26564 5.93831
C 4.33293 -3.48584 2.39255
C 1.64207 -0.47264 6.19389
C 2.21874 0.33633 7.35395
C 3.50303 0.84203 6.73129
C 3.32956 0.33132 5.29558
O 1.93904 0.34248 5.0894
H 2.79776 -2.13949 6.97876
H 4.66539 -1.41077 5.62308
H 0.56392 -0.67881 6.37098
H 1.53617 1.20192 7.51365
H 2.34042 -0.21335 8.31204
H 3.49356 1.95416 6.76367
H 4.43895 0.45336 7.18819
H 3.92722 0.95611 4.59576
O -1.46057 -4.65513 4.76008
C -2.04533 -3.01064 0.86783
C -4.55537 -6.28136 3.62248
C -4.96302 -7.75436 3.57174
C -3.81364 -8.39148 4.32272
C -3.01854 -7.14491 4.72116
O -4.00571 -6.16175 4.91177
H -3.54037 -6.59952 1.72929
H -1.69675 -7.40932 2.97567
H -1.79436 -2.31185 1.69389
H -5.44002 -5.64316 3.40611
H -5.88737 -7.86615 4.18278
H -5.14681 -8.15523 2.55176
H -4.21984 -8.89068 5.23062
H -3.2025 -9.11122 3.73627
H -2.36656 -7.36251 5.59619
H -2.93899 -2.63859 0.32265
H -1.18912 -3.05476 0.16398
H 4.37471 -4.58071 2.5646
H 5.34769 -3.13162 2.11253
H 3.62346 -3.2786 1.56387
H 1.28518 -3.77574 2.16953
H -0.10739 -3.35569 3.18634
H 2.04618 -5.43477 3.67364
H 1.08056 -5.18049 5.05703
$end

$opt
CONSTRAINT
tors           1           2           3           4    -107.965
tors           3           4           5           6    -118.300
tors           4           5           6           7    +179.844
tors           5           6           7           8     -75.043
tors           6           7           8           9    +160.674
tors           7           8           9          10     -27.668
tors           8           9          10          11    +179.578
tors           9          10          11          12     -35.817
tors          11          12          13          14    +158.573
ENDCONSTRAINT
$end

$rem
JOBTYPE                   OPT
METHOD                    B3LYP
DFT_D                     d3_op
BASIS                     STO-3G
GEOM_OPT_MAX_CYCLES       100
GEOM_OPT_TOL_GRADIENT     300
GEOM_OPT_TOL_DISPLACEMENT 1200
GEOM_OPT_TOL_ENERGY       100
SYMMETRY                  False
THRESH                    12
SCF_CONVERGENCE           8
MAX_SUB_FILE_NUM          128
MEM_STATIC                400
MEM_TOTAL                 4000
$end
--------------------------------------------------------------

   16   -1510.0734284859      3.63E-09 Convergence criterion met
 Total energy in the final basis set = -1510.07342849
   15   -1510.1531495490      2.03E-09 Convergence criterion met
 Total energy in the final basis set = -1510.15314955
   14   -1510.1994027382      8.25E-09 Convergence criterion met
 Total energy in the final basis set = -1510.19940274
   15   -1510.2283393492      1.61E-09 Convergence criterion met
 Total energy in the final basis set = -1510.22833935
   15   -1510.2451792317      1.59E-09 Convergence criterion met
 Total energy in the final basis set = -1510.24517923
   14   -1510.2556854724      2.52E-09 Convergence criterion met
 Total energy in the final basis set = -1510.25568547
   14   -1510.2623702439      2.26E-09 Convergence criterion met
 Total energy in the final basis set = -1510.26237024
   13   -1510.2668943387      3.62E-09 Convergence criterion met
   11   -1510.2765132480      6.69E-09 Convergence criterion met
 Total energy in the final basis set = -1510.27651325
    9   -1510.2765221431      8.65E-09 Convergence criterion met
 Total energy in the final basis set = -1510.27652214
    9   -1510.2765263442      4.73E-09 Convergence criterion met
 Total energy in the final basis set = -1510.27652634
    9   -1510.2765294705      5.10E-09 Convergence criterion met
 Total energy in the final basis set = -1510.27652947
    9   -1510.2765318610      5.09E-09 Convergence criterion met
 Total energy in the final basis set = -1510.27653186
    9   -1510.2765335443      5.05E-09 Convergence criterion met
 Total energy in the final basis set = -1510.27653354

             Standard Nuclear Orientation (Angstroms)
    I     Atom           X                Y                Z
 ----------------------------------------------------------------
    1      O       3.3434862955    -1.5169172473    -2.2076853738
    2      C       3.2998632373    -0.3656324753    -1.7261548021
    3      C       4.3571948763     0.3061059106    -0.7764575832
    4      C       3.8574061889     0.4656801241     0.7232510387
    5      C       2.3370841643     0.1510455104     0.9030518088
    6      O       1.6959861921     1.3442632330     1.3759777518
    7      C       0.2432184909     1.1193162829     1.5664647611
    8      C      -0.4911013827     1.0810610795     0.1680938420
    9      O      -1.8340878172     0.4464451888     0.0974983135
   10      C      -2.1315774761    -0.5787796453     1.0446658757
   11      C      -3.6013772445    -1.0605182845     0.7533526297
   12      C      -4.5709637445     0.0969857058     0.2931908677
   13      C      -4.1290677704     1.5484413764     0.6899751430
   14      O      -4.4912720120     2.6170319127     0.1540066545
   15      O       2.2317830599     0.5620526737    -1.9706992370
   16      O      -3.4197735970     1.4879510096     1.9399758319
   17      O      -1.3691916514    -1.0685299717     1.9106179130
   18      C      -3.0486874637     2.8508475240     2.3783523672
   19      C      -3.5735724047    -1.9255715326    -0.5859063834
   20      C      -5.0030220287    -2.5489252089    -0.8502879149
   21      C      -5.7779633341    -1.3141447249    -1.4465845620
   22      C      -4.6971104789    -0.1796711032    -1.2660134025
   23      O      -3.4401208673    -0.8770277378    -1.6247370949
   24      H      -3.9748711520    -1.6209743111     1.6271805584
   25      H      -5.5601696500    -0.0490252431     0.7691176034
   26      H      -2.7314923029    -2.6424249663    -0.6479013304
   27      H      -4.9361626036    -3.3760977462    -1.5745636760
   28      H      -5.4610394702    -2.9307727808     0.0764437946
   29      H      -6.0029128347    -1.4607863917    -2.5152362607
   30      H      -6.7165347151    -1.0965264748    -0.9122559148
   31      H      -4.8361406312     0.7293336071    -1.8831833695
   32      O       1.7480544377    -0.9293919952     0.6811691832
   33      C       1.2427344403    -0.0511866401    -2.8903809219
   34      C       5.5733088960    -0.6892943217    -0.5737496771
   35      C       6.7521645595     0.0718181086     0.1512927953
   36      C       6.2214256085     0.1220960598     1.6327729713
   37      C       4.8104574763    -0.5672051899     1.4690300756
   38      O       5.0594919887    -1.6189728296     0.4598048485
   39      H       4.6591110507     1.2803936753    -1.2010432917
   40      H       4.0286726779     1.4956915924     1.0812792230
   41      H       0.8038127126    -0.9747678917    -2.4605163929
   42      H       5.8513912825    -1.2497536214    -1.4870431119
   43      H       7.6881136688    -0.5039305571     0.0758000859
   44      H       6.9194839547     1.0742969075    -0.2742711935
   45      H       6.8596040325    -0.4688971624     2.3090943841
   46      H       6.1424089621     1.1481971648     2.0260159762
   47      H       4.3843274238    -1.0073260633     2.3913982181
   48      H       1.6990350602    -0.3019528652    -3.8695499792
   49      H       0.4483139958     0.7035648417    -3.0357199812
   50      H      -2.5526948094     2.7319894953     3.3592902252
   51      H      -3.9393161493     3.5028172615     2.4876242259
   52      H      -2.3482542218     3.3312347452     1.6647751862
   53      H      -0.6447187932     2.1079180215    -0.2233826708
   54      H       0.1760566609     0.5439324586    -0.5397030333
   55      H      -0.1183207101     1.9641510332     2.1823734360
   56      H       0.0196021397     0.1492634170     2.0667573154
 ----------------------------------------------------------------

    9   -1510.2765340211      5.09E-09 Convergence criterion met
 Total energy in the final basis set = -1510.27653402
 Final energy is   -1510.27653402107
 **  OPTIMIZATION CONVERGED  **

                    Orbital Energies (a.u.)
 --------------------------------------------------------------

 Alpha MOs
 -- Occupied --
-18.936 -18.935 -18.930 -18.930 -18.888 -18.885 -18.878 -18.876
-18.874 -18.871 -10.106 -10.102 -10.096 -10.095 -10.068 -10.067
-10.061 -10.060 -10.060 -10.058 -10.056 -10.055 -10.039 -10.037
-10.036 -10.035 -10.021 -10.020 -10.019 -10.018  -1.017  -1.011
 -1.006  -1.003  -0.970  -0.968  -0.940  -0.937  -0.933  -0.932
 -0.765  -0.761  -0.728  -0.722  -0.709  -0.704  -0.693  -0.665
 -0.660  -0.618  -0.597  -0.585  -0.547  -0.544  -0.538  -0.536
 -0.512  -0.508  -0.484  -0.474  -0.465  -0.461  -0.449  -0.443
 -0.434  -0.431  -0.427  -0.414  -0.411  -0.409  -0.405  -0.391
 -0.389  -0.378  -0.372  -0.369  -0.361  -0.358  -0.354  -0.348
 -0.345  -0.338  -0.337  -0.332  -0.330  -0.326  -0.324  -0.312
 -0.308  -0.306  -0.304  -0.298  -0.297  -0.290  -0.281  -0.277
 -0.272  -0.261  -0.255  -0.251  -0.235  -0.232  -0.231  -0.186
 -0.179  -0.175  -0.168  -0.156  -0.154  -0.146  -0.144  -0.143
 -0.141

          Ground-State Mulliken Net Atomic Charges

     Atom                 Charge (a.u.)
  ----------------------------------------
      1 O                    -0.205013
      2 C                     0.210671
      3 C                    -0.078450
      4 C                    -0.080292
      5 C                     0.207342
      6 O                    -0.172535
      7 C                    -0.069441
      8 C                    -0.054056
      9 O                    -0.168738
     10 C                     0.224722
     11 C                    -0.076383
     12 C                    -0.078000
     13 C                     0.216385
     14 O                    -0.215188
     15 O                    -0.176093
     16 O                    -0.173854
     17 O                    -0.211148
     18 C                    -0.128765
     19 C                     0.024394
     20 C                    -0.144913
     21 C                    -0.142092
     22 C                     0.025581
     23 O                    -0.187720
     24 H                     0.087288
     25 H                     0.083792
     26 H                     0.084452
     27 H                     0.078746
     28 H                     0.074087
     29 H                     0.078268
     30 H                     0.073469
     31 H                     0.089225
     32 O                    -0.210840
     33 C                    -0.131003
     34 C                     0.025552
     35 C                    -0.144946
     36 C                    -0.143003
     37 C                     0.025950
     38 O                    -0.184810
     39 H                     0.084550
     40 H                     0.085688
     41 H                     0.094555
     42 H                     0.088835
     43 H                     0.078151
     44 H                     0.072754
     45 H                     0.078047
     46 H                     0.073354
     47 H                     0.084769
     48 H                     0.088317
     49 H                     0.091239
     50 H                     0.090386
     51 H                     0.090804
     52 H                     0.086181
     53 H                     0.084801
     54 H                     0.093637
     55 H                     0.080632
     56 H                     0.120654
  ----------------------------------------
  Sum of atomic charges =     0.000000

                    Cartesian Multipole Moments
 -----------------------------------------------------------------
    Charge (ESU x 10^10)
                 0.0000
    Dipole Moment (Debye)
         X      -0.8767      Y       2.2886      Z       0.6832
       Tot       2.5442
    Quadrupole Moments (Debye-Ang)
        XX    -141.1605     XY      16.4305     YY    -164.7037
        XZ      -1.4843     YZ       3.7100     ZZ    -156.8644

 Total job time:  73.07s(wall), 3479.53s(cpu)
        *  Thank you very much for using Q-Chem.  Have a nice day.  *
