 Q-Chem 5.0, Q-Chem, Inc., Pleasanton, CA (2017)
 Q-Chem 5.0.1 for Intel X86 EM64T Linux

User input:
--------------------------------------------------------------
$molecule
0  1
O -3.94934 -3.66094 2.70899
C -3.26408 -4.56952 2.26188
C -3.36658 -6.02376 2.66595
C -2.11891 -6.66889 3.29123
C -0.96609 -5.74152 3.60603
O 0.12996 -6.09851 2.87346
C 1.25341 -5.2368 3.08453
C 0.98217 -3.86233 2.48172
O 1.55983 -2.84164 3.31082
C 1.82042 -3.20792 4.5903
C 2.43516 -2.09623 5.40695
C 2.91129 -0.88325 4.5944
C 2.39435 -0.79631 3.17246
O 2.02765 0.22692 2.6129
O -2.38452 -4.29258 1.26409
O 3.17751 -1.57419 2.34636
O 1.15763 -3.98685 5.26344
C 3.23526 -1.47794 0.96844
C 1.45046 -1.41338 6.38621
C 2.23247 -0.76381 7.5257
C 2.88473 0.38954 6.79529
C 2.23629 0.23927 5.41375
O 0.96628 -0.29844 5.68362
H 3.26306 -2.55848 5.99073
H 4.01751 -0.76117 4.57301
H 0.67896 -2.09525 6.80453
H 1.48279 -0.35324 8.23998
H 2.92933 -1.43402 8.07349
H 2.56593 1.33758 7.28293
H 3.99363 0.34679 6.73107
H 2.2461 1.21985 4.88918
O -1.0625 -4.77525 4.35026
C -2.2287 -3.04706 0.69066
C -4.38336 -6.25632 3.80505
C -4.84913 -7.71309 3.8062
C -3.61697 -8.40385 4.35089
C -2.7116 -7.19643 4.60837
O -3.61056 -6.17876 4.97809
H -3.70218 -6.56972 1.75576
H -1.74313 -7.50229 2.65331
H -1.92528 -2.30358 1.45849
H -5.26595 -5.58219 3.75269
H -5.66604 -7.80738 4.55707
H -5.20827 -8.08465 2.82238
H -3.88256 -8.88576 5.3183
H -3.15031 -9.15067 3.67277
H -1.92638 -7.45254 5.35395
H -3.17933 -2.72422 0.2151
H -1.43945 -3.10097 -0.08699
H 3.93058 -2.24949 0.57931
H 3.6108 -0.47674 0.66788
H 2.22867 -1.64606 0.53028
H 1.38448 -3.79948 1.44737
H -0.09312 -3.62707 2.39831
H 2.05702 -5.62235 2.42023
H 1.81349 -5.56128 3.98256
$end

$opt
CONSTRAINT
tors           1           2           3           4    -119.158
tors           3           4           5           6    -117.697
tors           4           5           6           7    +178.058
tors           5           6           7           8     -69.528
tors           6           7           8           9    +143.680
tors           7           8           9          10     -20.126
tors           8           9          10          11    +179.578
tors           9          10          11          12     -11.909
tors          11          12          13          14    +139.492
ENDCONSTRAINT
$end

$rem
JOBTYPE                   OPT
METHOD                    B3LYP
DFT_D                     d3_op
BASIS                     STO-3G
GEOM_OPT_MAX_CYCLES       100
GEOM_OPT_TOL_GRADIENT     300
GEOM_OPT_TOL_DISPLACEMENT 1200
GEOM_OPT_TOL_ENERGY       100
SYMMETRY                  False
THRESH                    12
SCF_CONVERGENCE           8
MAX_SUB_FILE_NUM          128
MEM_STATIC                400
MEM_TOTAL                 4000
$end
--------------------------------------------------------------

   16   -1510.0603162214      3.14E-09 Convergence criterion met
 Total energy in the final basis set = -1510.06031622
   14   -1510.1414507133      8.59E-09 Convergence criterion met
 Total energy in the final basis set = -1510.14145071
   14   -1510.1908829700      7.98E-09 Convergence criterion met
 Total energy in the final basis set = -1510.19088297
   14   -1510.2203160525      7.97E-09 Convergence criterion met
 Total energy in the final basis set = -1510.22031605
   15   -1510.2379943795      2.08E-09 Convergence criterion met
 Total energy in the final basis set = -1510.23799438
   13   -1510.2497591144      7.15E-09 Convergence criterion met
 Total energy in the final basis set = -1510.24975911
   13   -1510.2575105854      4.52E-09 Convergence criterion met
 Total energy in the final basis set = -1510.25751059
   13   -1510.2628907002      7.02E-09 Convergence criterion met
   12   -1510.2754860611      1.42E-09 Convergence criterion met
 Total energy in the final basis set = -1510.27548606
   11   -1510.2755043673      5.34E-09 Convergence criterion met
 Total energy in the final basis set = -1510.27550437
   11   -1510.2755201924      3.02E-09 Convergence criterion met
 Total energy in the final basis set = -1510.27552019
   10   -1510.2755345725      7.80E-09 Convergence criterion met
 Total energy in the final basis set = -1510.27553457
    9   -1510.2755394659      5.56E-09 Convergence criterion met
 Total energy in the final basis set = -1510.27553947
    9   -1510.2755346906      9.99E-09 Convergence criterion met
 Total energy in the final basis set = -1510.27553469

             Standard Nuclear Orientation (Angstroms)
    I     Atom           X                Y                Z
 ----------------------------------------------------------------
    1      O      -2.5713138863    -0.8051761101     2.5611008474
    2      C      -2.6052604519     0.0465630019     1.6464810066
    3      C      -3.8744863720     0.3733579938     0.7599346807
    4      C      -3.6894721590     0.1166274487    -0.8009095632
    5      C      -2.1884250071     0.0015397453    -1.1853487368
    6      O      -1.8600951297     1.0669028988    -2.0966025053
    7      C      -0.4128839213     0.9732938781    -2.4185459749
    8      C       0.3616633704     1.3709162802    -1.0945820292
    9      O       1.6281230906     0.6907875643    -0.7339821599
   10      C       1.9237178998    -0.5727682613    -1.3097465703
   11      C       3.3236374186    -1.0200977424    -0.7438399709
   12      C       4.1117728382     0.1175614348     0.0134804517
   13      C       3.7842823483     1.5836971496    -0.4453639052
   14      O       3.6476611807     2.5934939178     0.2766826450
   15      O      -1.4881216704     0.8934948328     1.3147094937
   16      O       3.8843121565     1.6246900154    -1.8815938327
   17      O       1.2204988116    -1.2383981465    -2.1048244036
   18      C       3.6538845625     3.0035887305    -2.3629170153
   19      C       2.9504672765    -1.9479338685     0.5013898636
   20      C       4.2540903196    -2.5342862116     1.1749710611
   21      C       4.7516456169    -1.3037959865     2.0227297821
   22      C       3.7510281577    -0.1921795863     1.5282415303
   23      O       2.4644209428    -0.9295710165     1.4675488793
   24      H       3.9072820486    -1.5318579702    -1.5278672572
   25      H       5.1970314442    -0.0254358451    -0.1482729801
   26      H       2.1563485508    -2.6898735609     0.2870879130
   27      H       4.0059483596    -3.3970978573     1.8130544789
   28      H       4.9914905236    -2.8545751627     0.4210586023
   29      H       4.6231759137    -1.4832821897     3.1023722074
   30      H       5.8041981792    -1.0443783421     1.8273261234
   31      H       3.6598166597     0.7083814887     2.1663179490
   32      O      -1.3909268652    -0.8952753360    -0.8330604202
   33      C      -0.3223281490     0.5646437391     2.1824727953
   34      C      -4.9770312697    -0.7147464927     1.0907728871
   35      C      -6.3389321548    -0.3291003277     0.3884612373
   36      C      -6.0584495157    -0.7646390587    -1.0987991305
   37      C      -4.5478994944    -1.2092262762    -0.9947872885
   38      O      -4.4904464735    -1.8850492494     0.3192959057
   39      H      -4.2031260283     1.4096836172     0.9608545744
   40      H      -4.1223055460     0.9528231696    -1.3775120557
   41      H       0.4793687810     0.0583495255     1.5989206911
   42      H      -5.0439859984    -0.9689455988     2.1660629063
   43      H      -7.1742519098    -0.8972699491     0.8270656310
   44      H      -6.5587785084     0.7467755963     0.4801638577
   45      H      -6.6885517008    -1.6198397071    -1.3917501895
   46      H      -6.2101624306     0.0518038728    -1.8225228670
   47      H      -4.1883094416    -1.8843190856    -1.7954091813
   48      H      -0.6590810375    -0.1016408922     3.0002971422
   49      H       0.0694132624     1.5156518409     2.5905046020
   50      H       3.8363695403     2.9836087550    -3.4532248289
   51      H       4.3431645816     3.7280889424    -1.8831500001
   52      H       2.6126106661     3.3350411800    -2.1719545763
   53      H       0.6394375131     2.4455491780    -1.1309192716
   54      H      -0.3420529629     1.2408354665    -0.2394223690
   55      H      -0.2246102042     1.6899940822    -3.2392057805
   56      H      -0.1012910504    -0.0607105965    -2.6934161888
 ----------------------------------------------------------------

    9   -1510.2755338571      5.03E-09 Convergence criterion met
 Total energy in the final basis set = -1510.27553386
 Final energy is   -1510.27553385713
 **  OPTIMIZATION CONVERGED  **

                    Orbital Energies (a.u.)
 --------------------------------------------------------------

 Alpha MOs
 -- Occupied --
-18.945 -18.932 -18.928 -18.922 -18.889 -18.885 -18.881 -18.877
-18.869 -18.863 -10.109 -10.098 -10.097 -10.094 -10.061 -10.061
-10.060 -10.059 -10.058 -10.056 -10.055 -10.043 -10.039 -10.038
-10.035 -10.035 -10.021 -10.020 -10.020 -10.018  -1.017  -1.010
 -1.003  -1.000  -0.971  -0.968  -0.944  -0.934  -0.930  -0.928
 -0.764  -0.761  -0.728  -0.722  -0.707  -0.703  -0.691  -0.659
 -0.651  -0.619  -0.597  -0.585  -0.546  -0.543  -0.537  -0.535
 -0.510  -0.506  -0.486  -0.472  -0.461  -0.459  -0.450  -0.441
 -0.437  -0.432  -0.428  -0.411  -0.408  -0.406  -0.399  -0.392
 -0.387  -0.376  -0.368  -0.363  -0.360  -0.358  -0.349  -0.346
 -0.342  -0.341  -0.335  -0.332  -0.330  -0.326  -0.323  -0.311
 -0.308  -0.306  -0.303  -0.301  -0.298  -0.291  -0.280  -0.272
 -0.269  -0.258  -0.249  -0.246  -0.236  -0.232  -0.231  -0.187
 -0.176  -0.170  -0.166  -0.156  -0.151  -0.147  -0.146  -0.142
 -0.141

          Ground-State Mulliken Net Atomic Charges

     Atom                 Charge (a.u.)
  ----------------------------------------
      1 O                    -0.205760
      2 C                     0.214409
      3 C                    -0.076584
      4 C                    -0.082130
      5 C                     0.206783
      6 O                    -0.171969
      7 C                    -0.069747
      8 C                    -0.060889
      9 O                    -0.167679
     10 C                     0.226549
     11 C                    -0.075984
     12 C                    -0.078995
     13 C                     0.221115
     14 O                    -0.224305
     15 O                    -0.177247
     16 O                    -0.179105
     17 O                    -0.207523
     18 C                    -0.128785
     19 C                     0.024008
     20 C                    -0.145085
     21 C                    -0.141679
     22 C                     0.024045
     23 O                    -0.193017
     24 H                     0.088745
     25 H                     0.082333
     26 H                     0.088267
     27 H                     0.079558
     28 H                     0.074438
     29 H                     0.078425
     30 H                     0.073805
     31 H                     0.090368
     32 O                    -0.211477
     33 C                    -0.144078
     34 C                     0.024898
     35 C                    -0.145426
     36 C                    -0.142279
     37 C                     0.026062
     38 O                    -0.185659
     39 H                     0.084628
     40 H                     0.085347
     41 H                     0.105747
     42 H                     0.090845
     43 H                     0.078499
     44 H                     0.072913
     45 H                     0.078250
     46 H                     0.073644
     47 H                     0.085860
     48 H                     0.101062
     49 H                     0.083419
     50 H                     0.087677
     51 H                     0.088360
     52 H                     0.081832
     53 H                     0.080566
     54 H                     0.109089
     55 H                     0.083449
     56 H                     0.120408
  ----------------------------------------
  Sum of atomic charges =    -0.000000

                    Cartesian Multipole Moments
 -----------------------------------------------------------------
    Charge (ESU x 10^10)
                -0.0000
    Dipole Moment (Debye)
         X       0.6488      Y       1.8387      Z      -1.2256
       Tot       2.3030
    Quadrupole Moments (Debye-Ang)
        XX    -137.7715     XY     -10.3853     YY    -162.7297
        XZ       1.9248     YZ      -2.8186     ZZ    -159.4830

 Total job time:  105.69s(wall), 5037.62s(cpu)
        *  Thank you very much for using Q-Chem.  Have a nice day.  *
