 Q-Chem 5.0, Q-Chem, Inc., Pleasanton, CA (2017)
 Q-Chem 5.0.1 for Intel X86 EM64T Linux

User input:
--------------------------------------------------------------
$molecule
0  1
O -2.5713138863 -0.8051761101 2.5611008474
C -2.6052604519 0.0465630019 1.6464810066
C -3.874486372 0.3733579938 0.7599346807
C -3.689472159 0.1166274487 -0.8009095632
C -2.1884250071 0.0015397453 -1.1853487368
O -1.8600951297 1.0669028988 -2.0966025053
C -0.4128839213 0.9732938781 -2.4185459749
C 0.3616633704 1.3709162802 -1.0945820292
O 1.6281230906 0.6907875643 -0.7339821599
C 1.9237178998 -0.5727682613 -1.3097465703
C 3.3236374186 -1.0200977424 -0.7438399709
C 4.1117728382 0.1175614348 0.0134804517
C 3.7842823483 1.5836971496 -0.4453639052
O 3.6476611807 2.5934939178 0.276682645
O -1.4881216704 0.8934948328 1.3147094937
O 3.8843121565 1.6246900154 -1.8815938327
O 1.2204988116 -1.2383981465 -2.1048244036
C 3.6538845625 3.0035887305 -2.3629170153
C 2.9504672765 -1.9479338685 0.5013898636
C 4.2540903196 -2.5342862116 1.1749710611
C 4.7516456169 -1.3037959865 2.0227297821
C 3.7510281577 -0.1921795863 1.5282415303
O 2.4644209428 -0.9295710165 1.4675488793
H 3.9072820486 -1.5318579702 -1.5278672572
H 5.1970314442 -0.0254358451 -0.1482729801
H 2.1563485508 -2.6898735609 0.287087913
H 4.0059483596 -3.3970978573 1.8130544789
H 4.9914905236 -2.8545751627 0.4210586023
H 4.6231759137 -1.4832821897 3.1023722074
H 5.8041981792 -1.0443783421 1.8273261234
H 3.6598166597 0.7083814887 2.166317949
O -1.3909268652 -0.895275336 -0.8330604202
C -0.322328149 0.5646437391 2.1824727953
C -4.9770312697 -0.7147464927 1.0907728871
C -6.3389321548 -0.3291003277 0.3884612373
C -6.0584495157 -0.7646390587 -1.0987991305
C -4.5478994944 -1.2092262762 -0.9947872885
O -4.4904464735 -1.8850492494 0.3192959057
H -4.2031260283 1.4096836172 0.9608545744
H -4.122305546 0.9528231696 -1.3775120557
H 0.479368781 0.0583495255 1.5989206911
H -5.0439859984 -0.9689455988 2.1660629063
H -7.1742519098 -0.8972699491 0.827065631
H -6.5587785084 0.7467755963 0.4801638577
H -6.6885517008 -1.6198397071 -1.3917501895
H -6.2101624306 0.0518038728 -1.822522867
H -4.1883094416 -1.8843190856 -1.7954091813
H -0.6590810375 -0.1016408922 3.0002971422
H 0.0694132624 1.5156518409 2.590504602
H 3.8363695403 2.983608755 -3.4532248289
H 4.3431645816 3.7280889424 -1.8831500001
H 2.6126106661 3.33504118 -2.1719545763
H 0.6394375131 2.445549178 -1.1309192716
H -0.3420529629 1.2408354665 -0.239422369
H -0.2246102042 1.6899940822 -3.2392057805
H -0.1012910504 -0.0607105965 -2.6934161888
$end

$rem
JOBTYPE                   OPT
METHOD                    B3LYP
DFT_D                     d3_op
BASIS                     STO-3G
GEOM_OPT_MAX_CYCLES       100
GEOM_OPT_TOL_GRADIENT     300
GEOM_OPT_TOL_DISPLACEMENT 1200
GEOM_OPT_TOL_ENERGY       100
SYMMETRY                  False
THRESH                    12
SCF_CONVERGENCE           8
MAX_SUB_FILE_NUM          128
MEM_STATIC                400
MEM_TOTAL                 4000
$end
--------------------------------------------------------------

   16   -1510.2756082017      6.15E-09 Convergence criterion met
 Total energy in the final basis set = -1510.27560820
   15   -1510.2469928916      5.46E-09 Convergence criterion met
 Total energy in the final basis set = -1510.24699289
   15   -1510.2772811959      3.58E-09 Convergence criterion met
 Total energy in the final basis set = -1510.27728120
   15   -1510.2754598266      1.85E-09 Convergence criterion met
 Total energy in the final basis set = -1510.27545983
   14   -1510.2751851151      8.90E-09 Convergence criterion met
 Total energy in the final basis set = -1510.27518512
   14   -1510.2798363530      9.98E-09 Convergence criterion met
 Total energy in the final basis set = -1510.27983635
   13   -1510.2798822518      7.65E-09 Convergence criterion met
 Total energy in the final basis set = -1510.27988225
   14   -1510.2821734058      6.24E-09 Convergence criterion met
   12   -1510.3042497666      3.22E-09 Convergence criterion met
 Total energy in the final basis set = -1510.30424977
   11   -1510.3042467382      6.95E-09 Convergence criterion met
 Total energy in the final basis set = -1510.30424674
   10   -1510.3042479997      8.44E-09 Convergence criterion met
 Total energy in the final basis set = -1510.30424800
   10   -1510.3042485767      4.01E-09 Convergence criterion met
 Total energy in the final basis set = -1510.30424858
   10   -1510.3042464024      8.34E-09 Convergence criterion met
 Total energy in the final basis set = -1510.30424640
    9   -1510.3042450575      6.04E-09 Convergence criterion met
 Total energy in the final basis set = -1510.30424506

             Standard Nuclear Orientation (Angstroms)
    I     Atom           X                Y                Z
 ----------------------------------------------------------------
    1      O       1.2382719518    -2.1123375198    -1.4641344549
    2      C       1.7341268733    -0.9646207431    -1.4424277540
    3      C       3.1586071031    -0.5821042473    -0.8990711922
    4      C       3.1839670954     0.5764903503     0.1847877396
    5      C       1.7820334784     1.1711981359     0.5509073397
    6      O       1.6911756470     2.4818422935    -0.0150732549
    7      C       0.4515252619     3.1682864361     0.4162057541
    8      C      -0.8126325952     2.8062051912    -0.4516764839
    9      O      -1.3244287516     1.4363301835    -0.2301157141
   10      C      -1.9494225704     1.3358928905     1.0580840665
   11      C      -2.4728068783    -0.1240291286     1.2567557751
   12      C      -3.5571502013    -0.5938873396     0.1959064245
   13      C      -3.7143868115     0.4066718565    -1.0047613039
   14      O      -3.5045881086     0.1870659088    -2.2158878238
   15      O       1.1071024477     0.2056472392    -1.9589597472
   16      O      -4.1705652166     1.6615563334    -0.4799155974
   17      O      -2.0280705762     2.2795354206     1.8740068927
   18      C      -4.3020302381     2.6489340986    -1.5744875529
   19      C      -1.3420135647    -1.2271787628     1.0436185557
   20      C      -1.8024295273    -2.5326250123     1.7943563057
   21      C      -2.9821077478    -3.0159876238     0.8667117695
   22      C      -2.9204919482    -1.9527674987    -0.2996017150
   23      O      -1.4809961459    -1.6169555006    -0.3792413529
   24      H      -2.8846087704    -0.1765836716     2.2795583572
   25      H      -4.5437762647    -0.7349799759     0.6739331051
   26      H      -0.3141606959    -0.8518347489     1.2456380717
   27      H      -0.9827428422    -3.2687080931     1.8168737543
   28      H      -2.1272696664    -2.3304368542     2.8273500093
   29      H      -2.8013230407    -4.0292381447     0.4748404372
   30      H      -3.9567055790    -3.0038874826     1.3808019411
   31      H      -3.2895495982    -2.2926204443    -1.2868294447
   32      O       0.9071201200     0.6638396811     1.2883043933
   33      C      -0.2288376826    -0.1483303905    -2.5112678994
   34      C       3.7713184830    -1.7872121083    -0.0756230810
   35      C       5.3237085393    -1.5577657941     0.0841606313
   36      C       5.3502344418    -0.4088567836     1.1596723072
   37      C       3.8062722466    -0.2022402967     1.4246867817
   38      O       3.2434598406    -1.5641023110     1.2914221003
   39      H       3.7931060632    -0.3089469955    -1.7625591975
   40      H       3.8264477195     1.4108781782    -0.1464683010
   41      H      -0.8442723177    -0.6650973227    -1.7308330999
   42      H       3.4593157364    -2.7811772995    -0.4514628985
   43      H       5.8137240258    -2.4712720421     0.4568501652
   44      H       5.7999556682    -1.2636977448    -0.8647655940
   45      H       5.8575251174    -0.7312172971     2.0828440295
   46      H       5.8358941944     0.5091379017     0.7920177728
   47      H       3.5478166952     0.2273511039     2.4118974026
   48      H      -0.1218736179    -0.8009922845    -3.4011454427
   49      H      -0.6965101890     0.8049550016    -2.8134427481
   50      H      -4.5448379746     3.6127381708    -1.0903630577
   51      H      -5.1155914979     2.3731839040    -2.2765835710
   52      H      -3.3600939704     2.7462990514    -2.1511727629
   53      H      -1.6020510173     3.5572913843    -0.2286624674
   54      H      -0.5519517861     2.8529900157    -1.5280287413
   55      H       0.6587194631     4.2507485982     0.2917371315
   56      H       0.2263396185     2.9558103622     1.4824613360
 ----------------------------------------------------------------

    9   -1510.3042429570      2.90E-09 Convergence criterion met
 Total energy in the final basis set = -1510.30424296
 Final energy is   -1510.30424295698
 **  OPTIMIZATION CONVERGED  **

                    Orbital Energies (a.u.)
 --------------------------------------------------------------

 Alpha MOs
 -- Occupied --
-18.936 -18.934 -18.931 -18.914 -18.895 -18.882 -18.876 -18.876
-18.870 -18.858 -10.103 -10.100 -10.098 -10.083 -10.074 -10.072
-10.066 -10.059 -10.057 -10.052 -10.048 -10.037 -10.034 -10.032
-10.030 -10.020 -10.018 -10.017 -10.016 -10.013  -1.018  -1.012
 -1.003  -0.992  -0.971  -0.966  -0.938  -0.937  -0.933  -0.918
 -0.762  -0.758  -0.725  -0.719  -0.710  -0.701  -0.694  -0.664
 -0.637  -0.617  -0.594  -0.580  -0.545  -0.539  -0.533  -0.532
 -0.508  -0.505  -0.478  -0.474  -0.464  -0.452  -0.445  -0.440
 -0.429  -0.427  -0.425  -0.414  -0.414  -0.403  -0.399  -0.389
 -0.385  -0.374  -0.370  -0.367  -0.358  -0.355  -0.349  -0.347
 -0.342  -0.339  -0.335  -0.327  -0.325  -0.323  -0.319  -0.307
 -0.304  -0.302  -0.299  -0.294  -0.289  -0.286  -0.277  -0.271
 -0.266  -0.253  -0.252  -0.246  -0.242  -0.230  -0.223  -0.192
 -0.178  -0.165  -0.159  -0.156  -0.154  -0.148  -0.141  -0.141
 -0.135

          Ground-State Mulliken Net Atomic Charges

     Atom                 Charge (a.u.)
  ----------------------------------------
      1 O                    -0.210633
      2 C                     0.206447
      3 C                    -0.079112
      4 C                    -0.079223
      5 C                     0.219629
      6 O                    -0.167911
      7 C                    -0.052588
      8 C                    -0.048666
      9 O                    -0.171890
     10 C                     0.219082
     11 C                    -0.080405
     12 C                    -0.078846
     13 C                     0.213794
     14 O                    -0.211074
     15 O                    -0.177888
     16 O                    -0.173330
     17 O                    -0.217228
     18 C                    -0.128841
     19 C                     0.019433
     20 C                    -0.142202
     21 C                    -0.143935
     22 C                     0.027153
     23 O                    -0.182434
     24 H                     0.085543
     25 H                     0.085705
     26 H                     0.112692
     27 H                     0.082825
     28 H                     0.073855
     29 H                     0.079789
     30 H                     0.072419
     31 H                     0.090114
     32 O                    -0.220110
     33 C                    -0.147161
     34 C                     0.023591
     35 C                    -0.144293
     36 C                    -0.144009
     37 C                     0.025229
     38 O                    -0.188775
     39 H                     0.082864
     40 H                     0.085720
     41 H                     0.124138
     42 H                     0.091350
     43 H                     0.077410
     44 H                     0.072832
     45 H                     0.077290
     46 H                     0.072784
     47 H                     0.082287
     48 H                     0.073632
     49 H                     0.075265
     50 H                     0.090032
     51 H                     0.087990
     52 H                     0.088842
     53 H                     0.088919
     54 H                     0.092118
     55 H                     0.089109
     56 H                     0.100676
  ----------------------------------------
  Sum of atomic charges =     0.000000

                    Cartesian Multipole Moments
 -----------------------------------------------------------------
    Charge (ESU x 10^10)
                 0.0000
    Dipole Moment (Debye)
         X       0.0851      Y       1.8936      Z      -0.0745
       Tot       1.8970
    Quadrupole Moments (Debye-Ang)
        XX    -141.0156     XY       2.5847     YY    -154.8278
        XZ       0.0136     YZ      -6.1183     ZZ    -163.5615

 Total job time:  176.00s(wall), 8403.55s(cpu)
        *  Thank you very much for using Q-Chem.  Have a nice day.  *
