 Q-Chem 5.0, Q-Chem, Inc., Pleasanton, CA (2017)
 Q-Chem 5.0.1 for Intel X86 EM64T Linux

User input:
--------------------------------------------------------------
$molecule
0  1
O -3.94934 -3.66094 2.70899
C -3.26408 -4.56952 2.26188
C -3.36658 -6.02376 2.66595
C -2.05418 -6.7588 2.98404
C -0.80206 -5.91167 3.03528
O 0.16066 -6.4577 2.23499
C 1.36795 -5.68919 2.20192
C 1.30204 -4.65469 1.08318
O 2.40645 -3.74314 1.19382
C 3.16272 -3.87633 2.31162
C 4.31203 -2.89808 2.36442
C 4.74821 -2.33773 1.00279
C 3.77433 -2.545 -0.13971
O 3.39804 -1.67901 -0.91626
O -2.46866 -4.31134 1.19023
O 3.8371 -3.81071 -0.66352
O 3.5772 -4.93031 2.78723
C 3.30071 -4.18941 -1.87851
C 3.95154 -1.59935 3.11242
C 5.2239 -0.94651 3.64907
C 5.87286 -0.49468 2.35651
C 4.75783 -0.83406 1.35753
O 3.57185 -0.69864 2.10227
H 5.19209 -3.3543 2.88456
H 5.74349 -2.711 0.67387
H 3.21794 -1.75198 3.93423
H 4.90142 -0.04642 4.22062
H 5.86152 -1.58067 4.30188
H 6.04525 0.60273 2.4173
H 6.817 -1.01775 2.09044
H 4.84591 -0.18371 0.45971
O -0.69346 -4.89032 3.70712
C -2.30239 -3.0628 0.6279
C -4.1323 -6.22281 3.98764
C -4.65661 -7.65673 4.08257
C -3.37432 -8.40716 4.37231
C -2.37442 -7.24914 4.4096
O -3.1201 -6.19072 4.9628
H -3.89928 -6.52502 1.82701
H -1.88428 -7.62639 2.30485
H -1.87426 -2.36157 1.37587
H -4.97082 -5.50591 4.12431
H -5.31657 -7.72887 4.97639
H -5.21316 -7.99454 3.18188
H -3.45095 -8.85377 5.38904
H -3.10498 -9.19471 3.63586
H -1.46157 -7.54933 4.97078
H -3.27638 -2.67415 0.26127
H -1.60388 -3.14016 -0.2304
H 3.48289 -5.27231 -2.03464
H 3.78347 -3.62336 -2.70337
H 2.20587 -4.00292 -1.8902
H 1.30617 -5.16699 0.09884
H 0.37245 -4.05749 1.17175
H 2.16234 -6.42937 1.95394
H 1.49386 -5.3027 3.24251
$end

$opt
CONSTRAINT
tors           1           2           3           4    -132.873
tors           3           4           5           6    -128.156
tors           4           5           6           7    +178.367
tors           5           6           7           8     -89.509
tors           6           7           8           9    +170.323
tors           7           8           9          10      -7.357
tors           8           9          10          11    +179.578
tors           9          10          11          12     -22.337
tors          11          12          13          14    +131.043
ENDCONSTRAINT
$end

$rem
JOBTYPE                   OPT
METHOD                    B3LYP
DFT_D                     d3_op
BASIS                     STO-3G
GEOM_OPT_MAX_CYCLES       100
GEOM_OPT_TOL_GRADIENT     300
GEOM_OPT_TOL_DISPLACEMENT 1200
GEOM_OPT_TOL_ENERGY       100
SYMMETRY                  False
THRESH                    12
SCF_CONVERGENCE           8
MAX_SUB_FILE_NUM          128
MEM_STATIC                400
MEM_TOTAL                 4000
$end
--------------------------------------------------------------

   16   -1510.0886475766      5.04E-09 Convergence criterion met
 Total energy in the final basis set = -1510.08864758
   14   -1510.1673109629      7.81E-09 Convergence criterion met
 Total energy in the final basis set = -1510.16731096
   14   -1510.2147529203      7.84E-09 Convergence criterion met
 Total energy in the final basis set = -1510.21475292
   14   -1510.2414090869      8.92E-09 Convergence criterion met
 Total energy in the final basis set = -1510.24140909
   14   -1510.2540194595      8.58E-09 Convergence criterion met
 Total energy in the final basis set = -1510.25401946
   14   -1510.2627701943      5.11E-09 Convergence criterion met
 Total energy in the final basis set = -1510.26277019
   13   -1510.2676838392      7.55E-09 Convergence criterion met
 Total energy in the final basis set = -1510.26768384
   13   -1510.2709516499      4.98E-09 Convergence criterion met
   10   -1510.2771031990      9.37E-09 Convergence criterion met
 Total energy in the final basis set = -1510.27710320
   10   -1510.2771391268      7.40E-09 Convergence criterion met
 Total energy in the final basis set = -1510.27713913
   10   -1510.2771653459      6.22E-09 Convergence criterion met
 Total energy in the final basis set = -1510.27716535
   10   -1510.2771767330      6.22E-09 Convergence criterion met
 Total energy in the final basis set = -1510.27717673
    9   -1510.2771796839      4.69E-09 Convergence criterion met
 Total energy in the final basis set = -1510.27717968
    9   -1510.2771807388      1.80E-09 Convergence criterion met
 Total energy in the final basis set = -1510.27718074

             Standard Nuclear Orientation (Angstroms)
    I     Atom           X                Y                Z
 ----------------------------------------------------------------
    1      O      -3.4826206302     0.0578881709     2.8762045702
    2      C      -3.2895515701     0.5056388348     1.7261472901
    3      C      -4.3606938242     0.6282230012     0.5818666346
    4      C      -3.9087116006     0.0965690372    -0.8427871306
    5      C      -2.4689577095    -0.5125533529    -0.8505941693
    6      O      -1.7276381837     0.1157456897    -1.9086631233
    7      C      -0.3373338792    -0.4055162684    -1.9284031088
    8      C       0.5009682100     0.5283192989    -0.9747698601
    9      O       1.8912623329     0.1731910039    -0.5885882676
   10      C       2.4025124950    -1.1023377881    -0.9640701296
   11      C       3.8811088139    -1.1869687938    -0.4338036271
   12      C       4.5874903105     0.2036672467    -0.1696091520
   13      C       3.9053167713     1.4530226768    -0.8345095229
   14      O       3.6150919967     2.5396136059    -0.2917943399
   15      O      -2.0528426415     1.0928478708     1.2952560478
   16      O       3.8248773813     1.2076669834    -2.2500168899
   17      O       1.7926921839    -2.0137146879    -1.5621865116
   18      C       3.2604916919     2.3897021920    -2.9365392441
   19      C       3.8201963981    -1.7455360371     1.0586352408
   20      C       5.2840038371    -2.0545063200     1.5701888091
   21      C       5.8041279330    -0.6096879759     1.9188866554
   22      C       4.5927425572     0.2649478815     1.4149111584
   23      O       3.4157187891    -0.5406566268     1.8189649972
   24      H       4.4589877999    -1.8414893844    -1.1091811444
   25      H       5.6238758362     0.1645856796    -0.5538305152
   26      H       3.0893309527    -2.5645345678     1.2065984657
   27      H       5.2532520219    -2.7025220405     2.4602757638
   28      H       5.8922439308    -2.5488551201     0.7957003229
   29      H       5.9427888717    -0.4849983631     3.0048615738
   30      H       6.7476118646    -0.3592478303     1.4083575245
   31      H       4.5224521817     1.2917902804     1.8237703208
   32      O      -2.0185271759    -1.4167936465    -0.1142648159
   33      C      -1.0548877688     1.0056631529     2.3895907881
   34      C      -5.6066949607    -0.3060017478     0.8794209065
   35      C      -6.8213439592     0.1825089781    -0.0014556235
   36      C      -6.3793003912    -0.3166501156    -1.4277645597
   37      C      -5.0078268943    -1.0270492790    -1.0925113071
   38      O      -5.2247367771    -1.5947516677     0.2558603599
   39      H      -4.6598953073     1.6909589608     0.5149232555
   40      H      -3.9514898039     0.8936266266    -1.6053929898
   41      H      -0.7053519511    -0.0380048482     2.5284222561
   42      H      -5.8102934245    -0.4432269757     1.9594303807
   43      H      -7.7535511472    -0.3052665073     0.3246963342
   44      H      -6.9578445459     1.2747781184     0.0457222990
   45      H      -7.0969255944    -1.0420104256    -1.8431127039
   46      H      -6.2532012869     0.5074315874    -2.1480286571
   47      H      -4.7007495246    -1.8193460963    -1.8026878698
   48      H      -1.4730881444     1.3691771035     3.3494131722
   49      H      -0.2030397169     1.6419689131     2.0868993536
   50      H       3.2504655188     2.1428339409    -4.0142588089
   51      H       3.8778936749     3.2963116382    -2.7702739036
   52      H       2.2263078146     2.6069723451    -2.6000907660
   53      H       0.5658247714     1.5408965230    -1.4267275270
   54      H      -0.0771764880     0.6232503433    -0.0300338003
   55      H       0.0175894728    -0.3490325207    -2.9758016742
   56      H      -0.3072313895    -1.4533193885    -1.5700541586
 ----------------------------------------------------------------

    8   -1510.2771813579      8.26E-09 Convergence criterion met
 Total energy in the final basis set = -1510.27718136
 Final energy is   -1510.27718135789
 **  OPTIMIZATION CONVERGED  **

                    Orbital Energies (a.u.)
 --------------------------------------------------------------

 Alpha MOs
 -- Occupied --
-18.943 -18.934 -18.932 -18.925 -18.887 -18.886 -18.878 -18.877
-18.873 -18.866 -10.107 -10.100 -10.098 -10.097 -10.073 -10.067
-10.062 -10.061 -10.061 -10.060 -10.057 -10.056 -10.039 -10.038
-10.037 -10.034 -10.020 -10.020 -10.019 -10.019  -1.017  -1.013
 -1.007  -1.002  -0.970  -0.969  -0.944  -0.937  -0.934  -0.930
 -0.764  -0.762  -0.729  -0.722  -0.710  -0.704  -0.696  -0.661
 -0.660  -0.621  -0.597  -0.587  -0.546  -0.544  -0.537  -0.537
 -0.511  -0.510  -0.483  -0.478  -0.463  -0.460  -0.451  -0.443
 -0.439  -0.430  -0.430  -0.412  -0.410  -0.407  -0.406  -0.398
 -0.390  -0.378  -0.373  -0.366  -0.363  -0.359  -0.354  -0.347
 -0.344  -0.339  -0.339  -0.332  -0.331  -0.326  -0.324  -0.310
 -0.310  -0.305  -0.304  -0.301  -0.301  -0.291  -0.284  -0.273
 -0.272  -0.260  -0.253  -0.250  -0.236  -0.234  -0.233  -0.182
 -0.177  -0.174  -0.170  -0.158  -0.154  -0.150  -0.146  -0.144
 -0.143

          Ground-State Mulliken Net Atomic Charges

     Atom                 Charge (a.u.)
  ----------------------------------------
      1 O                    -0.208247
      2 C                     0.213685
      3 C                    -0.078589
      4 C                    -0.079483
      5 C                     0.210911
      6 O                    -0.173626
      7 C                    -0.055742
      8 C                    -0.051939
      9 O                    -0.166956
     10 C                     0.218888
     11 C                    -0.076484
     12 C                    -0.079320
     13 C                     0.219963
     14 O                    -0.221237
     15 O                    -0.175364
     16 O                    -0.178304
     17 O                    -0.213529
     18 C                    -0.128402
     19 C                     0.024327
     20 C                    -0.144664
     21 C                    -0.142739
     22 C                     0.023935
     23 O                    -0.190532
     24 H                     0.087098
     25 H                     0.082588
     26 H                     0.084061
     27 H                     0.078562
     28 H                     0.073946
     29 H                     0.077954
     30 H                     0.073158
     31 H                     0.090221
     32 O                    -0.212950
     33 C                    -0.131516
     34 C                     0.024371
     35 C                    -0.143958
     36 C                    -0.143927
     37 C                     0.026184
     38 O                    -0.186309
     39 H                     0.084498
     40 H                     0.086278
     41 H                     0.094075
     42 H                     0.091886
     43 H                     0.078653
     44 H                     0.072984
     45 H                     0.078315
     46 H                     0.073480
     47 H                     0.083538
     48 H                     0.092865
     49 H                     0.093189
     50 H                     0.088219
     51 H                     0.087586
     52 H                     0.083068
     53 H                     0.085174
     54 H                     0.096108
     55 H                     0.089004
     56 H                     0.115047
  ----------------------------------------
  Sum of atomic charges =     0.000000

                    Cartesian Multipole Moments
 -----------------------------------------------------------------
    Charge (ESU x 10^10)
                 0.0000
    Dipole Moment (Debye)
         X       0.9673      Y       1.9498      Z      -2.0512
       Tot       2.9908
    Quadrupole Moments (Debye-Ang)
        XX    -138.9828     XY     -12.1821     YY    -164.7542
        XZ       6.8092     YZ      -1.8421     ZZ    -159.5019

 Total job time:  64.11s(wall), 3052.19s(cpu)
        *  Thank you very much for using Q-Chem.  Have a nice day.  *
