 Q-Chem 5.0, Q-Chem, Inc., Pleasanton, CA (2017)
 Q-Chem 5.0.1 for Intel X86 EM64T Linux

User input:
--------------------------------------------------------------
$molecule
0  1
O -3.4826206302 0.0578881709 2.8762045702
C -3.2895515701 0.5056388348 1.7261472901
C -4.3606938242 0.6282230012 0.5818666346
C -3.9087116006 0.0965690372 -0.8427871306
C -2.4689577095 -0.5125533529 -0.8505941693
O -1.7276381837 0.1157456897 -1.9086631233
C -0.3373338792 -0.4055162684 -1.9284031088
C 0.50096821 0.5283192989 -0.9747698601
O 1.8912623329 0.1731910039 -0.5885882676
C 2.402512495 -1.1023377881 -0.9640701296
C 3.8811088139 -1.1869687938 -0.4338036271
C 4.5874903105 0.2036672467 -0.169609152
C 3.9053167713 1.4530226768 -0.8345095229
O 3.6150919967 2.5396136059 -0.2917943399
O -2.0528426415 1.0928478708 1.2952560478
O 3.8248773813 1.2076669834 -2.2500168899
O 1.7926921839 -2.0137146879 -1.5621865116
C 3.2604916919 2.389702192 -2.9365392441
C 3.8201963981 -1.7455360371 1.0586352408
C 5.2840038371 -2.05450632 1.5701888091
C 5.804127933 -0.6096879759 1.9188866554
C 4.5927425572 0.2649478815 1.4149111584
O 3.4157187891 -0.5406566268 1.8189649972
H 4.4589877999 -1.8414893844 -1.1091811444
H 5.6238758362 0.1645856796 -0.5538305152
H 3.0893309527 -2.5645345678 1.2065984657
H 5.2532520219 -2.7025220405 2.4602757638
H 5.8922439308 -2.5488551201 0.7957003229
H 5.9427888717 -0.4849983631 3.0048615738
H 6.7476118646 -0.3592478303 1.4083575245
H 4.5224521817 1.2917902804 1.8237703208
O -2.0185271759 -1.4167936465 -0.1142648159
C -1.0548877688 1.0056631529 2.3895907881
C -5.6066949607 -0.3060017478 0.8794209065
C -6.8213439592 0.1825089781 -0.0014556235
C -6.3793003912 -0.3166501156 -1.4277645597
C -5.0078268943 -1.027049279 -1.0925113071
O -5.2247367771 -1.5947516677 0.2558603599
H -4.6598953073 1.6909589608 0.5149232555
H -3.9514898039 0.8936266266 -1.6053929898
H -0.7053519511 -0.0380048482 2.5284222561
H -5.8102934245 -0.4432269757 1.9594303807
H -7.7535511472 -0.3052665073 0.3246963342
H -6.9578445459 1.2747781184 0.045722299
H -7.0969255944 -1.0420104256 -1.8431127039
H -6.2532012869 0.5074315874 -2.1480286571
H -4.7007495246 -1.8193460963 -1.8026878698
H -1.4730881444 1.3691771035 3.3494131722
H -0.2030397169 1.6419689131 2.0868993536
H 3.2504655188 2.1428339409 -4.0142588089
H 3.8778936749 3.2963116382 -2.7702739036
H 2.2263078146 2.6069723451 -2.600090766
H 0.5658247714 1.540896523 -1.426727527
H -0.077176488 0.6232503433 -0.0300338003
H 0.0175894728 -0.3490325207 -2.9758016742
H -0.3072313895 -1.4533193885 -1.5700541586
$end

$rem
JOBTYPE                   OPT
METHOD                    B3LYP
DFT_D                     d3_op
BASIS                     STO-3G
GEOM_OPT_MAX_CYCLES       100
GEOM_OPT_TOL_GRADIENT     300
GEOM_OPT_TOL_DISPLACEMENT 1200
GEOM_OPT_TOL_ENERGY       100
SYMMETRY                  False
THRESH                    12
SCF_CONVERGENCE           8
MAX_SUB_FILE_NUM          128
MEM_STATIC                400
MEM_TOTAL                 4000
$end
--------------------------------------------------------------

   16   -1510.2772558993      5.42E-09 Convergence criterion met
 Total energy in the final basis set = -1510.27725590
   14   -1510.2774339983      1.92E-09 Convergence criterion met
 Total energy in the final basis set = -1510.27743400
   13   -1510.2786811417      7.46E-09 Convergence criterion met
 Total energy in the final basis set = -1510.27868114
   14   -1510.2802333601      2.51E-09 Convergence criterion met
 Total energy in the final basis set = -1510.28023336
   14   -1510.2813717341      4.32E-09 Convergence criterion met
 Total energy in the final basis set = -1510.28137173
   14   -1510.2821997840      2.77E-09 Convergence criterion met
 Total energy in the final basis set = -1510.28219978
   14   -1510.2838521272      7.65E-09 Convergence criterion met
 Total energy in the final basis set = -1510.28385213
   15   -1510.2853624030      2.91E-09 Convergence criterion met
   12   -1510.2924055073      3.87E-09 Convergence criterion met
 Total energy in the final basis set = -1510.29240551
   12   -1510.2923483916      7.73E-09 Convergence criterion met
 Total energy in the final basis set = -1510.29234839
   12   -1510.2924485868      4.88E-09 Convergence criterion met
 Total energy in the final basis set = -1510.29244859
   11   -1510.2924564711      6.60E-09 Convergence criterion met
 Total energy in the final basis set = -1510.29245647
   12   -1510.2924786687      1.35E-09 Convergence criterion met
 Total energy in the final basis set = -1510.29247867
    9   -1510.2924807258      7.24E-09 Convergence criterion met
 Total energy in the final basis set = -1510.29248073

             Standard Nuclear Orientation (Angstroms)
    I     Atom           X                Y                Z
 ----------------------------------------------------------------
    1      O       3.8140642884    -2.0312506430     1.8498537044
    2      C       3.5777975509    -1.5009730891     0.7430703065
    3      C       4.5307299813    -0.5626496188    -0.0788144545
    4      C       3.8508738041     0.7896338900    -0.5575049289
    5      C       2.3597932174     0.9265187495    -0.1060131002
    6      O       1.5453755959     1.0255037624    -1.2877924270
    7      C       0.1147271803     1.0966180739    -0.9089944344
    8      C      -0.6279489248    -0.1453828835    -1.5181140902
    9      O      -2.0527697026    -0.1999986407    -1.1071415768
   10      C      -2.2021932972    -0.7916036824     0.1860000717
   11      C      -3.7302393623    -0.9875425335     0.4652000435
   12      C      -4.6040351561     0.3248687704     0.3042541824
   13      C      -3.7818950384     1.6335848341     0.0330341037
   14      O      -3.9645017378     2.4747744006    -0.8713904520
   15      O       2.3712414854    -1.6764267742    -0.0055128397
   16      O      -2.7857552520     1.7452072392     1.0589906034
   17      O      -1.2587433850    -1.1526058307     0.9256620031
   18      C      -2.0795868127     3.0424345775     0.9550555042
   19      C      -4.3912256865    -1.9057640139    -0.6562919262
   20      C      -5.8244245020    -2.3528363899    -0.1619440904
   21      C      -6.6561913338    -1.0367101356    -0.3981339806
   22      C      -5.5313473677    -0.0627774650    -0.9225879950
   23      O      -4.6745811747    -0.9475718778    -1.7463355659
   24      H      -3.8320894953    -1.4251923653     1.4735402234
   25      H      -5.2037629297     0.4936283452     1.2181679771
   26      H      -3.7418512737    -2.7262811425    -1.0186737063
   27      H      -6.2000306412    -3.1854560892    -0.7776177285
   28      H      -5.8178952032    -2.6691338673     0.8934593267
   29      H      -7.4279587886    -1.1821755552    -1.1705538780
   30      H      -7.1389909996    -0.6650077481     0.5196641761
   31      H      -5.8746206675     0.8066043302    -1.5165243859
   32      O       1.9116712521     0.9938511014     1.0597518343
   33      C       1.4039686125    -2.5198645286     0.7410712248
   34      C       5.7064223311    -0.0121963119     0.8273684271
   35      C       6.8337551069     0.5711540253    -0.1107245861
   36      C       6.1624365336     1.9102211884    -0.5945135530
   37      C       4.7811924299     1.8538949980     0.1712195988
   38      O       5.1162984442     1.1953782167     1.4527693141
   39      H       4.9117757092    -1.1322411638    -0.9466400592
   40      H       3.8873124144     0.8921817536    -1.6559024945
   41      H       0.4466159246    -1.9587186119     0.8446982435
   42      H       6.0409759384    -0.7257810044     1.6056328453
   43      H       7.7521187332     0.7653655985     0.4659345278
   44      H       7.0763528008    -0.1084924311    -0.9433799077
   45      H       6.7423253636     2.7913327515    -0.2772133331
   46      H       6.0283210588     1.9494089638    -1.6873248360
   47      H       4.3008284248     2.8348201954     0.3528287803
   48      H       1.8234359452    -2.7673619167     1.7358710965
   49      H       1.2322586941    -3.4523036606     0.1677477376
   50      H      -1.1557375222     2.9457169521     1.5546923991
   51      H      -2.7011957827     3.8638538766     1.3674922564
   52      H      -1.8273362788     3.2871255601    -0.0953593932
   53      H      -0.6443428906    -0.0755421741    -2.6242646395
   54      H      -0.0907439012    -1.0694645724    -1.2197246978
   55      H      -0.3133765326     2.0372587259    -1.3116172099
   56      H       0.0477579041     1.0888452609     0.2009637809
 ----------------------------------------------------------------

    9   -1510.2924799559      6.88E-09 Convergence criterion met
 Total energy in the final basis set = -1510.29247996
 Final energy is   -1510.29247995590
 **  OPTIMIZATION CONVERGED  **

                    Orbital Energies (a.u.)
 --------------------------------------------------------------

 Alpha MOs
 -- Occupied --
-18.942 -18.936 -18.929 -18.925 -18.891 -18.886 -18.885 -18.880
-18.873 -18.872 -10.110 -10.103 -10.097 -10.095 -10.073 -10.065
-10.065 -10.064 -10.060 -10.059 -10.055 -10.043 -10.041 -10.037
-10.036 -10.036 -10.023 -10.022 -10.019 -10.018  -1.021  -1.012
 -1.010  -1.002  -0.973  -0.968  -0.945  -0.940  -0.933  -0.930
 -0.767  -0.762  -0.730  -0.722  -0.712  -0.706  -0.695  -0.665
 -0.649  -0.617  -0.599  -0.583  -0.548  -0.543  -0.540  -0.535
 -0.516  -0.507  -0.487  -0.475  -0.468  -0.458  -0.449  -0.447
 -0.437  -0.433  -0.428  -0.416  -0.411  -0.409  -0.403  -0.399
 -0.394  -0.379  -0.378  -0.366  -0.363  -0.357  -0.356  -0.351
 -0.349  -0.336  -0.335  -0.330  -0.328  -0.326  -0.324  -0.313
 -0.308  -0.308  -0.303  -0.302  -0.295  -0.291  -0.285  -0.278
 -0.269  -0.256  -0.255  -0.244  -0.241  -0.237  -0.232  -0.190
 -0.180  -0.172  -0.165  -0.161  -0.158  -0.155  -0.150  -0.146
 -0.142

          Ground-State Mulliken Net Atomic Charges

     Atom                 Charge (a.u.)
  ----------------------------------------
      1 O                    -0.210384
      2 C                     0.214233
      3 C                    -0.078006
      4 C                    -0.078603
      5 C                     0.214223
      6 O                    -0.173556
      7 C                    -0.059450
      8 C                    -0.049907
      9 O                    -0.165925
     10 C                     0.218793
     11 C                    -0.077617
     12 C                    -0.078103
     13 C                     0.213916
     14 O                    -0.210459
     15 O                    -0.178144
     16 O                    -0.173392
     17 O                    -0.213128
     18 C                    -0.130409
     19 C                     0.026249
     20 C                    -0.144145
     21 C                    -0.143589
     22 C                     0.024570
     23 O                    -0.185504
     24 H                     0.087464
     25 H                     0.085531
     26 H                     0.082091
     27 H                     0.078668
     28 H                     0.074392
     29 H                     0.078825
     30 H                     0.073707
     31 H                     0.091238
     32 O                    -0.213587
     33 C                    -0.153186
     34 C                     0.024274
     35 C                    -0.144018
     36 C                    -0.143945
     37 C                     0.025801
     38 O                    -0.186287
     39 H                     0.084503
     40 H                     0.086364
     41 H                     0.110049
     42 H                     0.091285
     43 H                     0.078212
     44 H                     0.072896
     45 H                     0.077889
     46 H                     0.073260
     47 H                     0.082667
     48 H                     0.097618
     49 H                     0.074775
     50 H                     0.095092
     51 H                     0.085942
     52 H                     0.092014
     53 H                     0.093124
     54 H                     0.095043
     55 H                     0.081503
     56 H                     0.105135
  ----------------------------------------
  Sum of atomic charges =     0.000000

                    Cartesian Multipole Moments
 -----------------------------------------------------------------
    Charge (ESU x 10^10)
                 0.0000
    Dipole Moment (Debye)
         X      -1.1778      Y      -0.1561      Z      -1.5405
       Tot       1.9454
    Quadrupole Moments (Debye-Ang)
        XX    -142.3576     XY       7.0380     YY    -154.0934
        XZ     -19.8013     YZ       3.0000     ZZ    -170.4065

 Total job time:  98.10s(wall), 4674.00s(cpu)
        *  Thank you very much for using Q-Chem.  Have a nice day.  *
