 Q-Chem 5.0, Q-Chem, Inc., Pleasanton, CA (2017)
 Q-Chem 5.0.1 for Intel X86 EM64T Linux

User input:
--------------------------------------------------------------
$molecule
0  1
O -3.94934 -3.66094 2.70899
C -3.26408 -4.56952 2.26188
C -3.36658 -6.02376 2.66595
C -2.06769 -6.72818 3.09084
C -0.84209 -5.85339 3.23485
O 0.09591 -6.21288 2.30946
C 1.19987 -5.30388 2.24421
C 0.81536 -4.06693 1.43907
O 1.8702 -3.09423 1.50261
C 2.71026 -3.21333 2.56056
C 3.80185 -2.16975 2.56548
C 4.1636 -1.60488 1.18405
C 3.16951 -1.88446 0.07485
O 2.76393 -1.06499 -0.73664
O -2.48224 -4.31328 1.18055
O 3.25051 -3.1708 -0.39284
O 2.32718 -3.46469 3.69588
C 2.71257 -3.61374 -1.58543
C 3.4179 -0.8614 3.30109
C 4.68632 -0.15394 3.77329
C 5.25792 0.30854 2.44996
C 4.1195 -0.09696 1.50519
O 2.96005 0.00328 2.29277
H 4.67661 -2.62167 3.08679
H 5.16419 -1.93779 0.82943
H 2.72894 -1.01129 4.16037
H 4.35751 0.74038 4.3504
H 5.37486 -0.75862 4.40187
H 5.37723 1.41411 2.48731
H 6.21565 -0.17072 2.15202
H 4.14381 0.53686 0.59171
O -0.76321 -4.89121 3.99166
C -2.41739 -3.08948 0.54437
C -4.21793 -6.23838 3.9346
C -4.73137 -7.67823 3.98644
C -3.4607 -8.41973 4.3451
C -2.48196 -7.24999 4.47683
O -3.27976 -6.20611 4.98287
H -3.83843 -6.542 1.80102
H -1.82714 -7.56693 2.39692
H -2.07047 -2.30506 1.25064
H -5.07273 -5.53252 4.01767
H -5.43874 -7.75799 4.84268
H -5.23641 -8.01986 3.05733
H -3.60233 -8.89948 5.33933
H -3.1263 -9.17833 3.6048
H -1.6072 -7.54481 5.09798
H -3.41625 -2.81402 0.14381
H -1.70102 -3.15479 -0.30003
H 2.90904 -4.70014 -1.6917
H 3.1827 -3.0802 -2.4387
H 1.61548 -3.4425 -1.60075
H 0.59779 -4.34665 0.38789
H -0.08151 -3.59117 1.87567
H 2.00589 -5.79193 1.65426
H 1.58679 -5.36342 3.2711
$end

$opt
CONSTRAINT
tors           1           2           3           4    -128.182
tors           3           4           5           6    -115.473
tors           4           5           6           7    +171.012
tors           5           6           7           8     -79.012
tors           6           7           8           9    +173.546
tors           7           8           9          10     -22.229
tors           8           9          10          11    +179.578
tors           9          10          11          12     -25.728
tors          11          12          13          14    +134.368
ENDCONSTRAINT
$end

$rem
JOBTYPE                   OPT
METHOD                    B3LYP
DFT_D                     d3_op
BASIS                     STO-3G
GEOM_OPT_MAX_CYCLES       100
GEOM_OPT_TOL_GRADIENT     300
GEOM_OPT_TOL_DISPLACEMENT 1200
GEOM_OPT_TOL_ENERGY       100
SYMMETRY                  False
THRESH                    12
SCF_CONVERGENCE           8
MAX_SUB_FILE_NUM          128
MEM_STATIC                400
MEM_TOTAL                 4000
$end
--------------------------------------------------------------

   16   -1510.0914387947      3.98E-09 Convergence criterion met
 Total energy in the final basis set = -1510.09143879
   14   -1510.1692466106      8.04E-09 Convergence criterion met
 Total energy in the final basis set = -1510.16924661
   14   -1510.2140853892      8.89E-09 Convergence criterion met
 Total energy in the final basis set = -1510.21408539
   14   -1510.2413573971      7.25E-09 Convergence criterion met
 Total energy in the final basis set = -1510.24135740
   14   -1510.2554342089      7.06E-09 Convergence criterion met
 Total energy in the final basis set = -1510.25543421
   14   -1510.2638952944      3.36E-09 Convergence criterion met
 Total energy in the final basis set = -1510.26389529
   13   -1510.2687590284      9.74E-09 Convergence criterion met
 Total energy in the final basis set = -1510.26875903
   13   -1510.2717773762      6.25E-09 Convergence criterion met
   10   -1510.2779812112      9.20E-09 Convergence criterion met
 Total energy in the final basis set = -1510.27798121
   10   -1510.2779927234      7.89E-09 Convergence criterion met
 Total energy in the final basis set = -1510.27799272
   10   -1510.2780056124      9.81E-09 Convergence criterion met
 Total energy in the final basis set = -1510.27800561
   11   -1510.2780240902      8.77E-09 Convergence criterion met
 Total energy in the final basis set = -1510.27802409
   10   -1510.2780263379      8.64E-09 Convergence criterion met
 Total energy in the final basis set = -1510.27802634
    9   -1510.2780283120      4.93E-09 Convergence criterion met
 Total energy in the final basis set = -1510.27802831

             Standard Nuclear Orientation (Angstroms)
    I     Atom           X                Y                Z
 ----------------------------------------------------------------
    1      O      -3.3700977542    -0.1948768604     2.9094164091
    2      C      -3.1242699769     0.3135549493     1.7946212297
    3      C      -4.1850866108     0.6352582339     0.6759909039
    4      C      -3.8861540286     0.0763551214    -0.7802339567
    5      C      -2.4599641887    -0.5307754102    -0.9768700976
    6      O      -1.7684815427     0.2919761184    -1.9334002793
    7      C      -0.3387697276    -0.0958451424    -2.0082714377
    8      C       0.3958536724     0.5453730644    -0.7720714096
    9      O       1.8166725908     0.2055489942    -0.5084729667
   10      C       2.3305811677    -1.0092868086    -1.0502006276
   11      C       3.8412910030    -1.0969142446    -0.6235639430
   12      C       4.5271527633     0.3007105487    -0.3451238262
   13      C       3.7566659010     1.5455706778    -0.9160645120
   14      O       3.5140803043     2.6228715028    -0.3330451940
   15      O      -1.8239822147     0.7897971987     1.4183527949
   16      O       3.5282030200     1.3131937323    -2.3184481824
   17      O       1.6971915975    -1.8868519324    -1.6762575433
   18      C       2.8471389462     2.4796491402    -2.9201801474
   19      C       3.8849525813    -1.7163616852     0.8454112140
   20      C       5.3841781257    -2.0107772069     1.2519154039
   21      C       5.8947095958    -0.5686278651     1.6249900309
   22      C       4.6352620881     0.2966940612     1.2362624143
   23      O       3.5046992564    -0.5536694581     1.6800699157
   24      H       4.3864726071    -1.7091357759    -1.3624275912
   25      H       5.5360444994     0.3141939520    -0.7989863141
   26      H       3.1821157137    -2.5575724358     1.0040329973
   27      H       5.4226885830    -2.6926525467     2.1160426836
   28      H       5.9525540048    -2.4612574423     0.4223142723
   29      H       6.1003701646    -0.4832938138     2.7040872522
   30      H       6.7982010024    -0.2760740730     1.0668165962
   31      H       4.5702861145     1.3032869087     1.6935131896
   32      O      -1.9698473386    -1.5414129127    -0.4291870605
   33      C      -0.8819633095     0.5822011775     2.5483183018
   34      C      -5.5284700527    -0.1350772244     1.0139587919
   35      C      -6.6994207394     0.4375642690     0.1221612914
   36      C      -6.3823185584    -0.2289207051    -1.2684421457
   37      C      -5.0486243478    -1.0028732503    -0.9304272817
   38      O      -5.2742462449    -1.4821774566     0.4501723997
   39      H      -4.3246097882     1.7321876207     0.6463097893
   40      H      -3.9994461969     0.8840866156    -1.5244221094
   41      H      -0.6731751265    -0.4957236285     2.7046841628
   42      H      -5.7342011683    -0.2055872172     2.0997431005
   43      H      -7.6769518083     0.1141474087     0.5135387848
   44      H      -6.6836537444     1.5382828171     0.0776544731
   45      H      -7.1716486293    -0.9377436217    -1.5657633853
   46      H      -6.2454256131     0.5080536464    -2.0756786524
   47      H      -4.8054195099    -1.8498582183    -1.6008300391
   48      H      -1.2834933244     1.0050468751     3.4906381417
   49      H       0.0535646212     1.1021300422     2.2723317090
   50      H       2.7837527927     2.2728518003    -4.0045070086
   51      H       3.4130171671     3.4188869691    -2.7532983951
   52      H       1.8242112338     2.6120888781    -2.5123687114
   53      H       0.3803533460     1.6514170405    -0.8638439337
   54      H      -0.2013874379     0.2806747689     0.1272949821
   55      H       0.0453499759     0.3123621383    -2.9635758432
   56      H      -0.1950623699    -1.1956163038    -1.9888830454
 ----------------------------------------------------------------

    9   -1510.2780282159      2.83E-09 Convergence criterion met
 Total energy in the final basis set = -1510.27802822
 Final energy is   -1510.27802821590
 **  OPTIMIZATION CONVERGED  **

                    Orbital Energies (a.u.)
 --------------------------------------------------------------

 Alpha MOs
 -- Occupied --
-18.943 -18.938 -18.931 -18.924 -18.887 -18.887 -18.880 -18.879
-18.875 -18.866 -10.107 -10.101 -10.099 -10.097 -10.068 -10.063
-10.062 -10.062 -10.061 -10.060 -10.057 -10.057 -10.041 -10.038
-10.037 -10.035 -10.021 -10.020 -10.019 -10.019  -1.017  -1.014
 -1.008  -1.002  -0.970  -0.970  -0.944  -0.938  -0.935  -0.931
 -0.764  -0.762  -0.729  -0.723  -0.710  -0.704  -0.694  -0.662
 -0.661  -0.621  -0.598  -0.587  -0.546  -0.544  -0.538  -0.537
 -0.512  -0.510  -0.486  -0.475  -0.463  -0.461  -0.451  -0.442
 -0.437  -0.431  -0.429  -0.414  -0.411  -0.407  -0.407  -0.395
 -0.389  -0.379  -0.372  -0.366  -0.362  -0.361  -0.353  -0.349
 -0.344  -0.339  -0.337  -0.332  -0.332  -0.327  -0.324  -0.310
 -0.309  -0.305  -0.305  -0.303  -0.300  -0.293  -0.285  -0.274
 -0.273  -0.261  -0.254  -0.251  -0.236  -0.234  -0.233  -0.188
 -0.178  -0.175  -0.169  -0.158  -0.153  -0.150  -0.146  -0.144
 -0.143

          Ground-State Mulliken Net Atomic Charges

     Atom                 Charge (a.u.)
  ----------------------------------------
      1 O                    -0.207170
      2 C                     0.212591
      3 C                    -0.077628
      4 C                    -0.080973
      5 C                     0.208968
      6 O                    -0.173361
      7 C                    -0.061128
      8 C                    -0.057009
      9 O                    -0.167106
     10 C                     0.219983
     11 C                    -0.076595
     12 C                    -0.078936
     13 C                     0.219813
     14 O                    -0.221391
     15 O                    -0.174416
     16 O                    -0.179053
     17 O                    -0.211423
     18 C                    -0.129199
     19 C                     0.024346
     20 C                    -0.144598
     21 C                    -0.142742
     22 C                     0.024094
     23 O                    -0.190454
     24 H                     0.087221
     25 H                     0.082576
     26 H                     0.083935
     27 H                     0.078532
     28 H                     0.074102
     29 H                     0.077979
     30 H                     0.073320
     31 H                     0.090157
     32 O                    -0.210126
     33 C                    -0.130980
     34 C                     0.024438
     35 C                    -0.144953
     36 C                    -0.143087
     37 C                     0.025929
     38 O                    -0.186516
     39 H                     0.084966
     40 H                     0.085876
     41 H                     0.094073
     42 H                     0.091722
     43 H                     0.078707
     44 H                     0.072895
     45 H                     0.078407
     46 H                     0.073511
     47 H                     0.084688
     48 H                     0.091952
     49 H                     0.096186
     50 H                     0.088108
     51 H                     0.088810
     52 H                     0.082625
     53 H                     0.086210
     54 H                     0.100305
     55 H                     0.084902
     56 H                     0.116921
  ----------------------------------------
  Sum of atomic charges =     0.000000

                    Cartesian Multipole Moments
 -----------------------------------------------------------------
    Charge (ESU x 10^10)
                -0.0000
    Dipole Moment (Debye)
         X       0.9837      Y       2.1321      Z      -1.7155
       Tot       2.9080
    Quadrupole Moments (Debye-Ang)
        XX    -140.0001     XY     -13.3013     YY    -165.1285
        XZ       5.6967     YZ      -1.7555     ZZ    -159.7057

 Total job time:  73.51s(wall), 3495.70s(cpu)
        *  Thank you very much for using Q-Chem.  Have a nice day.  *
