 Q-Chem 5.0, Q-Chem, Inc., Pleasanton, CA (2017)
 Q-Chem 5.0.1 for Intel X86 EM64T Linux

User input:
--------------------------------------------------------------
$molecule
0  1
O -3.3700977542 -0.1948768604 2.9094164091
C -3.1242699769 0.3135549493 1.7946212297
C -4.1850866108 0.6352582339 0.6759909039
C -3.8861540286 0.0763551214 -0.7802339567
C -2.4599641887 -0.5307754102 -0.9768700976
O -1.7684815427 0.2919761184 -1.9334002793
C -0.3387697276 -0.0958451424 -2.0082714377
C 0.3958536724 0.5453730644 -0.7720714096
O 1.8166725908 0.2055489942 -0.5084729667
C 2.3305811677 -1.0092868086 -1.0502006276
C 3.841291003 -1.0969142446 -0.623563943
C 4.5271527633 0.3007105487 -0.3451238262
C 3.756665901 1.5455706778 -0.916064512
O 3.5140803043 2.6228715028 -0.333045194
O -1.8239822147 0.7897971987 1.4183527949
O 3.52820302 1.3131937323 -2.3184481824
O 1.6971915975 -1.8868519324 -1.6762575433
C 2.8471389462 2.4796491402 -2.9201801474
C 3.8849525813 -1.7163616852 0.845411214
C 5.3841781257 -2.0107772069 1.2519154039
C 5.8947095958 -0.5686278651 1.6249900309
C 4.6352620881 0.2966940612 1.2362624143
O 3.5046992564 -0.5536694581 1.6800699157
H 4.3864726071 -1.7091357759 -1.3624275912
H 5.5360444994 0.314193952 -0.7989863141
H 3.1821157137 -2.5575724358 1.0040329973
H 5.422688583 -2.6926525467 2.1160426836
H 5.9525540048 -2.4612574423 0.4223142723
H 6.1003701646 -0.4832938138 2.7040872522
H 6.7982010024 -0.276074073 1.0668165962
H 4.5702861145 1.3032869087 1.6935131896
O -1.9698473386 -1.5414129127 -0.4291870605
C -0.8819633095 0.5822011775 2.5483183018
C -5.5284700527 -0.1350772244 1.0139587919
C -6.6994207394 0.437564269 0.1221612914
C -6.3823185584 -0.2289207051 -1.2684421457
C -5.0486243478 -1.0028732503 -0.9304272817
O -5.2742462449 -1.4821774566 0.4501723997
H -4.3246097882 1.7321876207 0.6463097893
H -3.9994461969 0.8840866156 -1.5244221094
H -0.6731751265 -0.4957236285 2.7046841628
H -5.7342011683 -0.2055872172 2.0997431005
H -7.6769518083 0.1141474087 0.5135387848
H -6.6836537444 1.5382828171 0.0776544731
H -7.1716486293 -0.9377436217 -1.5657633853
H -6.2454256131 0.5080536464 -2.0756786524
H -4.8054195099 -1.8498582183 -1.6008300391
H -1.2834933244 1.0050468751 3.4906381417
H 0.0535646212 1.1021300422 2.272331709
H 2.7837527927 2.2728518003 -4.0045070086
H 3.4130171671 3.4188869691 -2.7532983951
H 1.8242112338 2.6120888781 -2.5123687114
H 0.380353346 1.6514170405 -0.8638439337
H -0.2013874379 0.2806747689 0.1272949821
H 0.0453499759 0.3123621383 -2.9635758432
H -0.1950623699 -1.1956163038 -1.9888830454
$end

$rem
JOBTYPE                   OPT
METHOD                    B3LYP
DFT_D                     d3_op
BASIS                     STO-3G
GEOM_OPT_MAX_CYCLES       100
GEOM_OPT_TOL_GRADIENT     300
GEOM_OPT_TOL_DISPLACEMENT 1200
GEOM_OPT_TOL_ENERGY       100
SYMMETRY                  False
THRESH                    12
SCF_CONVERGENCE           8
MAX_SUB_FILE_NUM          128
MEM_STATIC                400
MEM_TOTAL                 4000
$end
--------------------------------------------------------------

   16   -1510.2780573474      5.66E-09 Convergence criterion met
 Total energy in the final basis set = -1510.27805735
   14   -1510.2795545653      5.83E-09 Convergence criterion met
 Total energy in the final basis set = -1510.27955457
   14   -1510.2811346963      8.81E-09 Convergence criterion met
 Total energy in the final basis set = -1510.28113470
   14   -1510.2830660892      8.40E-09 Convergence criterion met
 Total energy in the final basis set = -1510.28306609
   14   -1510.2841524501      8.63E-09 Convergence criterion met
 Total energy in the final basis set = -1510.28415245
   15   -1510.2859655516      2.66E-09 Convergence criterion met
 Total energy in the final basis set = -1510.28596555
   14   -1510.2869657067      8.49E-09 Convergence criterion met
 Total energy in the final basis set = -1510.28696571
   14   -1510.2866999315      4.17E-09 Convergence criterion met
   11   -1510.2924248859      6.30E-09 Convergence criterion met
 Total energy in the final basis set = -1510.29242489
   11   -1510.2924416350      7.90E-09 Convergence criterion met
 Total energy in the final basis set = -1510.29244163
   11   -1510.2924482268      3.43E-09 Convergence criterion met
 Total energy in the final basis set = -1510.29244823
   10   -1510.2924508699      9.89E-09 Convergence criterion met
 Total energy in the final basis set = -1510.29245087
   11   -1510.2924528918      1.56E-09 Convergence criterion met
 Total energy in the final basis set = -1510.29245289
   10   -1510.2924550647      9.73E-09 Convergence criterion met
 Total energy in the final basis set = -1510.29245506

             Standard Nuclear Orientation (Angstroms)
    I     Atom           X                Y                Z
 ----------------------------------------------------------------
    1      O       3.8124965101    -2.0918011438     1.7874578997
    2      C       3.5673428770    -1.5519464777     0.6872419262
    3      C       4.5208115303    -0.6211464761    -0.1425672199
    4      C       3.8521137550     0.7421288625    -0.6050726135
    5      C       2.3696823506     0.8966090754    -0.1316713858
    6      O       1.5403501928     1.0130368461    -1.3013674295
    7      C       0.1158529438     1.0979142942    -0.9028107978
    8      C      -0.6488151158    -0.1295728744    -1.5136743065
    9      O      -2.0701493587    -0.1673217566    -1.0896451824
   10      C      -2.2177261636    -0.7751020875     0.1961855569
   11      C      -3.7468467733    -0.9506684973     0.4838470337
   12      C      -4.6001062929     0.3772438477     0.3420902051
   13      C      -3.7548956146     1.6756654989     0.0928142094
   14      O      -3.9218391043     2.5373081287    -0.7951613969
   15      O       2.3475821995    -1.7067355638    -0.0444685122
   16      O      -2.7555741845     1.7483326350     1.1192174596
   17      O      -1.2739997634    -1.1613619582     0.9225563037
   18      C      -2.0247056792     3.0335844940     1.0398607672
   19      C      -4.4274469084    -1.8446393649    -0.6451951611
   20      C      -5.8676187041    -2.2704240230    -0.1521085166
   21      C      -6.6764380081    -0.9379775820    -0.3754794794
   22      C      -5.5343328178     0.0216723095    -0.8893708716
   23      O      -4.6950643553    -0.8694478657    -1.7242611211
   24      H      -3.8497944021    -1.3985745321     1.4875406961
   25      H      -5.1971950590     0.5421438563     1.2584780917
   26      H      -3.7939913863    -2.6729794208    -1.0177060500
   27      H      -6.2591667695    -3.0911486261    -0.7737787464
   28      H      -5.8645627043    -2.5953806756     0.9006808222
   29      H      -7.4497814717    -1.0622346607    -1.1500889162
   30      H      -7.1540133208    -0.5674157775     0.5455351271
   31      H      -5.8623737534     0.9040314266    -1.4727137288
   32      O       1.9386969524     0.9631557489     1.0406027009
   33      C       1.3803806082    -2.5427697658     0.7105359138
   34      C       5.7159864126    -0.0903617729     0.7499666331
   35      C       6.8375707325     0.4823248123    -0.2016857392
   36      C       6.1773528512     1.8323841875    -0.6698286246
   37      C       4.8064785482     1.7906209946     0.1151489051
   38      O       5.1508210387     1.1218904688     1.3890503461
   39      H       4.8832813789    -1.1906271381    -1.0184002666
   40      H       3.8742184006     0.8493892362    -1.7034140630
   41      H       0.4278766054    -1.9747501690     0.8209401425
   42      H       6.0519551565    -0.8120361973     1.5201282820
   43      H       7.7668652559     0.6613404717     0.3622653149
   44      H       7.0585799548    -0.1970041411    -1.0405942219
   45      H       6.7734843493     2.7042915474    -0.3572111133
   46      H       6.0281380662     1.8781543905    -1.7604271401
   47      H       4.3417294199     2.7769187840     0.3079099654
   48      H       1.8058564468    -2.7923552267     1.7022295354
   49      H       1.1974369429    -3.4749229466     0.1401126894
   50      H      -1.1037514780     2.9082949096     1.6387419754
   51      H      -2.6311825181     3.8590602641     1.4664897943
   52      H      -1.7659686432     3.2926759347    -0.0054809909
   53      H      -0.6743335163    -0.0513826018    -2.6191160418
   54      H      -0.1214998488    -1.0628958044    -1.2267191293
   55      H      -0.3065978588     2.0471949082    -1.2910977908
   56      H       0.0634065670     1.0808605839     0.2078077818
 ----------------------------------------------------------------

    9   -1510.2924558162      6.81E-09 Convergence criterion met
 Total energy in the final basis set = -1510.29245582
 Final energy is   -1510.29245581622
 **  OPTIMIZATION CONVERGED  **

                    Orbital Energies (a.u.)
 --------------------------------------------------------------

 Alpha MOs
 -- Occupied --
-18.942 -18.936 -18.929 -18.925 -18.891 -18.886 -18.885 -18.880
-18.873 -18.872 -10.110 -10.103 -10.097 -10.095 -10.073 -10.065
-10.065 -10.064 -10.060 -10.059 -10.055 -10.043 -10.041 -10.037
-10.036 -10.036 -10.023 -10.022 -10.019 -10.018  -1.021  -1.012
 -1.010  -1.002  -0.973  -0.968  -0.945  -0.940  -0.934  -0.930
 -0.768  -0.762  -0.730  -0.722  -0.712  -0.706  -0.695  -0.665
 -0.649  -0.617  -0.599  -0.583  -0.548  -0.543  -0.540  -0.535
 -0.516  -0.507  -0.488  -0.475  -0.468  -0.458  -0.449  -0.447
 -0.437  -0.433  -0.428  -0.416  -0.411  -0.409  -0.403  -0.399
 -0.395  -0.379  -0.378  -0.366  -0.363  -0.357  -0.356  -0.351
 -0.349  -0.336  -0.335  -0.330  -0.328  -0.326  -0.324  -0.313
 -0.308  -0.308  -0.303  -0.302  -0.295  -0.291  -0.285  -0.278
 -0.269  -0.256  -0.255  -0.244  -0.241  -0.237  -0.232  -0.190
 -0.180  -0.172  -0.165  -0.161  -0.158  -0.155  -0.150  -0.146
 -0.142

          Ground-State Mulliken Net Atomic Charges

     Atom                 Charge (a.u.)
  ----------------------------------------
      1 O                    -0.210398
      2 C                     0.214167
      3 C                    -0.078008
      4 C                    -0.078606
      5 C                     0.214261
      6 O                    -0.173559
      7 C                    -0.059370
      8 C                    -0.049893
      9 O                    -0.165963
     10 C                     0.218864
     11 C                    -0.077524
     12 C                    -0.078078
     13 C                     0.213922
     14 O                    -0.210463
     15 O                    -0.178168
     16 O                    -0.173461
     17 O                    -0.213200
     18 C                    -0.130448
     19 C                     0.026195
     20 C                    -0.144169
     21 C                    -0.143529
     22 C                     0.024592
     23 O                    -0.185447
     24 H                     0.087471
     25 H                     0.085518
     26 H                     0.082082
     27 H                     0.078671
     28 H                     0.074387
     29 H                     0.078810
     30 H                     0.073692
     31 H                     0.091191
     32 O                    -0.213694
     33 C                    -0.153104
     34 C                     0.024268
     35 C                    -0.144002
     36 C                    -0.143949
     37 C                     0.025786
     38 O                    -0.186273
     39 H                     0.084492
     40 H                     0.086395
     41 H                     0.110067
     42 H                     0.091275
     43 H                     0.078200
     44 H                     0.072873
     45 H                     0.077903
     46 H                     0.073269
     47 H                     0.082669
     48 H                     0.097588
     49 H                     0.074787
     50 H                     0.095221
     51 H                     0.085922
     52 H                     0.091965
     53 H                     0.093165
     54 H                     0.095087
     55 H                     0.081591
     56 H                     0.104962
  ----------------------------------------
  Sum of atomic charges =     0.000000

                    Cartesian Multipole Moments
 -----------------------------------------------------------------
    Charge (ESU x 10^10)
                 0.0000
    Dipole Moment (Debye)
         X      -1.2235      Y      -0.1454      Z      -1.5354
       Tot       1.9687
    Quadrupole Moments (Debye-Ang)
        XX    -142.4771     XY       7.0688     YY    -154.4800
        XZ     -19.9002     YZ       3.3717     ZZ    -169.8267

 Total job time:  96.77s(wall), 4612.63s(cpu)
        *  Thank you very much for using Q-Chem.  Have a nice day.  *
