 Q-Chem 5.0, Q-Chem, Inc., Pleasanton, CA (2017)
 Q-Chem 5.0.1 for Intel X86 EM64T Linux

User input:
--------------------------------------------------------------
$molecule
0  1
O -3.4178561488 0.3805899425 2.8278213905
C -3.3284707611 0.7632352783 1.641996168
C -4.410000391 0.5905812598 0.5150357974
C -3.8992067903 -0.0628860972 -0.8387129017
C -2.3714979926 -0.407461506 -0.8558582512
O -1.7559953902 0.4049794424 -1.865984477
C -0.2978139618 0.1504322237 -1.9552197253
C 0.4530870804 0.6675610593 -0.6675062735
O 1.8466784299 0.2099157076 -0.4214964634
C 2.307932771 -0.971440056 -1.0685170174
C 3.7987289197 -1.1825014439 -0.622651084
C 4.5915606298 0.1468118127 -0.2892351636
C 3.8767990749 1.4740802347 -0.7343724434
O 3.6393457297 2.4860103354 -0.0425389329
O -2.2165583792 1.5056633769 1.125172745
O 3.6538950155 1.3914296639 -2.153753731
O 1.6502289736 -1.7570660876 -1.7887018786
C 3.0116645962 2.6318044095 -2.6397813186
C 3.79873246 -1.8722150993 0.8156021662
C 5.2694010183 -2.3352445171 1.1658807899
C 5.9335513652 -0.9685187026 1.5775885416
C 4.752979208 0.0346416327 1.2834530097
O 3.5561580693 -0.7245511134 1.7170844092
H 4.3047878456 -1.8015892799 -1.3835267916
H 5.5789357592 0.125246757 -0.7873945413
H 3.0176582442 -2.6461308462 0.949037848
H 5.2600577978 -3.0522618297 2.0020107445
H 5.7670164976 -2.8056297195 0.3025514207
H 6.1902711903 -0.9546204278 2.6489480426
H 6.8389024674 -0.7385136988 0.9934223615
H 4.8016772408 1.0124229463 1.8012538888
O -1.7682008949 -1.2491679776 -0.1556828525
C -1.2409138655 1.7596071932 2.2134544602
C -5.5048035835 -0.4621969017 0.9683043628
C -6.7761391795 -0.3041441763 0.0472172737
C -6.2650069192 -0.960210785 -1.2895360267
C -4.79644818 -1.3762073406 -0.8831268397
O -4.922775121 -1.7563512136 0.5409580903
H -4.8528873188 1.5846143268 0.316836403
H -4.1024109048 0.6014159959 -1.6967856796
H -0.7986543708 0.8160741748 2.5933566299
H -5.6910483635 -0.4643550499 2.0599510056
H -7.6283672925 -0.8597845317 0.4695795912
H -7.0700769074 0.7499819555 -0.080001526
H -6.8568338196 -1.8510934336 -1.5538780468
H -6.2798035481 -0.2616066018 -2.1412744726
H -4.3618799732 -2.2089855166 -1.4693803857
H -1.7128649102 2.293436511 3.0629671643
H -0.4464163132 2.3897753066 1.7743941381
H 2.9039682838 2.5130147882 -3.7338007038
H 3.6290440989 3.5276144983 -2.4235405826
H 2.0106969063 2.7810647323 -2.1864999393
H 0.5045965105 1.7758809847 -0.6608399479
H -0.1483650846 0.3434901126 0.2075319815
H 0.0424923203 0.6987253218 -2.855224585
H -0.0537306547 -0.9283445629 -2.0719208378
$end

$rem
JOBTYPE                   OPT
METHOD                    B3LYP
DFT_D                     d3_op
BASIS                     STO-3G
GEOM_OPT_MAX_CYCLES       100
GEOM_OPT_TOL_GRADIENT     300
GEOM_OPT_TOL_DISPLACEMENT 1200
GEOM_OPT_TOL_ENERGY       100
SYMMETRY                  False
THRESH                    12
SCF_CONVERGENCE           8
MAX_SUB_FILE_NUM          128
MEM_STATIC                400
MEM_TOTAL                 4000
$end
--------------------------------------------------------------

   16   -1510.2783103850      5.42E-09 Convergence criterion met
 Total energy in the final basis set = -1510.27831039
   15   -1510.2799948228      4.55E-09 Convergence criterion met
 Total energy in the final basis set = -1510.27999482
   14   -1510.2810895243      7.84E-09 Convergence criterion met
 Total energy in the final basis set = -1510.28108952
   14   -1510.2827959374      3.99E-09 Convergence criterion met
 Total energy in the final basis set = -1510.28279594
   13   -1510.2839660102      6.26E-09 Convergence criterion met
 Total energy in the final basis set = -1510.28396601
   13   -1510.2847501243      6.17E-09 Convergence criterion met
 Total energy in the final basis set = -1510.28475012
   14   -1510.2854165724      5.29E-09 Convergence criterion met
 Total energy in the final basis set = -1510.28541657
   14   -1510.2861870795      5.09E-09 Convergence criterion met
   12   -1510.2921293889      9.42E-09 Convergence criterion met
 Total energy in the final basis set = -1510.29212939
   12   -1510.2923481991      3.85E-09 Convergence criterion met
 Total energy in the final basis set = -1510.29234820
   11   -1510.2923602610      8.89E-09 Convergence criterion met
 Total energy in the final basis set = -1510.29236026
   12   -1510.2923857327      1.87E-09 Convergence criterion met
 Total energy in the final basis set = -1510.29238573
   11   -1510.2923909441      6.72E-09 Convergence criterion met
 Total energy in the final basis set = -1510.29239094
   11   -1510.2923935786      4.42E-09 Convergence criterion met
 Total energy in the final basis set = -1510.29239358

             Standard Nuclear Orientation (Angstroms)
    I     Atom           X                Y                Z
 ----------------------------------------------------------------
    1      O       3.8586652532    -2.5125449514     1.0865573692
    2      C       3.5758939247    -1.6663240269     0.2109449317
    3      C       4.5188101255    -0.5404702379    -0.3438297173
    4      C       3.8616540200     0.9042294001    -0.3787478248
    5      C       2.3797791106     0.9322489923     0.1221372969
    6      O       1.5484187400     1.3320143783    -0.9826537854
    7      C       0.1251103694     1.3238211550    -0.5727457569
    8      C      -0.6385180809     0.2519655603    -1.4306651893
    9      O      -2.0493389890     0.0827506779    -1.0018447577
   10      C      -2.1487465511    -0.7248467396     0.1736344841
   11      C      -3.6629635128    -1.0097511654     0.4489075668
   12      C      -4.5916559829     0.2734859191     0.4230444483
   13      C      -3.8232651252     1.6375136295     0.3148680241
   14      O      -4.0356896542     2.5726405058    -0.4845648009
   15      O       2.3185312139    -1.5825573178    -0.4655560136
   16      O      -2.8412245216     1.6679881159     1.3607316540
   17      O      -1.1761548123    -1.1816872506     0.8169031963
   18      C      -2.1869150824     2.9947769070     1.4163265840
   19      C      -4.2928182081    -1.8361363297    -0.7583076913
   20      C      -5.7120186321    -2.3752655382    -0.3178155463
   21      C      -6.5887887910    -1.0732376021    -0.4397860923
   22      C      -5.4932149928    -0.0149269958    -0.8499697432
   23      O      -4.6023227759    -0.7841333965    -1.7506337521
   24      H      -3.7354981088    -1.5523857193     1.4074275360
   25      H      -5.2058887825     0.3138395738     1.3419502086
   26      H      -3.6163699257    -2.5967499435    -1.1944269832
   27      H      -6.0557605240    -3.1622832324    -1.0077438621
   28      H      -5.6979734172    -2.7844303974     0.7051859077
   29      H      -7.3452755172    -1.1707628532    -1.2346901218
   30      H      -7.0959106468    -0.8089048569     0.5017490185
   31      H      -5.8604647089     0.8993330059    -1.3557032621
   32      O       1.9525677343     0.7181184149     1.2776730887
   33      C       1.3618376171    -2.5807280369     0.0767100583
   34      C       5.7320722668    -0.3022196331     0.6453003145
   35      C       6.8447063499     0.5253284220    -0.1080129143
   36      C       6.1921358287     1.9578338102    -0.1325603782
   37      C       4.8278726714     1.6848794084     0.6152113590
   38      O       5.1805272223     0.6632375796     1.6253091852
   39      H       4.8608466993    -0.8360140898    -1.3530561730
   40      H       3.8846736185     1.3291923750    -1.3974062748
   41      H       0.4458729676    -2.0425616280     0.4144238750
   42      H       6.0720535302    -1.2227184547     1.1586757643
   43      H       7.7846841713     0.5198753537     0.4661358006
   44      H       7.0441275238     0.1308570037    -1.1171405580
   45      H       6.7980238701     2.6874044483     0.4280187172
   46      H       6.0373458649     2.3388140545    -1.1547453976
   47      H       4.3695495919     2.5677221653     1.1017535860
   48      H       1.8354244273    -3.1216344978     0.9192183318
   49      H       1.1034686203    -3.2973845097    -0.7277055362
   50      H      -1.2380984022     2.8568228836     1.9668304928
   51      H      -2.8230688329     3.7241807976     1.9591960536
   52      H      -1.9861926784     3.3921149470     0.4019448478
   53      H      -0.6945307961     0.5774995290    -2.4886229334
   54      H      -0.0873245599    -0.7097728359    -1.3771620002
   55      H      -0.2991970354     2.3328459615    -0.7479791710
   56      H       0.0727731782     1.0658475440     0.5078418323
 ----------------------------------------------------------------

   10   -1510.2923934778      9.13E-09 Convergence criterion met
 Total energy in the final basis set = -1510.29239348
 Final energy is   -1510.29239347778
 **  OPTIMIZATION CONVERGED  **

                    Orbital Energies (a.u.)
 --------------------------------------------------------------

 Alpha MOs
 -- Occupied --
-18.943 -18.935 -18.928 -18.927 -18.891 -18.886 -18.885 -18.879
-18.873 -18.871 -10.110 -10.103 -10.097 -10.096 -10.073 -10.065
-10.065 -10.063 -10.060 -10.059 -10.055 -10.043 -10.041 -10.037
-10.036 -10.035 -10.024 -10.022 -10.019 -10.018  -1.021  -1.012
 -1.010  -1.002  -0.973  -0.968  -0.945  -0.939  -0.933  -0.930
 -0.768  -0.761  -0.730  -0.722  -0.712  -0.706  -0.695  -0.665
 -0.650  -0.617  -0.599  -0.583  -0.549  -0.542  -0.541  -0.535
 -0.516  -0.507  -0.488  -0.475  -0.468  -0.458  -0.449  -0.447
 -0.437  -0.433  -0.428  -0.416  -0.411  -0.409  -0.403  -0.399
 -0.394  -0.379  -0.378  -0.366  -0.364  -0.357  -0.356  -0.351
 -0.349  -0.336  -0.335  -0.330  -0.328  -0.326  -0.324  -0.313
 -0.308  -0.308  -0.303  -0.302  -0.295  -0.291  -0.285  -0.278
 -0.269  -0.256  -0.255  -0.243  -0.241  -0.237  -0.232  -0.189
 -0.180  -0.172  -0.165  -0.161  -0.158  -0.154  -0.150  -0.147
 -0.142

          Ground-State Mulliken Net Atomic Charges

     Atom                 Charge (a.u.)
  ----------------------------------------
      1 O                    -0.210625
      2 C                     0.214298
      3 C                    -0.077922
      4 C                    -0.078920
      5 C                     0.214436
      6 O                    -0.173990
      7 C                    -0.059799
      8 C                    -0.049904
      9 O                    -0.165654
     10 C                     0.218979
     11 C                    -0.077516
     12 C                    -0.078143
     13 C                     0.214878
     14 O                    -0.211131
     15 O                    -0.177229
     16 O                    -0.174063
     17 O                    -0.212887
     18 C                    -0.130695
     19 C                     0.025981
     20 C                    -0.144165
     21 C                    -0.143405
     22 C                     0.024631
     23 O                    -0.185621
     24 H                     0.087778
     25 H                     0.085388
     26 H                     0.081962
     27 H                     0.078745
     28 H                     0.074505
     29 H                     0.078842
     30 H                     0.073746
     31 H                     0.091278
     32 O                    -0.213107
     33 C                    -0.153318
     34 C                     0.024200
     35 C                    -0.144256
     36 C                    -0.143905
     37 C                     0.025866
     38 O                    -0.186436
     39 H                     0.084505
     40 H                     0.086112
     41 H                     0.110117
     42 H                     0.091454
     43 H                     0.078241
     44 H                     0.072876
     45 H                     0.077850
     46 H                     0.073186
     47 H                     0.082971
     48 H                     0.098086
     49 H                     0.074782
     50 H                     0.093521
     51 H                     0.085566
     52 H                     0.092653
     53 H                     0.093276
     54 H                     0.095016
     55 H                     0.081080
     56 H                     0.105887
  ----------------------------------------
  Sum of atomic charges =     0.000000

                    Cartesian Multipole Moments
 -----------------------------------------------------------------
    Charge (ESU x 10^10)
                 0.0000
    Dipole Moment (Debye)
         X      -1.2631      Y       0.4651      Z      -1.3965
       Tot       1.9396
    Quadrupole Moments (Debye-Ang)
        XX    -143.4569     XY      11.4260     YY    -155.4059
        XZ     -18.5936     YZ       5.8056     ZZ    -168.1955

 Total job time:  94.57s(wall), 4508.55s(cpu)
        *  Thank you very much for using Q-Chem.  Have a nice day.  *
