 Q-Chem 5.0, Q-Chem, Inc., Pleasanton, CA (2017)
 Q-Chem 5.0.1 for Intel X86 EM64T Linux

User input:
--------------------------------------------------------------
$molecule
0  1
O -3.94934 -3.66094 2.70899
C -3.26408 -4.56952 2.26188
C -3.36658 -6.02376 2.66595
C -2.06769 -6.72818 3.09084
C -0.84209 -5.85339 3.23485
O 0.10045 -6.22049 2.31709
C 1.2934 -5.43249 2.38901
C 1.00824 -4.0045 1.9355
O 2.08711 -3.1416 2.3283
C 2.87194 -3.60864 3.33082
C 3.99239 -2.66214 3.69053
C 4.50264 -1.793 2.53186
C 3.60982 -1.7318 1.30882
O 3.2253 -0.70798 0.76246
O -2.43161 -4.30368 1.22092
O 3.65357 -2.85724 0.53279
O 2.40992 -4.12186 4.34285
C 3.16563 -2.94123 -0.75607
C 3.58419 -1.55223 4.69371
C 4.824 -1.06189 5.43864
C 5.54582 -0.32807 4.32811
C 4.49175 -0.41224 3.21672
O 3.26428 -0.43724 3.90019
H 4.79705 -3.27417 4.1594
H 5.51532 -2.09701 2.18624
H 2.80658 -1.86599 5.4234
H 4.47124 -0.31586 6.18695
H 5.4215 -1.84158 5.95817
H 5.71087 0.72328 4.65248
H 6.5057 -0.78454 4.00233
H 4.63228 0.42336 2.49639
O -0.72999 -4.95984 4.06755
C -2.26675 -3.05611 0.65585
C -4.22134 -6.24567 3.93061
C -4.73446 -7.68589 3.97205
C -3.46407 -8.43014 4.32735
C -2.48559 -7.26147 4.47124
O -3.28562 -6.22103 4.98186
H -3.83109 -6.5405 1.79611
H -1.82849 -7.55884 2.38663
H -1.89293 -2.33698 1.41563
H -5.07587 -5.53976 4.01566
H -5.44263 -7.77075 4.82716
H -5.23885 -8.02188 3.04057
H -3.60814 -8.9191 5.31673
H -3.12737 -9.18166 3.58092
H -1.61227 -7.56041 5.09231
H -3.2311 -2.69375 0.24021
H -1.52578 -3.1245 -0.16681
H 3.31236 -3.97367 -1.13397
H 3.71281 -2.23664 -1.41787
H 2.08185 -2.7006 -0.77573
H 0.86618 -3.99152 0.8355
H 0.09641 -3.56282 2.3758
H 2.04353 -5.83986 1.67719
H 1.67671 -5.78847 3.35227
$end

$opt
CONSTRAINT
tors           1           2           3           4    -128.182
tors           3           4           5           6    -115.994
tors           4           5           6           7    +179.844
tors           5           6           7           8     -68.491
tors           6           7           8           9    +165.131
tors           7           8           9          10     -20.126
tors           8           9          10          11    +179.578
tors           9          10          11          12     -29.816
tors          11          12          13          14    +128.242
ENDCONSTRAINT
$end

$rem
JOBTYPE                   OPT
METHOD                    B3LYP
DFT_D                     d3_op
BASIS                     STO-3G
GEOM_OPT_MAX_CYCLES       100
GEOM_OPT_TOL_GRADIENT     300
GEOM_OPT_TOL_DISPLACEMENT 1200
GEOM_OPT_TOL_ENERGY       100
SYMMETRY                  False
THRESH                    12
SCF_CONVERGENCE           8
MAX_SUB_FILE_NUM          128
MEM_STATIC                400
MEM_TOTAL                 4000
$end
--------------------------------------------------------------

   16   -1510.0901532832      4.41E-09 Convergence criterion met
 Total energy in the final basis set = -1510.09015328
   14   -1510.1691109991      7.29E-09 Convergence criterion met
 Total energy in the final basis set = -1510.16911100
   14   -1510.2151207891      1.96E-09 Convergence criterion met
 Total energy in the final basis set = -1510.21512079
   14   -1510.2437422114      3.03E-09 Convergence criterion met
 Total energy in the final basis set = -1510.24374221
   14   -1510.2586877289      5.75E-09 Convergence criterion met
 Total energy in the final basis set = -1510.25868773
   14   -1510.2662788243      5.10E-09 Convergence criterion met
 Total energy in the final basis set = -1510.26627882
   13   -1510.2707783347      9.29E-09 Convergence criterion met
 Total energy in the final basis set = -1510.27077833
   13   -1510.2737808280      3.76E-09 Convergence criterion met
   12   -1510.2780504042      3.01E-09 Convergence criterion met
 Total energy in the final basis set = -1510.27805040
   11   -1510.2781484619      5.96E-09 Convergence criterion met
 Total energy in the final basis set = -1510.27814846
   11   -1510.2782264817      6.44E-09 Convergence criterion met
 Total energy in the final basis set = -1510.27822648
   10   -1510.2782624409      8.91E-09 Convergence criterion met
 Total energy in the final basis set = -1510.27826244
    9   -1510.2782728558      9.04E-09 Convergence criterion met
 Total energy in the final basis set = -1510.27827286
    9   -1510.2782750712      3.88E-09 Convergence criterion met
 Total energy in the final basis set = -1510.27827507

             Standard Nuclear Orientation (Angstroms)
    I     Atom           X                Y                Z
 ----------------------------------------------------------------
    1      O      -3.4178561488     0.3805899425     2.8278213905
    2      C      -3.3284707611     0.7632352783     1.6419961680
    3      C      -4.4100003910     0.5905812598     0.5150357974
    4      C      -3.8992067903    -0.0628860972    -0.8387129017
    5      C      -2.3714979926    -0.4074615060    -0.8558582512
    6      O      -1.7559953902     0.4049794424    -1.8659844770
    7      C      -0.2978139618     0.1504322237    -1.9552197253
    8      C       0.4530870804     0.6675610593    -0.6675062735
    9      O       1.8466784299     0.2099157076    -0.4214964634
   10      C       2.3079327710    -0.9714400560    -1.0685170174
   11      C       3.7987289197    -1.1825014439    -0.6226510840
   12      C       4.5915606298     0.1468118127    -0.2892351636
   13      C       3.8767990749     1.4740802347    -0.7343724434
   14      O       3.6393457297     2.4860103354    -0.0425389329
   15      O      -2.2165583792     1.5056633769     1.1251727450
   16      O       3.6538950155     1.3914296639    -2.1537537310
   17      O       1.6502289736    -1.7570660876    -1.7887018786
   18      C       3.0116645962     2.6318044095    -2.6397813186
   19      C       3.7987324600    -1.8722150993     0.8156021662
   20      C       5.2694010183    -2.3352445171     1.1658807899
   21      C       5.9335513652    -0.9685187026     1.5775885416
   22      C       4.7529792080     0.0346416327     1.2834530097
   23      O       3.5561580693    -0.7245511134     1.7170844092
   24      H       4.3047878456    -1.8015892799    -1.3835267916
   25      H       5.5789357592     0.1252467570    -0.7873945413
   26      H       3.0176582442    -2.6461308462     0.9490378480
   27      H       5.2600577978    -3.0522618297     2.0020107445
   28      H       5.7670164976    -2.8056297195     0.3025514207
   29      H       6.1902711903    -0.9546204278     2.6489480426
   30      H       6.8389024674    -0.7385136988     0.9934223615
   31      H       4.8016772408     1.0124229463     1.8012538888
   32      O      -1.7682008949    -1.2491679776    -0.1556828525
   33      C      -1.2409138655     1.7596071932     2.2134544602
   34      C      -5.5048035835    -0.4621969017     0.9683043628
   35      C      -6.7761391795    -0.3041441763     0.0472172737
   36      C      -6.2650069192    -0.9602107850    -1.2895360267
   37      C      -4.7964481800    -1.3762073406    -0.8831268397
   38      O      -4.9227751210    -1.7563512136     0.5409580903
   39      H      -4.8528873188     1.5846143268     0.3168364030
   40      H      -4.1024109048     0.6014159959    -1.6967856796
   41      H      -0.7986543708     0.8160741748     2.5933566299
   42      H      -5.6910483635    -0.4643550499     2.0599510056
   43      H      -7.6283672925    -0.8597845317     0.4695795912
   44      H      -7.0700769074     0.7499819555    -0.0800015260
   45      H      -6.8568338196    -1.8510934336    -1.5538780468
   46      H      -6.2798035481    -0.2616066018    -2.1412744726
   47      H      -4.3618799732    -2.2089855166    -1.4693803857
   48      H      -1.7128649102     2.2934365110     3.0629671643
   49      H      -0.4464163132     2.3897753066     1.7743941381
   50      H       2.9039682838     2.5130147882    -3.7338007038
   51      H       3.6290440989     3.5276144983    -2.4235405826
   52      H       2.0106969063     2.7810647323    -2.1864999393
   53      H       0.5045965105     1.7758809847    -0.6608399479
   54      H      -0.1483650846     0.3434901126     0.2075319815
   55      H       0.0424923203     0.6987253218    -2.8552245850
   56      H      -0.0537306547    -0.9283445629    -2.0719208378
 ----------------------------------------------------------------

    9   -1510.2782753204      2.30E-09 Convergence criterion met
 Total energy in the final basis set = -1510.27827532
 Final energy is   -1510.27827532038
 **  OPTIMIZATION CONVERGED  **

                    Orbital Energies (a.u.)
 --------------------------------------------------------------

 Alpha MOs
 -- Occupied --
-18.945 -18.935 -18.932 -18.926 -18.887 -18.886 -18.883 -18.878
-18.872 -18.868 -10.110 -10.100 -10.098 -10.098 -10.071 -10.064
-10.063 -10.061 -10.060 -10.059 -10.057 -10.056 -10.038 -10.038
-10.036 -10.035 -10.020 -10.020 -10.019 -10.018  -1.018  -1.013
 -1.007  -1.003  -0.970  -0.968  -0.945  -0.937  -0.934  -0.932
 -0.764  -0.762  -0.729  -0.722  -0.710  -0.704  -0.695  -0.662
 -0.662  -0.621  -0.597  -0.588  -0.546  -0.544  -0.537  -0.536
 -0.512  -0.510  -0.485  -0.474  -0.463  -0.462  -0.450  -0.443
 -0.438  -0.430  -0.428  -0.413  -0.412  -0.407  -0.407  -0.393
 -0.388  -0.380  -0.375  -0.366  -0.363  -0.361  -0.355  -0.348
 -0.345  -0.340  -0.338  -0.332  -0.330  -0.327  -0.325  -0.310
 -0.309  -0.305  -0.304  -0.301  -0.299  -0.292  -0.284  -0.274
 -0.272  -0.263  -0.253  -0.252  -0.234  -0.233  -0.232  -0.188
 -0.179  -0.176  -0.172  -0.157  -0.153  -0.148  -0.146  -0.143
 -0.142

          Ground-State Mulliken Net Atomic Charges

     Atom                 Charge (a.u.)
  ----------------------------------------
      1 O                    -0.207638
      2 C                     0.211572
      3 C                    -0.078366
      4 C                    -0.079648
      5 C                     0.210556
      6 O                    -0.170952
      7 C                    -0.065309
      8 C                    -0.053464
      9 O                    -0.165336
     10 C                     0.221466
     11 C                    -0.076724
     12 C                    -0.078919
     13 C                     0.219218
     14 O                    -0.219837
     15 O                    -0.174435
     16 O                    -0.178785
     17 O                    -0.210836
     18 C                    -0.129062
     19 C                     0.025038
     20 C                    -0.144317
     21 C                    -0.143138
     22 C                     0.024437
     23 O                    -0.188225
     24 H                     0.086924
     25 H                     0.083018
     26 H                     0.084832
     27 H                     0.078776
     28 H                     0.073930
     29 H                     0.078180
     30 H                     0.073082
     31 H                     0.090215
     32 O                    -0.213205
     33 C                    -0.130414
     34 C                     0.024177
     35 C                    -0.144294
     36 C                    -0.143832
     37 C                     0.026033
     38 O                    -0.186130
     39 H                     0.084535
     40 H                     0.086075
     41 H                     0.094205
     42 H                     0.091228
     43 H                     0.078456
     44 H                     0.072739
     45 H                     0.078180
     46 H                     0.073318
     47 H                     0.084283
     48 H                     0.090116
     49 H                     0.092227
     50 H                     0.088460
     51 H                     0.088204
     52 H                     0.082950
     53 H                     0.086114
     54 H                     0.099651
     55 H                     0.083721
     56 H                     0.116947
  ----------------------------------------
  Sum of atomic charges =     0.000000

                    Cartesian Multipole Moments
 -----------------------------------------------------------------
    Charge (ESU x 10^10)
                 0.0000
    Dipole Moment (Debye)
         X       0.7350      Y       1.8836      Z      -2.2289
       Tot       3.0093
    Quadrupole Moments (Debye-Ang)
        XX    -137.0051     XY     -10.4066     YY    -161.5384
        XZ       5.1087     YZ      -1.1904     ZZ    -162.5208

 Total job time:  59.19s(wall), 2816.44s(cpu)
        *  Thank you very much for using Q-Chem.  Have a nice day.  *
