 Q-Chem 5.0, Q-Chem, Inc., Pleasanton, CA (2017)
 Q-Chem 5.0.1 for Intel X86 EM64T Linux

User input:
--------------------------------------------------------------
$molecule
0  1
O -3.94934 -3.66094 2.70899
C -3.26408 -4.56952 2.26188
C -3.36658 -6.02376 2.66595
C -2.07609 -6.7152 3.13542
C -0.86402 -5.8288 3.31781
O 0.22566 -6.40622 2.73078
C 1.41616 -5.62163 2.85872
C 1.3835 -4.45326 1.87894
O 2.25208 -3.40541 2.33769
C 2.72156 -3.54878 3.60188
C 3.62896 -2.41793 4.02432
C 4.54961 -1.87947 2.91944
C 4.19031 -2.28486 1.50407
O 4.09902 -1.52507 0.55069
O -2.40709 -4.29913 1.2424
O 4.41505 -3.60172 1.22034
O 1.97153 -3.77994 4.54343
C 4.41259 -4.14157 -0.0502
C 2.88126 -1.10936 4.3981
C 3.74744 -0.28459 5.34778
C 4.84994 0.15736 4.40845
C 4.29897 -0.36783 3.07653
O 2.90344 -0.32318 3.23299
H 4.1925 -2.76183 4.92318
H 5.61143 -2.16874 3.08078
H 1.87934 -1.27416 4.85051
H 3.14454 0.60773 5.63292
H 4.08931 -0.80047 6.27069
H 4.89581 1.26889 4.4204
H 5.85394 -0.27082 4.61952
H 4.71479 0.22486 2.23242
O -0.84561 -4.80915 3.99944
C -2.20104 -3.04291 0.712
C -4.26684 -6.23464 3.8986
C -4.75586 -7.68302 3.95403
C -3.49171 -8.39019 4.39239
C -2.53746 -7.20101 4.52391
O -3.37024 -6.1612 4.97845
H -3.79517 -6.54717 1.78215
H -1.80432 -7.58513 2.49354
H -1.81605 -2.35604 1.49592
H -5.13677 -5.54324 3.93268
H -5.50772 -7.76678 4.77096
H -5.19967 -8.04669 3.00227
H -3.66637 -8.82916 5.4003
H -3.11937 -9.17595 3.70022
H -1.6837 -7.46756 5.18611
H -3.14924 -2.64308 0.29342
H -1.45078 -3.11095 -0.10227
H 4.60075 -5.23256 0.0179
H 5.21397 -3.67755 -0.66368
H 3.42931 -3.97515 -0.5385
H 1.63354 -4.79223 0.85223
H 0.37313 -3.99952 1.84019
H 2.2848 -6.22885 2.52359
H 1.5608 -5.70602 3.94385
$end

$opt
CONSTRAINT
tors           1           2           3           4    -126.205
tors           3           4           5           6    -133.273
tors           4           5           6           7    +179.844
tors           5           6           7           8     -76.573
tors           6           7           8           9    +157.251
tors           7           8           9          10     -10.805
tors           8           9          10          11    +179.927
tors           9          10          11          12     -37.290
tors          11          12          13          14    +131.040
ENDCONSTRAINT
$end

$rem
JOBTYPE                   OPT
METHOD                    B3LYP
DFT_D                     d3_op
BASIS                     STO-3G
GEOM_OPT_MAX_CYCLES       100
GEOM_OPT_TOL_GRADIENT     300
GEOM_OPT_TOL_DISPLACEMENT 1200
GEOM_OPT_TOL_ENERGY       100
SYMMETRY                  False
THRESH                    12
SCF_CONVERGENCE           8
MAX_SUB_FILE_NUM          128
MEM_STATIC                400
MEM_TOTAL                 4000
$end
--------------------------------------------------------------

   16   -1510.0724546343      5.38E-09 Convergence criterion met
 Total energy in the final basis set = -1510.07245463
   14   -1510.1545142179      7.65E-09 Convergence criterion met
 Total energy in the final basis set = -1510.15451422
   14   -1510.2037345058      7.30E-09 Convergence criterion met
 Total energy in the final basis set = -1510.20373451
   14   -1510.2359352952      9.76E-09 Convergence criterion met
 Total energy in the final basis set = -1510.23593530
   14   -1510.2534393120      8.20E-09 Convergence criterion met
 Total energy in the final basis set = -1510.25343931
   14   -1510.2637112296      3.79E-09 Convergence criterion met
 Total energy in the final basis set = -1510.26371123
   13   -1510.2698334546      7.58E-09 Convergence criterion met
 Total energy in the final basis set = -1510.26983345
   13   -1510.2735234208      3.95E-09 Convergence criterion met
   10   -1510.2788771659      7.42E-09 Convergence criterion met
 Total energy in the final basis set = -1510.27887717
   12   -1510.2789841463      3.11E-09 Convergence criterion met
 Total energy in the final basis set = -1510.27898415
   10   -1510.2790429853      7.88E-09 Convergence criterion met
 Total energy in the final basis set = -1510.27904299
   10   -1510.2790897387      5.36E-09 Convergence criterion met
 Total energy in the final basis set = -1510.27908974
    9   -1510.2791097749      9.84E-09 Convergence criterion met
 Total energy in the final basis set = -1510.27910977
    9   -1510.2791182774      7.60E-09 Convergence criterion met
 Total energy in the final basis set = -1510.27911828

             Standard Nuclear Orientation (Angstroms)
    I     Atom           X                Y                Z
 ----------------------------------------------------------------
    1      O       3.2640653079    -1.6976273913    -2.1761266656
    2      C       3.2032239632    -0.5547673811    -1.6762083378
    3      C       4.3178217339     0.1605031733    -0.8285889644
    4      C       3.8412590034     0.6975407352     0.5854829355
    5      C       2.3413643779     0.3735522563     0.8792922141
    6      O       1.7055522336     1.5602105450     1.3774219044
    7      C       0.2773066001     1.2841744829     1.6622954203
    8      C      -0.5312979082     1.2429633039     0.3045978598
    9      O      -1.8236623125     0.5083626540     0.2393050993
   10      C      -2.2012071248    -0.3365760118     1.3232539593
   11      C      -3.5958216269    -0.9476675438     0.9393250595
   12      C      -4.5555519589     0.0525322662     0.1743651566
   13      C      -4.0539846874     1.5415780610     0.1575914343
   14      O      -3.9642460987     2.3101278951    -0.8220557717
   15      O       2.1079653004     0.3510760543    -1.8802931522
   16      O      -3.8258108656     1.9381861389     1.5214904011
   17      O      -1.5421626216    -0.6193087841     2.3495697061
   18      C      -3.3977192997     3.3528648063     1.5735167216
   19      C      -3.3861388051    -2.0506177989    -0.1928363710
   20      C      -4.7366360525    -2.8516924609    -0.3808406521
   21      C      -5.5903114015    -1.8263367194    -1.2165892754
   22      C      -4.6057497788    -0.5947089027    -1.2707009711
   23      O      -3.2777863199    -1.2354692749    -1.4224894601
   24      H      -4.0554743975    -1.3662239503     1.8513566055
   25      H      -5.5572551104     0.0482697477     0.6433040627
   26      H      -2.4827013611    -2.6774165920    -0.0592617341
   27      H      -4.5588717886    -3.7845080008    -0.9393597463
   28      H      -5.2018968429    -3.1023664335     0.5858370214
   29      H      -5.7897071551    -2.2029739062    -2.2325332779
   30      H      -6.5500613456    -1.5765815779    -0.7369742536
   31      H      -4.7809355793     0.1347713469    -2.0853757843
   32      O       1.7673261999    -0.7296118131     0.7464869353
   33      C       1.0675872091    -0.3032159690    -2.7102681929
   34      C       5.4360415907    -0.8770267247    -0.4042238719
   35      C       6.7198600714    -0.0797711934     0.0474019005
   36      C       6.2566834956     0.4703519309     1.4483252574
   37      C       4.7996012640    -0.1327014435     1.5480119928
   38      O       4.9140365961    -1.4396066056     0.8643115915
   39      H       4.7308941664     0.9869575493    -1.4359754003
   40      H       3.9937636933     1.7859924523     0.6865600274
   41      H       0.5710781990    -1.1286092630    -2.1595055775
   42      H       5.5965620090    -1.6831234940    -1.1461354919
   43      H       7.5809653873    -0.7596437644     0.1458522829
   44      H       6.9830777252     0.7236845841    -0.6592504924
   45      H       6.8877590867     0.0820940493     2.2635355477
   46      H       6.2561522016     1.5711637782     1.4959787562
   47      H       4.4126423989    -0.2649275872     2.5771283820
   48      H       1.4930524676    -0.7119133607    -3.6488218619
   49      H       0.3237016524     0.4793818680    -2.9477684871
   50      H      -3.2325249715     3.5836289857     2.6421000241
   51      H      -4.1735630407     4.0319178001     1.1641344265
   52      H      -2.4567823387     3.5199970562     1.0109137079
   53      H      -0.7642970481     2.2743726620    -0.0348942873
   54      H       0.1292877880     0.7815663687    -0.4611602427
   55      H      -0.0710672905     2.1200381586     2.2992284556
   56      H       0.1120903826     0.3230789044     2.1950371058
 ----------------------------------------------------------------

    9   -1510.2791166762      2.89E-09 Convergence criterion met
 Total energy in the final basis set = -1510.27911668
 Final energy is   -1510.27911667616
 **  OPTIMIZATION CONVERGED  **

                    Orbital Energies (a.u.)
 --------------------------------------------------------------

 Alpha MOs
 -- Occupied --
-18.942 -18.933 -18.930 -18.928 -18.887 -18.886 -18.882 -18.874
-18.871 -18.871 -10.109 -10.099 -10.097 -10.097 -10.071 -10.065
-10.060 -10.060 -10.060 -10.059 -10.057 -10.056 -10.037 -10.037
-10.036 -10.036 -10.020 -10.020 -10.019 -10.018  -1.017  -1.012
 -1.005  -1.003  -0.970  -0.968  -0.944  -0.935  -0.933  -0.932
 -0.764  -0.762  -0.728  -0.722  -0.710  -0.704  -0.694  -0.662
 -0.659  -0.621  -0.597  -0.587  -0.546  -0.544  -0.537  -0.536
 -0.512  -0.509  -0.482  -0.475  -0.463  -0.460  -0.450  -0.443
 -0.438  -0.430  -0.429  -0.413  -0.409  -0.407  -0.405  -0.393
 -0.389  -0.377  -0.372  -0.366  -0.363  -0.359  -0.354  -0.346
 -0.345  -0.340  -0.338  -0.332  -0.331  -0.326  -0.325  -0.310
 -0.309  -0.305  -0.303  -0.299  -0.297  -0.290  -0.283  -0.275
 -0.272  -0.263  -0.253  -0.251  -0.235  -0.234  -0.232  -0.183
 -0.178  -0.174  -0.173  -0.155  -0.154  -0.148  -0.146  -0.143
 -0.142

          Ground-State Mulliken Net Atomic Charges

     Atom                 Charge (a.u.)
  ----------------------------------------
      1 O                    -0.208219
      2 C                     0.213914
      3 C                    -0.078861
      4 C                    -0.079646
      5 C                     0.210263
      6 O                    -0.171957
      7 C                    -0.065732
      8 C                    -0.053539
      9 O                    -0.166871
     10 C                     0.222033
     11 C                    -0.076900
     12 C                    -0.078507
     13 C                     0.218048
     14 O                    -0.217402
     15 O                    -0.176699
     16 O                    -0.177917
     17 O                    -0.210366
     18 C                    -0.128837
     19 C                     0.025091
     20 C                    -0.144218
     21 C                    -0.143313
     22 C                     0.024562
     23 O                    -0.188175
     24 H                     0.086676
     25 H                     0.083350
     26 H                     0.084526
     27 H                     0.078607
     28 H                     0.074109
     29 H                     0.078094
     30 H                     0.073147
     31 H                     0.090046
     32 O                    -0.213147
     33 C                    -0.130991
     34 C                     0.024374
     35 C                    -0.144056
     36 C                    -0.143750
     37 C                     0.026003
     38 O                    -0.186203
     39 H                     0.084110
     40 H                     0.086217
     41 H                     0.094320
     42 H                     0.091515
     43 H                     0.078396
     44 H                     0.072851
     45 H                     0.078227
     46 H                     0.073486
     47 H                     0.083436
     48 H                     0.090731
     49 H                     0.091748
     50 H                     0.089174
     51 H                     0.087988
     52 H                     0.084185
     53 H                     0.084677
     54 H                     0.096923
     55 H                     0.083696
     56 H                     0.120784
  ----------------------------------------
  Sum of atomic charges =     0.000000

                    Cartesian Multipole Moments
 -----------------------------------------------------------------
    Charge (ESU x 10^10)
                 0.0000
    Dipole Moment (Debye)
         X      -0.7901      Y       2.3418      Z       0.4545
       Tot       2.5130
    Quadrupole Moments (Debye-Ang)
        XX    -138.6182     XY      13.5060     YY    -160.6293
        XZ      -3.0598     YZ       4.0613     ZZ    -161.8207

 Total job time:  59.94s(wall), 2852.56s(cpu)
        *  Thank you very much for using Q-Chem.  Have a nice day.  *
