 Q-Chem 5.0, Q-Chem, Inc., Pleasanton, CA (2017)
 Q-Chem 5.0.1 for Intel X86 EM64T Linux

User input:
--------------------------------------------------------------
$molecule
0  1
O 3.2640653079 -1.6976273913 -2.1761266656
C 3.2032239632 -0.5547673811 -1.6762083378
C 4.3178217339 0.1605031733 -0.8285889644
C 3.8412590034 0.6975407352 0.5854829355
C 2.3413643779 0.3735522563 0.8792922141
O 1.7055522336 1.560210545 1.3774219044
C 0.2773066001 1.2841744829 1.6622954203
C -0.5312979082 1.2429633039 0.3045978598
O -1.8236623125 0.508362654 0.2393050993
C -2.2012071248 -0.3365760118 1.3232539593
C -3.5958216269 -0.9476675438 0.9393250595
C -4.5555519589 0.0525322662 0.1743651566
C -4.0539846874 1.541578061 0.1575914343
O -3.9642460987 2.3101278951 -0.8220557717
O 2.1079653004 0.3510760543 -1.8802931522
O -3.8258108656 1.9381861389 1.5214904011
O -1.5421626216 -0.6193087841 2.3495697061
C -3.3977192997 3.3528648063 1.5735167216
C -3.3861388051 -2.0506177989 -0.192836371
C -4.7366360525 -2.8516924609 -0.3808406521
C -5.5903114015 -1.8263367194 -1.2165892754
C -4.6057497788 -0.5947089027 -1.2707009711
O -3.2777863199 -1.2354692749 -1.4224894601
H -4.0554743975 -1.3662239503 1.8513566055
H -5.5572551104 0.0482697477 0.6433040627
H -2.4827013611 -2.677416592 -0.0592617341
H -4.5588717886 -3.7845080008 -0.9393597463
H -5.2018968429 -3.1023664335 0.5858370214
H -5.7897071551 -2.2029739062 -2.2325332779
H -6.5500613456 -1.5765815779 -0.7369742536
H -4.7809355793 0.1347713469 -2.0853757843
O 1.7673261999 -0.7296118131 0.7464869353
C 1.0675872091 -0.303215969 -2.7102681929
C 5.4360415907 -0.8770267247 -0.4042238719
C 6.7198600714 -0.0797711934 0.0474019005
C 6.2566834956 0.4703519309 1.4483252574
C 4.799601264 -0.1327014435 1.5480119928
O 4.9140365961 -1.4396066056 0.8643115915
H 4.7308941664 0.9869575493 -1.4359754003
H 3.9937636933 1.7859924523 0.6865600274
H 0.571078199 -1.128609263 -2.1595055775
H 5.596562009 -1.683123494 -1.1461354919
H 7.5809653873 -0.7596437644 0.1458522829
H 6.9830777252 0.7236845841 -0.6592504924
H 6.8877590867 0.0820940493 2.2635355477
H 6.2561522016 1.5711637782 1.4959787562
H 4.4126423989 -0.2649275872 2.577128382
H 1.4930524676 -0.7119133607 -3.6488218619
H 0.3237016524 0.479381868 -2.9477684871
H -3.2325249715 3.5836289857 2.6421000241
H -4.1735630407 4.0319178001 1.1641344265
H -2.4567823387 3.5199970562 1.0109137079
H -0.7642970481 2.274372662 -0.0348942873
H 0.129287788 0.7815663687 -0.4611602427
H -0.0710672905 2.1200381586 2.2992284556
H 0.1120903826 0.3230789044 2.1950371058
$end

$rem
JOBTYPE                   OPT
METHOD                    B3LYP
DFT_D                     d3_op
BASIS                     STO-3G
GEOM_OPT_MAX_CYCLES       100
GEOM_OPT_TOL_GRADIENT     300
GEOM_OPT_TOL_DISPLACEMENT 1200
GEOM_OPT_TOL_ENERGY       100
SYMMETRY                  False
THRESH                    12
SCF_CONVERGENCE           8
MAX_SUB_FILE_NUM          128
MEM_STATIC                400
MEM_TOTAL                 4000
$end
--------------------------------------------------------------

   16   -1510.2791684615      6.42E-09 Convergence criterion met
 Total energy in the final basis set = -1510.27916846
   14   -1510.2808534368      4.71E-09 Convergence criterion met
 Total energy in the final basis set = -1510.28085344
   14   -1510.2817724356      2.74E-09 Convergence criterion met
 Total energy in the final basis set = -1510.28177244
   14   -1510.2834530474      4.82E-09 Convergence criterion met
 Total energy in the final basis set = -1510.28345305
   14   -1510.2790470485      6.71E-09 Convergence criterion met
 Total energy in the final basis set = -1510.27904705
   15   -1510.2840219910      1.69E-09 Convergence criterion met
 Total energy in the final basis set = -1510.28402199
   14   -1510.2842077521      2.45E-09 Convergence criterion met
 Total energy in the final basis set = -1510.28420775
   14   -1510.2853937103      5.23E-09 Convergence criterion met
   12   -1510.2924329394      4.54E-09 Convergence criterion met
 Total energy in the final basis set = -1510.29243294
   11   -1510.2924432531      6.43E-09 Convergence criterion met
 Total energy in the final basis set = -1510.29244325
   12   -1510.2924616411      3.21E-09 Convergence criterion met
 Total energy in the final basis set = -1510.29246164
   12   -1510.2924889608      3.69E-09 Convergence criterion met
 Total energy in the final basis set = -1510.29248896
   10   -1510.2924756817      6.90E-09 Convergence criterion met
 Total energy in the final basis set = -1510.29247568
   11   -1510.2924910367      1.53E-09 Convergence criterion met
 Total energy in the final basis set = -1510.29249104

             Standard Nuclear Orientation (Angstroms)
    I     Atom           X                Y                Z
 ----------------------------------------------------------------
    1      O       3.8681898319    -2.0241912213     1.8007748950
    2      C       3.6239833659    -1.4760793868     0.7044438526
    3      C       4.5595811551    -0.5023244993    -0.0957864108
    4      C       3.8548812026     0.8488012423    -0.5411636839
    5      C       2.3619070761     0.9475044694    -0.0857438299
    6      O       1.5444388781     1.0634105705    -1.2640477558
    7      C       0.1132919366     1.1051789813    -0.8822793750
    8      C      -0.6117042106    -0.1365614389    -1.5136738548
    9      O      -2.0310493610    -0.2320159930    -1.0904938469
   10      C      -2.1515855930    -0.8405668451     0.1977078802
   11      C      -3.6698578411    -1.0822420499     0.4921850910
   12      C      -4.5836205163     0.2056101435     0.3567277902
   13      C      -3.8085616785     1.5416564559     0.0805192823
   14      O      -4.0434441412     2.3858305906    -0.8090318955
   15      O       2.4229241043    -1.6599696280    -0.0508098343
   16      O      -2.7904412369     1.6764548792     1.0815374376
   17      O      -1.1908993488    -1.1827116644     0.9241406692
   18      C      -2.1308539377     2.9974744098     0.9713412140
   19      C      -4.3195711253    -2.0085696717    -0.6295407684
   20      C      -5.7310599414    -2.5043856442    -0.1195770014
   21      C      -6.6050278838    -1.2108219874    -0.3260459827
   22      C      -5.5187075980    -0.1986724396    -0.8587661977
   23      O      -4.6483538388    -1.0486082062    -1.7048859959
   24      H      -3.7461149474    -1.5326409992     1.4971544754
   25      H      -5.1732969611     0.3492756508     1.2814020139
   26      H      -3.6512145282    -2.8053652250    -1.0099623863
   27      H      -6.0909315601    -3.3398749884    -0.7407510969
   28      H      -5.6992415982    -2.8342108056     0.9312442052
   29      H      -7.3861347106    -1.3704327976    -1.0861608554
   30      H      -7.0815441466    -0.8632820949     0.6043769769
   31      H      -5.8972153853     0.6659582390    -1.4381009655
   32      O       1.9139477719     0.9770438968     1.0816881123
   33      C       1.4697385377    -2.5347401183     0.6776438618
   34      C       5.7260611265     0.0467505548     0.8227549882
   35      C       6.8421445473     0.6732887035    -0.1004779053
   36      C       6.1464595998     2.0111118605    -0.5512197525
   37      C       4.7666975796     1.9114168830     0.2131013119
   38      O       5.1147635706     1.2276296499     1.4781391205
   39      H       4.9490922706    -1.0447962650    -0.9771469342
   40      H       3.8888421992     0.9788036503    -1.6367375610
   41      H       0.5078296086    -1.9861598042     0.8045878979
   42      H       6.0741406471    -0.6796414048     1.5830232863
   43      H       7.7567589580     0.8701614667     0.4812204483
   44      H       7.0976450635     0.0189635686    -0.9494534480
   45      H       6.7100350564     2.8944244707    -0.2114969578
   46      H       6.0115813948     2.0754989829    -1.6427817220
   47      H       4.2691645032     2.8789008854     0.4190356436
   48      H       1.8990558577    -2.8058359721     1.6620394497
   49      H       1.3037296625    -3.4516556014     0.0783399632
   50      H      -1.2003211624     2.9326974136     1.5648105791
   51      H      -2.7772926254     3.7979555560     1.3867239271
   52      H      -1.8933564312     3.2496047348    -0.0808312067
   53      H      -0.6415145549    -0.0411518288    -2.6175883586
   54      H      -0.0520190249    -1.0560988681    -1.2432127418
   55      H      -0.3290055720     2.0469285504    -1.2662068584
   56      H       0.0483463524     1.0742090716     0.2274254723
 ----------------------------------------------------------------

    9   -1510.2924917876      5.27E-09 Convergence criterion met
 Total energy in the final basis set = -1510.29249179
 Final energy is   -1510.29249178759
 **  OPTIMIZATION CONVERGED  **

                    Orbital Energies (a.u.)
 --------------------------------------------------------------

 Alpha MOs
 -- Occupied --
-18.942 -18.936 -18.929 -18.925 -18.891 -18.886 -18.885 -18.880
-18.872 -18.872 -10.110 -10.103 -10.097 -10.095 -10.073 -10.066
-10.065 -10.063 -10.060 -10.059 -10.055 -10.043 -10.041 -10.037
-10.035 -10.035 -10.023 -10.022 -10.019 -10.018  -1.021  -1.012
 -1.010  -1.002  -0.973  -0.968  -0.945  -0.940  -0.933  -0.930
 -0.767  -0.762  -0.730  -0.722  -0.712  -0.706  -0.695  -0.665
 -0.649  -0.617  -0.599  -0.583  -0.548  -0.543  -0.540  -0.535
 -0.516  -0.507  -0.487  -0.475  -0.468  -0.458  -0.449  -0.447
 -0.437  -0.433  -0.428  -0.416  -0.411  -0.409  -0.403  -0.399
 -0.394  -0.379  -0.378  -0.366  -0.363  -0.357  -0.356  -0.351
 -0.350  -0.336  -0.335  -0.330  -0.328  -0.326  -0.324  -0.313
 -0.308  -0.308  -0.303  -0.302  -0.295  -0.291  -0.285  -0.278
 -0.269  -0.256  -0.255  -0.244  -0.241  -0.237  -0.232  -0.190
 -0.180  -0.172  -0.165  -0.161  -0.158  -0.155  -0.150  -0.146
 -0.142

          Ground-State Mulliken Net Atomic Charges

     Atom                 Charge (a.u.)
  ----------------------------------------
      1 O                    -0.210381
      2 C                     0.214261
      3 C                    -0.077987
      4 C                    -0.078588
      5 C                     0.214089
      6 O                    -0.173581
      7 C                    -0.059562
      8 C                    -0.049903
      9 O                    -0.165901
     10 C                     0.218925
     11 C                    -0.077762
     12 C                    -0.078159
     13 C                     0.213970
     14 O                    -0.210482
     15 O                    -0.178187
     16 O                    -0.173193
     17 O                    -0.213071
     18 C                    -0.130099
     19 C                     0.026318
     20 C                    -0.144134
     21 C                    -0.143628
     22 C                     0.024513
     23 O                    -0.185586
     24 H                     0.087469
     25 H                     0.085526
     26 H                     0.082072
     27 H                     0.078682
     28 H                     0.074404
     29 H                     0.078822
     30 H                     0.073725
     31 H                     0.091325
     32 O                    -0.213249
     33 C                    -0.153385
     34 C                     0.024300
     35 C                    -0.144045
     36 C                    -0.143932
     37 C                     0.025743
     38 O                    -0.186219
     39 H                     0.084492
     40 H                     0.086347
     41 H                     0.109998
     42 H                     0.091258
     43 H                     0.078213
     44 H                     0.072909
     45 H                     0.077874
     46 H                     0.073255
     47 H                     0.082642
     48 H                     0.097608
     49 H                     0.074690
     50 H                     0.094970
     51 H                     0.086155
     52 H                     0.091705
     53 H                     0.093034
     54 H                     0.094942
     55 H                     0.081280
     56 H                     0.105518
  ----------------------------------------
  Sum of atomic charges =     0.000000

                    Cartesian Multipole Moments
 -----------------------------------------------------------------
    Charge (ESU x 10^10)
                 0.0000
    Dipole Moment (Debye)
         X      -1.1508      Y      -0.1184      Z      -1.5308
       Tot       1.9188
    Quadrupole Moments (Debye-Ang)
        XX    -143.1463     XY       7.7221     YY    -153.6997
        XZ     -20.0377     YZ       2.8147     ZZ    -170.1833

 Total job time:  97.76s(wall), 4661.18s(cpu)
        *  Thank you very much for using Q-Chem.  Have a nice day.  *
