 Q-Chem 5.0, Q-Chem, Inc., Pleasanton, CA (2017)
 Q-Chem 5.0.1 for Intel X86 EM64T Linux

User input:
--------------------------------------------------------------
$molecule
0  1
O -3.94934 -3.66094 2.70899
C -3.26408 -4.56952 2.26188
C -3.36658 -6.02376 2.66595
C -2.05434 -6.81805 2.77079
C -0.77338 -6.02537 2.63335
O 0.02888 -6.60007 1.68915
C 1.26389 -5.90166 1.49883
C 1.04037 -4.66424 0.63573
O 2.149 -3.76212 0.77716
C 2.93377 -3.96852 1.86375
C 4.08591 -2.99606 1.95068
C 4.57098 -2.44492 0.6019
C 3.63525 -2.65287 -0.57193
O 3.41423 -1.83722 -1.45535
O -2.55427 -4.32795 1.12767
O 3.64145 -3.95535 -1.0034
O 2.47494 -4.17415 2.98137
C 3.17604 -4.38911 -2.22973
C 3.73176 -1.66887 2.6713
C 5.00517 -1.03802 3.23038
C 5.68544 -0.60161 1.951
C 4.58936 -0.93818 0.93235
O 3.38915 -0.77521 1.64359
H 4.89412 -3.50035 2.52852
H 5.57392 -2.82529 0.30667
H 2.98224 -1.77958 3.48456
H 4.69155 -0.12954 3.79364
H 5.61604 -1.6851 3.89591
H 5.8625 0.49551 2.00517
H 6.63275 -1.13155 1.71111
H 4.70817 -0.30158 0.02826
O -0.48093 -5.05076 3.31846
C -2.44503 -3.09107 0.5257
C -3.91539 -6.20109 4.09532
C -4.49106 -7.60764 4.26718
C -3.21972 -8.42674 4.33288
C -2.16817 -7.31993 4.22242
O -2.75995 -6.23478 4.89583
H -4.05492 -6.49066 1.92636
H -2.0325 -7.67603 2.05934
H -1.97083 -2.36798 1.22342
H -4.68212 -5.44506 4.37152
H -4.99319 -7.65668 5.25977
H -5.20952 -7.9057 3.47343
H -3.15536 -8.89524 5.3405
H -3.11314 -9.20646 3.54809
H -1.19375 -7.67394 4.62675
H -3.44791 -2.72081 0.22371
H -1.81175 -3.18159 -0.38059
H 3.28447 -5.49131 -2.29035
H 3.76675 -3.92678 -3.04896
H 2.10417 -4.12503 -2.34987
H 0.86495 -4.94818 -0.42264
H 0.15337 -4.1024 0.98501
H 1.94062 -6.53874 0.88932
H 1.72012 -6.03953 2.48874
$end

$opt
CONSTRAINT
tors           1           2           3           4    -142.156
tors           3           4           5           6    -128.156
tors           4           5           6           7    +179.844
tors           5           6           7           8     -78.516
tors           6           7           8           9    +162.527
tors           7           8           9          10     -17.789
tors           8           9          10          11    +179.578
tors           9          10          11          12     -27.650
tors          11          12          13          14    +140.309
ENDCONSTRAINT
$end

$rem
JOBTYPE                   OPT
METHOD                    B3LYP
DFT_D                     d3_op
BASIS                     STO-3G
GEOM_OPT_MAX_CYCLES       100
GEOM_OPT_TOL_GRADIENT     300
GEOM_OPT_TOL_DISPLACEMENT 1200
GEOM_OPT_TOL_ENERGY       100
SYMMETRY                  False
THRESH                    12
SCF_CONVERGENCE           8
MAX_SUB_FILE_NUM          128
MEM_STATIC                400
MEM_TOTAL                 4000
$end
--------------------------------------------------------------

   16   -1510.0734915743      4.59E-09 Convergence criterion met
 Total energy in the final basis set = -1510.07349157
   15   -1510.1543835382      2.90E-09 Convergence criterion met
 Total energy in the final basis set = -1510.15438354
   14   -1510.2025342043      7.85E-09 Convergence criterion met
 Total energy in the final basis set = -1510.20253420
   14   -1510.2329799873      2.40E-09 Convergence criterion met
 Total energy in the final basis set = -1510.23297999
   14   -1510.2494631166      8.63E-09 Convergence criterion met
 Total energy in the final basis set = -1510.24946312
   14   -1510.2600203680      4.22E-09 Convergence criterion met
 Total energy in the final basis set = -1510.26002037
   14   -1510.2661413950      3.45E-09 Convergence criterion met
 Total energy in the final basis set = -1510.26614139
   13   -1510.2699763914      5.48E-09 Convergence criterion met
   12   -1510.2769045070      2.55E-09 Convergence criterion met
 Total energy in the final basis set = -1510.27690451
   11   -1510.2770450673      8.97E-09 Convergence criterion met
 Total energy in the final basis set = -1510.27704507
   11   -1510.2771198519      6.06E-09 Convergence criterion met
 Total energy in the final basis set = -1510.27711985
   10   -1510.2771833288      9.79E-09 Convergence criterion met
 Total energy in the final basis set = -1510.27718333
   11   -1510.2772100060      4.49E-09 Convergence criterion met
 Total energy in the final basis set = -1510.27721001
   10   -1510.2772202890      8.54E-09 Convergence criterion met
 Total energy in the final basis set = -1510.27722029

             Standard Nuclear Orientation (Angstroms)
    I     Atom           X                Y                Z
 ----------------------------------------------------------------
    1      O      -3.4155741220    -0.7063109152     2.8378098680
    2      C      -3.2437865725     0.0188819416     1.8347273019
    3      C      -4.3296016993     0.3693903893     0.7539165791
    4      C      -3.8440654352     0.4545082576    -0.7531427276
    5      C      -2.3516292557     0.0347037228    -0.9629461446
    6      O      -1.6958155988     1.0839673178    -1.6932616078
    7      C      -0.2724757268     0.7358056233    -1.9159511447
    8      C       0.5271973856     1.0156099673    -0.5844103456
    9      O       1.8678415444     0.4033142924    -0.3928673590
   10      C       2.2414301371    -0.7052274045    -1.2088142825
   11      C       3.6982999792    -1.1107281894    -0.7761837065
   12      C       4.5477523444     0.0847734373    -0.1875736133
   13      C       4.0055384504     1.5127525230    -0.5509836764
   14      O       3.9554751118     2.5195277869     0.1858873363
   15      O      -2.0454322326     0.7710546138     1.5958320697
   16      O       3.7528765952     1.5371962533    -1.9690324597
   17      O       1.5395939132    -1.3081348942    -2.0514457603
   18      C       3.2918120491     2.8815944528    -2.3773197971
   19      C       3.5712459002    -2.0159640584     0.5300747698
   20      C       4.9936963139    -2.5833672395     0.9249109682
   21      C       5.6471676114    -1.3311948607     1.6216099111
   22      C       4.5358296181    -0.2425124000     1.3642533877
   23      O       3.2818540681    -1.0054472773     1.5735324955
   24      H       4.1925860953    -1.6298920057    -1.6153814055
   25      H       5.5817951362     0.0294925697    -0.5772921629
   26      H       2.7615477784    -2.7705112919     0.4838597687
   27      H       4.8925684078    -3.4311796294     1.6206259428
   28      H       5.5604054683    -2.9185470366     0.0414238391
   29      H       5.7780157871    -1.4969979947     2.7031201447
   30      H       6.6201020209    -1.0559784998     1.1844206469
   31      H       4.5641158177     0.6518848481     2.0167183988
   32      O      -1.8055840150    -1.0373644263    -0.6250138816
   33      C      -1.0672970241     0.5010938002     2.6788463520
   34      C      -5.4352976374    -0.7647557211     0.6616794202
   35      C      -6.7313964587    -0.1375128145     0.0159206323
   36      C      -6.2753623132     0.0118197563    -1.4836742578
   37      C      -4.8215209119    -0.6060402999    -1.4268775937
   38      O      -4.9254949091    -1.6645403956    -0.3985269479
   39      H      -4.7816759217     1.3331673040     1.0564985495
   40      H      -3.9824526610     1.4680386670    -1.1674712750
   41      H      -0.6602671162    -0.5281608408     2.6051634436
   42      H      -5.5819094655    -1.3198982711     1.6089697043
   43      H      -7.5826787081    -0.8301664217     0.1110685330
   44      H      -7.0034181453     0.8247115218     0.4778453059
   45      H      -6.9158244240    -0.5733612500    -2.1626179010
   46      H      -6.2657261940     1.0599363203    -1.8235129684
   47      H      -4.4518392215    -1.0281723526    -2.3815632068
   48      H      -1.5260136574     0.6291368023     3.6796524554
   49      H      -0.2477809394     1.2308386616     2.5464274998
   50      H       3.1431569983     2.8354913118    -3.4719918363
   51      H       4.0407011938     3.6639975190    -2.1375660027
   52      H       2.3348379262     3.1535781366    -1.8873407325
   53      H       0.6864828697     2.1063084523    -0.4525903732
   54      H      -0.1144193700     0.6652533339     0.2528740036
   55      H       0.0801689051     1.3890138695    -2.7374219691
   56      H      -0.1214814403    -0.3296252003    -2.1927821416
 ----------------------------------------------------------------

    9   -1510.2772197955      5.18E-09 Convergence criterion met
 Total energy in the final basis set = -1510.27721980
 Final energy is   -1510.27721979548
 **  OPTIMIZATION CONVERGED  **

                    Orbital Energies (a.u.)
 --------------------------------------------------------------

 Alpha MOs
 -- Occupied --
-18.942 -18.936 -18.930 -18.925 -18.887 -18.886 -18.881 -18.877
-18.870 -18.868 -10.108 -10.100 -10.098 -10.096 -10.070 -10.063
-10.062 -10.060 -10.060 -10.060 -10.057 -10.056 -10.038 -10.038
-10.036 -10.035 -10.021 -10.020 -10.019 -10.019  -1.017  -1.013
 -1.006  -1.002  -0.969  -0.969  -0.944  -0.937  -0.932  -0.932
 -0.764  -0.762  -0.728  -0.722  -0.709  -0.704  -0.694  -0.661
 -0.661  -0.620  -0.597  -0.587  -0.546  -0.544  -0.537  -0.536
 -0.511  -0.510  -0.484  -0.476  -0.462  -0.461  -0.450  -0.443
 -0.436  -0.430  -0.429  -0.412  -0.411  -0.407  -0.407  -0.394
 -0.389  -0.378  -0.374  -0.366  -0.363  -0.360  -0.353  -0.346
 -0.345  -0.339  -0.338  -0.331  -0.330  -0.325  -0.324  -0.311
 -0.310  -0.305  -0.304  -0.300  -0.298  -0.291  -0.284  -0.274
 -0.272  -0.262  -0.253  -0.252  -0.234  -0.234  -0.233  -0.185
 -0.177  -0.175  -0.170  -0.156  -0.153  -0.148  -0.145  -0.143
 -0.142

          Ground-State Mulliken Net Atomic Charges

     Atom                 Charge (a.u.)
  ----------------------------------------
      1 O                    -0.209858
      2 C                     0.213351
      3 C                    -0.078586
      4 C                    -0.079620
      5 C                     0.211277
      6 O                    -0.173209
      7 C                    -0.065202
      8 C                    -0.054118
      9 O                    -0.166727
     10 C                     0.223151
     11 C                    -0.076114
     12 C                    -0.078560
     13 C                     0.219070
     14 O                    -0.220501
     15 O                    -0.173915
     16 O                    -0.178805
     17 O                    -0.209998
     18 C                    -0.129029
     19 C                     0.024313
     20 C                    -0.144743
     21 C                    -0.142426
     22 C                     0.024328
     23 O                    -0.189740
     24 H                     0.087475
     25 H                     0.082723
     26 H                     0.084587
     27 H                     0.078692
     28 H                     0.074015
     29 H                     0.077947
     30 H                     0.073199
     31 H                     0.089946
     32 O                    -0.212567
     33 C                    -0.130878
     34 C                     0.024411
     35 C                    -0.143705
     36 C                    -0.144203
     37 C                     0.026211
     38 O                    -0.186418
     39 H                     0.084332
     40 H                     0.086037
     41 H                     0.094571
     42 H                     0.091606
     43 H                     0.078495
     44 H                     0.072880
     45 H                     0.078184
     46 H                     0.073368
     47 H                     0.083640
     48 H                     0.092305
     49 H                     0.092928
     50 H                     0.088535
     51 H                     0.088276
     52 H                     0.083274
     53 H                     0.085187
     54 H                     0.097407
     55 H                     0.083080
     56 H                     0.120123
  ----------------------------------------
  Sum of atomic charges =     0.000000

                    Cartesian Multipole Moments
 -----------------------------------------------------------------
    Charge (ESU x 10^10)
                 0.0000
    Dipole Moment (Debye)
         X       0.7841      Y       2.1830      Z      -1.0796
       Tot       2.5585
    Quadrupole Moments (Debye-Ang)
        XX    -139.0723     XY     -13.8686     YY    -162.8535
        XZ       1.3944     YZ      -3.3336     ZZ    -160.3531

 Total job time:  60.59s(wall), 2883.84s(cpu)
        *  Thank you very much for using Q-Chem.  Have a nice day.  *
