 Q-Chem 5.0, Q-Chem, Inc., Pleasanton, CA (2017)
 Q-Chem 5.0.1 for Intel X86 EM64T Linux

User input:
--------------------------------------------------------------
$molecule
0  1
O -3.415574122 -0.7063109152 2.837809868
C -3.2437865725 0.0188819416 1.8347273019
C -4.3296016993 0.3693903893 0.7539165791
C -3.8440654352 0.4545082576 -0.7531427276
C -2.3516292557 0.0347037228 -0.9629461446
O -1.6958155988 1.0839673178 -1.6932616078
C -0.2724757268 0.7358056233 -1.9159511447
C 0.5271973856 1.0156099673 -0.5844103456
O 1.8678415444 0.4033142924 -0.392867359
C 2.2414301371 -0.7052274045 -1.2088142825
C 3.6982999792 -1.1107281894 -0.7761837065
C 4.5477523444 0.0847734373 -0.1875736133
C 4.0055384504 1.512752523 -0.5509836764
O 3.9554751118 2.5195277869 0.1858873363
O -2.0454322326 0.7710546138 1.5958320697
O 3.7528765952 1.5371962533 -1.9690324597
O 1.5395939132 -1.3081348942 -2.0514457603
C 3.2918120491 2.8815944528 -2.3773197971
C 3.5712459002 -2.0159640584 0.5300747698
C 4.9936963139 -2.5833672395 0.9249109682
C 5.6471676114 -1.3311948607 1.6216099111
C 4.5358296181 -0.2425124 1.3642533877
O 3.2818540681 -1.0054472773 1.5735324955
H 4.1925860953 -1.6298920057 -1.6153814055
H 5.5817951362 0.0294925697 -0.5772921629
H 2.7615477784 -2.7705112919 0.4838597687
H 4.8925684078 -3.4311796294 1.6206259428
H 5.5604054683 -2.9185470366 0.0414238391
H 5.7780157871 -1.4969979947 2.7031201447
H 6.6201020209 -1.0559784998 1.1844206469
H 4.5641158177 0.6518848481 2.0167183988
O -1.805584015 -1.0373644263 -0.6250138816
C -1.0672970241 0.5010938002 2.678846352
C -5.4352976374 -0.7647557211 0.6616794202
C -6.7313964587 -0.1375128145 0.0159206323
C -6.2753623132 0.0118197563 -1.4836742578
C -4.8215209119 -0.6060402999 -1.4268775937
O -4.9254949091 -1.6645403956 -0.3985269479
H -4.7816759217 1.333167304 1.0564985495
H -3.982452661 1.468038667 -1.167471275
H -0.6602671162 -0.5281608408 2.6051634436
H -5.5819094655 -1.3198982711 1.6089697043
H -7.5826787081 -0.8301664217 0.111068533
H -7.0034181453 0.8247115218 0.4778453059
H -6.915824424 -0.57336125 -2.162617901
H -6.265726194 1.0599363203 -1.8235129684
H -4.4518392215 -1.0281723526 -2.3815632068
H -1.5260136574 0.6291368023 3.6796524554
H -0.2477809394 1.2308386616 2.5464274998
H 3.1431569983 2.8354913118 -3.4719918363
H 4.0407011938 3.663997519 -2.1375660027
H 2.3348379262 3.1535781366 -1.8873407325
H 0.6864828697 2.1063084523 -0.4525903732
H -0.11441937 0.6652533339 0.2528740036
H 0.0801689051 1.3890138695 -2.7374219691
H -0.1214814403 -0.3296252003 -2.1927821416
$end

$rem
JOBTYPE                   OPT
METHOD                    B3LYP
DFT_D                     d3_op
BASIS                     STO-3G
GEOM_OPT_MAX_CYCLES       100
GEOM_OPT_TOL_GRADIENT     300
GEOM_OPT_TOL_DISPLACEMENT 1200
GEOM_OPT_TOL_ENERGY       100
SYMMETRY                  False
THRESH                    12
SCF_CONVERGENCE           8
MAX_SUB_FILE_NUM          128
MEM_STATIC                400
MEM_TOTAL                 4000
$end
--------------------------------------------------------------

   16   -1510.2772531195      5.80E-09 Convergence criterion met
 Total energy in the final basis set = -1510.27725312
   14   -1510.2791526714      6.92E-09 Convergence criterion met
 Total energy in the final basis set = -1510.27915267
   15   -1510.2803520442      2.54E-09 Convergence criterion met
 Total energy in the final basis set = -1510.28035204
   14   -1510.2820727472      5.92E-09 Convergence criterion met
 Total energy in the final basis set = -1510.28207275
   14   -1510.2834050051      6.15E-09 Convergence criterion met
 Total energy in the final basis set = -1510.28340501
   15   -1510.2848897639      2.39E-09 Convergence criterion met
 Total energy in the final basis set = -1510.28488976
   14   -1510.2840717840      3.47E-09 Convergence criterion met
 Total energy in the final basis set = -1510.28407178
   14   -1510.2867281752      6.72E-09 Convergence criterion met
   12   -1510.2923509618      2.53E-09 Convergence criterion met
 Total energy in the final basis set = -1510.29235096
   12   -1510.2924161414      4.30E-09 Convergence criterion met
 Total energy in the final basis set = -1510.29241614
   11   -1510.2924381840      7.79E-09 Convergence criterion met
 Total energy in the final basis set = -1510.29243818
   11   -1510.2924496050      7.37E-09 Convergence criterion met
 Total energy in the final basis set = -1510.29244961
   12   -1510.2924830709      3.76E-09 Convergence criterion met
 Total energy in the final basis set = -1510.29248307
   11   -1510.2924857090      3.21E-09 Convergence criterion met
 Total energy in the final basis set = -1510.29248571

             Standard Nuclear Orientation (Angstroms)
    I     Atom           X                Y                Z
 ----------------------------------------------------------------
    1      O       3.8480045566    -2.0272973607     1.8192353996
    2      C       3.6091077794    -1.4837336364     0.7194729777
    3      C       4.5510738371    -0.5185260655    -0.0835522389
    4      C       3.8533197331     0.8327380729    -0.5394898450
    5      C       2.3599276681     0.9415354826    -0.0875403505
    6      O       1.5454732483     1.0567426419    -1.2680214783
    7      C       0.1134639434     1.1055497681    -0.8902480413
    8      C      -0.6146556818    -0.1361337636    -1.5177550365
    9      O      -2.0355863292    -0.2229686980    -1.0981142127
   10      C      -2.1631814836    -0.8257994467     0.1921425389
   11      C      -3.6838023630    -1.0566895837     0.4831875467
   12      C      -4.5882512128     0.2368028839     0.3402764555
   13      C      -3.8020396504     1.5660539615     0.0629827704
   14      O      -4.0243792674     2.4080005200    -0.8318634424
   15      O       2.4093978125    -1.6662640648    -0.0383611579
   16      O      -2.7890567424     1.6967574041     1.0697773490
   17      O      -1.2065498804    -1.1716029926     0.9221529253
   18      C      -2.1187219507     3.0122499339     0.9590283305
   19      C      -4.3361096118    -1.9825497931    -0.6374280916
   20      C      -5.7528974817    -2.4664980582    -0.1306812595
   21      C      -6.6170262986    -1.1676605832    -0.3453740219
   22      C      -5.5215261630    -0.1651003436    -0.8774062048
   23      O      -4.6542511205    -1.0242262055    -1.7174016277
   24      H      -3.7661732620    -1.5029951790     1.4895219229
   25      H      -5.1800825096     0.3875404743     1.2624560821
   26      H      -3.6720424106    -2.7853357726    -1.0126985697
   27      H      -6.1164714434    -3.3018367205    -0.7498857706
   28      H      -5.7271394081    -2.7923698724     0.9215290668
   29      H      -7.3960740284    -1.3246112325    -1.1081432543
   30      H      -7.0949555754    -0.8134449735     0.5818154389
   31      H      -5.8917848313     0.7000203482    -1.4612907560
   32      O       1.9098921922     0.9784571683     1.0788957124
   33      C       1.4496351960    -2.5322289236     0.6919519870
   34      C       5.7173944046     0.0315007788     0.8346991564
   35      C       6.8388856001     0.6466525259    -0.0897508166
   36      C       6.1502499107     1.9842489881    -0.5520219606
   37      C       4.7682403268     1.8962580975     0.2096224638
   38      O       5.1097560447     1.2196950384     1.4802259366
   39      H       4.9409456058    -1.0678954758    -0.9604562424
   40      H       3.8899319166     0.9554511642    -1.6358054176
   41      H       0.4895917620    -1.9789598769     0.8122620848
   42      H       6.0600672204    -0.6911668362     1.6009559230
   43      H       7.7526474663     0.8437584437     0.4932162987
   44      H       7.0939702993    -0.0147081403    -0.9333739593
   45      H       6.7170643638     2.8675491672    -0.2177155321
   46      H       6.0181062551     2.0409242665    -1.6443444779
   47      H       4.2746784843     2.8674509814     0.4074758347
   48      H       1.8742787701    -2.7992190404     1.6794968096
   49      H       1.2817905191    -3.4520522528     0.0976499544
   50      H      -1.1870938838     2.9394587920     1.5498242493
   51      H      -2.7574626816     3.8174402332     1.3772568613
   52      H      -1.8824990246     3.2634040540    -0.0936711823
   53      H      -0.6404406335    -0.0461225009    -2.6222582572
   54      H      -0.0601267287    -1.0567490566    -1.2407587468
   55      H      -0.3244287007     2.0471169026    -1.2797183066
   56      H       0.0454020631     1.0800456743     0.2194074279
 ----------------------------------------------------------------

   11   -1510.2924855244      3.07E-09 Convergence criterion met
 Total energy in the final basis set = -1510.29248552
 Final energy is   -1510.29248552437
 **  OPTIMIZATION CONVERGED  **

                    Orbital Energies (a.u.)
 --------------------------------------------------------------

 Alpha MOs
 -- Occupied --
-18.942 -18.936 -18.929 -18.925 -18.891 -18.886 -18.885 -18.880
-18.872 -18.872 -10.110 -10.103 -10.097 -10.095 -10.073 -10.066
-10.065 -10.064 -10.060 -10.059 -10.055 -10.043 -10.041 -10.037
-10.035 -10.035 -10.023 -10.022 -10.019 -10.018  -1.021  -1.012
 -1.010  -1.002  -0.973  -0.968  -0.945  -0.940  -0.933  -0.930
 -0.767  -0.762  -0.730  -0.722  -0.712  -0.706  -0.695  -0.665
 -0.649  -0.617  -0.599  -0.583  -0.548  -0.543  -0.540  -0.535
 -0.516  -0.507  -0.487  -0.475  -0.468  -0.458  -0.449  -0.447
 -0.437  -0.433  -0.428  -0.416  -0.411  -0.408  -0.403  -0.399
 -0.394  -0.379  -0.378  -0.366  -0.363  -0.357  -0.356  -0.351
 -0.350  -0.336  -0.335  -0.330  -0.328  -0.326  -0.324  -0.313
 -0.308  -0.308  -0.303  -0.302  -0.295  -0.291  -0.285  -0.278
 -0.269  -0.256  -0.255  -0.244  -0.241  -0.237  -0.232  -0.190
 -0.180  -0.172  -0.165  -0.161  -0.158  -0.155  -0.150  -0.146
 -0.142

          Ground-State Mulliken Net Atomic Charges

     Atom                 Charge (a.u.)
  ----------------------------------------
      1 O                    -0.210376
      2 C                     0.214268
      3 C                    -0.077999
      4 C                    -0.078566
      5 C                     0.214083
      6 O                    -0.173603
      7 C                    -0.059524
      8 C                    -0.049914
      9 O                    -0.165895
     10 C                     0.218927
     11 C                    -0.077727
     12 C                    -0.078155
     13 C                     0.213979
     14 O                    -0.210459
     15 O                    -0.178225
     16 O                    -0.173238
     17 O                    -0.213040
     18 C                    -0.130211
     19 C                     0.026312
     20 C                    -0.144134
     21 C                    -0.143626
     22 C                     0.024520
     23 O                    -0.185557
     24 H                     0.087485
     25 H                     0.085542
     26 H                     0.082084
     27 H                     0.078688
     28 H                     0.074406
     29 H                     0.078827
     30 H                     0.073726
     31 H                     0.091297
     32 O                    -0.213278
     33 C                    -0.153448
     34 C                     0.024291
     35 C                    -0.144031
     36 C                    -0.143942
     37 C                     0.025757
     38 O                    -0.186231
     39 H                     0.084491
     40 H                     0.086350
     41 H                     0.110067
     42 H                     0.091261
     43 H                     0.078208
     44 H                     0.072909
     45 H                     0.077871
     46 H                     0.073252
     47 H                     0.082623
     48 H                     0.097545
     49 H                     0.074663
     50 H                     0.094972
     51 H                     0.086081
     52 H                     0.091860
     53 H                     0.093079
     54 H                     0.094979
     55 H                     0.081367
     56 H                     0.105409
  ----------------------------------------
  Sum of atomic charges =     0.000000

                    Cartesian Multipole Moments
 -----------------------------------------------------------------
    Charge (ESU x 10^10)
                 0.0000
    Dipole Moment (Debye)
         X      -1.1573      Y      -0.1216      Z      -1.5343
       Tot       1.9256
    Quadrupole Moments (Debye-Ang)
        XX    -142.9002     XY       7.5435     YY    -153.7953
        XZ     -19.9517     YZ       2.8628     ZZ    -170.2959

 Total job time:  91.11s(wall), 4342.04s(cpu)
        *  Thank you very much for using Q-Chem.  Have a nice day.  *
