 Q-Chem 5.0, Q-Chem, Inc., Pleasanton, CA (2017)
 Q-Chem 5.0.1 for Intel X86 EM64T Linux

User input:
--------------------------------------------------------------
$molecule
0  1
O -3.94934 -3.66094 2.70899
C -3.26408 -4.56952 2.26188
C -3.36658 -6.02376 2.66595
C -2.0498 -6.78725 2.88277
C -0.78001 -5.96609 2.84499
O 0.2221 -6.6878 2.2616
C 1.44932 -5.95929 2.15004
C 1.3351 -4.90135 1.05741
O 2.44027 -3.98803 1.14305
C 3.06319 -3.93767 2.34662
C 4.22094 -2.96827 2.36981
C 5.13314 -3.01975 1.1355
C 4.57381 -3.74892 -0.06956
O 4.56023 -3.3199 -1.21425
O -2.49367 -4.31707 1.17041
O 4.42671 -5.09504 0.09254
O 2.41355 -3.84477 3.38254
C 4.1497 -5.98175 -0.92806
C 3.79776 -1.48069 2.33324
C 4.89963 -0.62518 2.95432
C 5.979 -0.74723 1.89777
C 5.21361 -1.51521 0.81198
O 3.87668 -1.1118 0.97827
H 4.78666 -3.15301 3.31294
H 6.11939 -3.48031 1.3641
H 2.82691 -1.28084 2.83687
H 4.52298 0.42315 2.95897
H 5.21117 -0.90318 3.9841
H 6.25143 0.27586 1.556
H 6.88961 -1.30269 2.21096
H 5.66376 -1.31569 -0.18509
O -0.61841 -4.92193 3.46874
C -2.32153 -3.06922 0.60907
C -4.0412 -6.20588 4.03738
C -4.57882 -7.63137 4.17626
C -3.29108 -8.39718 4.38778
C -2.27468 -7.25459 4.33693
O -2.96124 -6.18131 4.93526
H -3.96598 -6.50914 1.86371
H -1.94013 -7.67351 2.2158
H -1.86547 -2.37796 1.34974
H -4.85721 -5.47557 4.2285
H -5.18285 -7.6926 5.10948
H -5.19379 -7.96319 3.31203
H -3.30091 -8.82281 5.41638
H -3.08768 -9.20373 3.65078
H -1.32914 -7.5654 4.83497
H -3.29749 -2.66418 0.26624
H -1.64287 -3.15426 -0.26428
H 4.06609 -7.00486 -0.50782
H 4.96886 -5.96849 -1.67823
H 3.19085 -5.71571 -1.42053
H 1.28837 -5.38259 0.05859
H 0.41624 -4.29266 1.17844
H 2.24626 -6.65538 1.81004
H 1.70659 -5.81282 3.2085
$end

$opt
CONSTRAINT
tors           1           2           3           4    -137.284
tors           3           4           5           6    -143.769
tors           4           5           6           7    +178.101
tors           5           6           7           8     -73.089
tors           6           7           8           9    +167.365
tors           7           8           9          10     -21.277
tors           8           9          10          11    +179.578
tors           9          10          11          12     -43.485
tors          11          12          13          14    +131.040
ENDCONSTRAINT
$end

$rem
JOBTYPE                   OPT
METHOD                    B3LYP
DFT_D                     d3_op
BASIS                     STO-3G
GEOM_OPT_MAX_CYCLES       100
GEOM_OPT_TOL_GRADIENT     300
GEOM_OPT_TOL_DISPLACEMENT 1200
GEOM_OPT_TOL_ENERGY       100
SYMMETRY                  False
THRESH                    12
SCF_CONVERGENCE           8
MAX_SUB_FILE_NUM          128
MEM_STATIC                400
MEM_TOTAL                 4000
$end
--------------------------------------------------------------

   16   -1510.0957546382      4.38E-09 Convergence criterion met
 Total energy in the final basis set = -1510.09575464
   15   -1510.1739192246      2.82E-09 Convergence criterion met
 Total energy in the final basis set = -1510.17391922
   14   -1510.2192733797      8.10E-09 Convergence criterion met
 Total energy in the final basis set = -1510.21927338
   15   -1510.2470540558      2.59E-09 Convergence criterion met
 Total energy in the final basis set = -1510.24705406
   14   -1510.2615344614      4.84E-09 Convergence criterion met
 Total energy in the final basis set = -1510.26153446
   14   -1510.2691680528      3.65E-09 Convergence criterion met
 Total energy in the final basis set = -1510.26916805
   13   -1510.2737233889      6.41E-09 Convergence criterion met
 Total energy in the final basis set = -1510.27372339
   13   -1510.2766074903      2.54E-09 Convergence criterion met
    9   -1510.2804129805      4.50E-09 Convergence criterion met
 Total energy in the final basis set = -1510.28041298
    9   -1510.2804143732      2.26E-09 Convergence criterion met
 Total energy in the final basis set = -1510.28041437
    9   -1510.2804164723      3.25E-09 Convergence criterion met
 Total energy in the final basis set = -1510.28041647
    9   -1510.2804195390      4.03E-09 Convergence criterion met
 Total energy in the final basis set = -1510.28041954
    9   -1510.2804222232      3.32E-09 Convergence criterion met
 Total energy in the final basis set = -1510.28042222
    9   -1510.2804236697      2.70E-09 Convergence criterion met
 Total energy in the final basis set = -1510.28042367

             Standard Nuclear Orientation (Angstroms)
    I     Atom           X                Y                Z
 ----------------------------------------------------------------
    1      O       3.6549207194    -2.7336159940    -0.8355867982
    2      C       3.4562344226    -1.5168514130    -1.0360958246
    3      C       4.4593040891    -0.3425228666    -0.7481354896
    4      C       3.8302713264     0.9487049316    -0.0810495995
    5      C       2.3594158456     0.7244482303     0.4025787140
    6      O       1.6208349295     1.9341910342     0.1835877716
    7      C       0.2046053962     1.7552571305     0.5859165196
    8      C      -0.5440528536     0.8496627240    -0.4690215823
    9      O      -1.8853510921     0.3077527370    -0.1234129193
   10      C      -2.2455021413     0.2225846097     1.2548123999
   11      C      -3.6995051610    -0.3686461006     1.2923733114
   12      C      -4.6755560884     0.2626156433     0.2166454922
   13      C      -4.0695704247     1.4835057277    -0.5627483638
   14      O      -4.0554889876     1.6705257094    -1.7969811372
   15      O       2.3076016801    -0.9943631388    -1.7206761778
   16      O      -3.6018064546     2.4386467155     0.4044921231
   17      O      -1.5354966233     0.4782340491     2.2534968242
   18      C      -3.0555118006     3.6284911649    -0.2844298090
   19      C      -3.6880146263    -1.8843984057     0.8062311850
   20      C      -5.0933594935    -2.5333857164     1.1280362994
   21      C      -5.9858662936    -1.9219561905    -0.0160798017
   22      C      -4.9448252215    -0.9775862492    -0.7327542722
   23      O      -3.6853268185    -1.7563942048    -0.6679788596
   24      H      -4.0840718970    -0.2635508193     2.3214794038
   25      H      -5.6104875268     0.6008524967     0.7008876771
   26      H      -2.8113926204    -2.4682826566     1.1482829046
   27      H      -5.0355252737    -3.6309179331     1.0540959179
   28      H      -5.4517014619    -2.2664546204     2.1353258631
   29      H      -6.3404078368    -2.7009365051    -0.7099294855
   30      H      -6.8568714318    -1.3685986075     0.3699462149
   31      H      -5.1766640868    -0.6999426068    -1.7794917814
   32      O       1.8901315242    -0.3022272877     0.9408904751
   33      C       1.3642427336    -2.0943346010    -2.0292739635
   34      C       5.5613154389    -0.7465896235     0.3174596838
   35      C       6.7985655931     0.2115434848     0.1268555576
   36      C       6.2160331379     1.5627589303     0.6871559361
   37      C       4.7865936595     1.1022359800     1.1825329776
   38      O       4.9866924947    -0.3004721211     1.6089542508
   39      H       4.9272195903    -0.0746641010    -1.7141606816
   40      H       3.8660873455     1.8294974108    -0.7448315134
   41      H       0.9367165890    -2.5308577316    -1.1033326679
   42      H       5.7807578814    -1.8319402093     0.3421980788
   43      H       7.6508152750    -0.1386733816     0.7308099135
   44      H       7.1165423702     0.2850511678    -0.9253900072
   45      H       6.8136262296     1.9458586063     1.5292699483
   46      H       6.1482411755     2.3469059811    -0.0840255214
   47      H       4.3595222126     1.7029235135     2.0091134384
   48      H       1.8553883752    -2.9040695330    -2.6060390933
   49      H       0.5542253982    -1.6454280964    -2.6331440000
   50      H      -2.6210233892     4.2685881475     0.5054235436
   51      H      -3.8489512065     4.1905009705    -0.8187504660
   52      H      -2.2694846361     3.3546512324    -1.0168846687
   53      H      -0.6939793011     1.4061951195    -1.4179120956
   54      H       0.1140065312    -0.0201208057    -0.6847484979
   55      H      -0.2325736757     2.7720245058     0.6108667380
   56      H       0.0892266594     1.2807974429     1.5841353548
 ----------------------------------------------------------------

    9   -1510.2804241352      4.63E-09 Convergence criterion met
 Total energy in the final basis set = -1510.28042414
 Final energy is   -1510.28042413524
 **  OPTIMIZATION CONVERGED  **

                    Orbital Energies (a.u.)
 --------------------------------------------------------------

 Alpha MOs
 -- Occupied --
-18.940 -18.933 -18.931 -18.930 -18.887 -18.886 -18.881 -18.874
-18.873 -18.872 -10.107 -10.100 -10.098 -10.097 -10.070 -10.066
-10.061 -10.061 -10.060 -10.060 -10.057 -10.056 -10.038 -10.037
-10.037 -10.036 -10.021 -10.020 -10.019 -10.019  -1.017  -1.012
 -1.006  -1.004  -0.970  -0.969  -0.943  -0.936  -0.936  -0.932
 -0.764  -0.762  -0.729  -0.722  -0.710  -0.705  -0.694  -0.664
 -0.659  -0.620  -0.597  -0.587  -0.547  -0.544  -0.537  -0.536
 -0.512  -0.510  -0.483  -0.475  -0.464  -0.461  -0.452  -0.443
 -0.437  -0.431  -0.430  -0.414  -0.409  -0.408  -0.406  -0.392
 -0.389  -0.378  -0.374  -0.367  -0.363  -0.358  -0.356  -0.348
 -0.345  -0.340  -0.338  -0.332  -0.331  -0.326  -0.325  -0.311
 -0.310  -0.305  -0.304  -0.299  -0.297  -0.290  -0.284  -0.277
 -0.273  -0.262  -0.254  -0.251  -0.236  -0.234  -0.233  -0.187
 -0.178  -0.174  -0.171  -0.155  -0.154  -0.149  -0.146  -0.143
 -0.142

          Ground-State Mulliken Net Atomic Charges

     Atom                 Charge (a.u.)
  ----------------------------------------
      1 O                    -0.210500
      2 C                     0.214861
      3 C                    -0.079197
      4 C                    -0.078661
      5 C                     0.212857
      6 O                    -0.172758
      7 C                    -0.065020
      8 C                    -0.054315
      9 O                    -0.167687
     10 C                     0.220439
     11 C                    -0.077288
     12 C                    -0.078445
     13 C                     0.217100
     14 O                    -0.215147
     15 O                    -0.176077
     16 O                    -0.176710
     17 O                    -0.209908
     18 C                    -0.129346
     19 C                     0.025357
     20 C                    -0.144116
     21 C                    -0.143433
     22 C                     0.024545
     23 O                    -0.187139
     24 H                     0.086308
     25 H                     0.083798
     26 H                     0.083689
     27 H                     0.078452
     28 H                     0.074165
     29 H                     0.078096
     30 H                     0.073022
     31 H                     0.090294
     32 O                    -0.212630
     33 C                    -0.130414
     34 C                     0.024301
     35 C                    -0.143297
     36 C                    -0.144340
     37 C                     0.025706
     38 O                    -0.187041
     39 H                     0.083832
     40 H                     0.086483
     41 H                     0.092537
     42 H                     0.091812
     43 H                     0.078451
     44 H                     0.073061
     45 H                     0.078200
     46 H                     0.073355
     47 H                     0.083100
     48 H                     0.090362
     49 H                     0.091270
     50 H                     0.089311
     51 H                     0.087692
     52 H                     0.087357
     53 H                     0.086645
     54 H                     0.094849
     55 H                     0.083169
     56 H                     0.118992
  ----------------------------------------
  Sum of atomic charges =     0.000000

                    Cartesian Multipole Moments
 -----------------------------------------------------------------
    Charge (ESU x 10^10)
                 0.0000
    Dipole Moment (Debye)
         X      -0.9031      Y       2.1131      Z      -0.9726
       Tot       2.4953
    Quadrupole Moments (Debye-Ang)
        XX    -139.8913     XY      10.2097     YY    -156.6769
        XZ     -12.1040     YZ       1.3827     ZZ    -166.0809

 Total job time:  71.35s(wall), 3397.96s(cpu)
        *  Thank you very much for using Q-Chem.  Have a nice day.  *
