 Q-Chem 5.0, Q-Chem, Inc., Pleasanton, CA (2017)
 Q-Chem 5.0.1 for Intel X86 EM64T Linux

User input:
--------------------------------------------------------------
$molecule
0  1
O 3.6549207194 -2.733615994 -0.8355867982
C 3.4562344226 -1.516851413 -1.0360958246
C 4.4593040891 -0.3425228666 -0.7481354896
C 3.8302713264 0.9487049316 -0.0810495995
C 2.3594158456 0.7244482303 0.402578714
O 1.6208349295 1.9341910342 0.1835877716
C 0.2046053962 1.7552571305 0.5859165196
C -0.5440528536 0.849662724 -0.4690215823
O -1.8853510921 0.307752737 -0.1234129193
C -2.2455021413 0.2225846097 1.2548123999
C -3.699505161 -0.3686461006 1.2923733114
C -4.6755560884 0.2626156433 0.2166454922
C -4.0695704247 1.4835057277 -0.5627483638
O -4.0554889876 1.6705257094 -1.7969811372
O 2.3076016801 -0.9943631388 -1.7206761778
O -3.6018064546 2.4386467155 0.4044921231
O -1.5354966233 0.4782340491 2.2534968242
C -3.0555118006 3.6284911649 -0.284429809
C -3.6880146263 -1.8843984057 0.806231185
C -5.0933594935 -2.5333857164 1.1280362994
C -5.9858662936 -1.9219561905 -0.0160798017
C -4.9448252215 -0.9775862492 -0.7327542722
O -3.6853268185 -1.7563942048 -0.6679788596
H -4.084071897 -0.2635508193 2.3214794038
H -5.6104875268 0.6008524967 0.7008876771
H -2.8113926204 -2.4682826566 1.1482829046
H -5.0355252737 -3.6309179331 1.0540959179
H -5.4517014619 -2.2664546204 2.1353258631
H -6.3404078368 -2.7009365051 -0.7099294855
H -6.8568714318 -1.3685986075 0.3699462149
H -5.1766640868 -0.6999426068 -1.7794917814
O 1.8901315242 -0.3022272877 0.9408904751
C 1.3642427336 -2.094334601 -2.0292739635
C 5.5613154389 -0.7465896235 0.3174596838
C 6.7985655931 0.2115434848 0.1268555576
C 6.2160331379 1.5627589303 0.6871559361
C 4.7865936595 1.10223598 1.1825329776
O 4.9866924947 -0.3004721211 1.6089542508
H 4.9272195903 -0.074664101 -1.7141606816
H 3.8660873455 1.8294974108 -0.7448315134
H 0.936716589 -2.5308577316 -1.1033326679
H 5.7807578814 -1.8319402093 0.3421980788
H 7.650815275 -0.1386733816 0.7308099135
H 7.1165423702 0.2850511678 -0.9253900072
H 6.8136262296 1.9458586063 1.5292699483
H 6.1482411755 2.3469059811 -0.0840255214
H 4.3595222126 1.7029235135 2.0091134384
H 1.8553883752 -2.904069533 -2.6060390933
H 0.5542253982 -1.6454280964 -2.633144
H -2.6210233892 4.2685881475 0.5054235436
H -3.8489512065 4.1905009705 -0.818750466
H -2.2694846361 3.3546512324 -1.0168846687
H -0.6939793011 1.4061951195 -1.4179120956
H 0.1140065312 -0.0201208057 -0.6847484979
H -0.2325736757 2.7720245058 0.610866738
H 0.0892266594 1.2807974429 1.5841353548
$end

$rem
JOBTYPE                   OPT
METHOD                    B3LYP
DFT_D                     d3_op
BASIS                     STO-3G
GEOM_OPT_MAX_CYCLES       100
GEOM_OPT_TOL_GRADIENT     300
GEOM_OPT_TOL_DISPLACEMENT 1200
GEOM_OPT_TOL_ENERGY       100
SYMMETRY                  False
THRESH                    12
SCF_CONVERGENCE           8
MAX_SUB_FILE_NUM          128
MEM_STATIC                400
MEM_TOTAL                 4000
$end
--------------------------------------------------------------

   16   -1510.2801241370      6.71E-09 Convergence criterion met
 Total energy in the final basis set = -1510.28012414
   14   -1510.2816660969      3.17E-09 Convergence criterion met
 Total energy in the final basis set = -1510.28166610
   14   -1510.2825577600      4.13E-09 Convergence criterion met
 Total energy in the final basis set = -1510.28255776
   13   -1510.2836493248      6.05E-09 Convergence criterion met
 Total energy in the final basis set = -1510.28364932
   13   -1510.2847536531      4.04E-09 Convergence criterion met
 Total energy in the final basis set = -1510.28475365
   13   -1510.2854358071      9.17E-09 Convergence criterion met
 Total energy in the final basis set = -1510.28543581
   13   -1510.2863918275      7.76E-09 Convergence criterion met
 Total energy in the final basis set = -1510.28639183
   13   -1510.2869676149      5.55E-09 Convergence criterion met
   12   -1510.2924367237      5.88E-09 Convergence criterion met
 Total energy in the final basis set = -1510.29243672
   12   -1510.2924468551      3.71E-09 Convergence criterion met
 Total energy in the final basis set = -1510.29244686
   11   -1510.2924609135      6.89E-09 Convergence criterion met
 Total energy in the final basis set = -1510.29246091
   11   -1510.2924626148      4.59E-09 Convergence criterion met
 Total energy in the final basis set = -1510.29246261
   11   -1510.2924775776      1.90E-09 Convergence criterion met
 Total energy in the final basis set = -1510.29247758
    9   -1510.2924654173      4.97E-09 Convergence criterion met
 Total energy in the final basis set = -1510.29246542

             Standard Nuclear Orientation (Angstroms)
    I     Atom           X                Y                Z
 ----------------------------------------------------------------
    1      O       3.8760195061    -2.1041027095     1.6694829175
    2      C       3.6127452174    -1.5407727623     0.5853106513
    3      C       4.5430433608    -0.5727792900    -0.2278994337
    4      C       3.8491711696     0.7945784169    -0.6391204847
    5      C       2.3699516717     0.9128462718    -0.1454906925
    6      O       1.5259497630     1.0585109441    -1.3016279356
    7      C       0.1058710483     1.1240699042    -0.8837630887
    8      C      -0.6584073668    -0.0995092651    -1.5044892316
    9      O      -2.0657472694    -0.1764875763    -1.0394786934
   10      C      -2.1570196583    -0.7938700060     0.2469040407
   11      C      -3.6690871474    -1.0138649507     0.5858204442
   12      C      -4.5703245974     0.2841931773     0.4681128974
   13      C      -3.7857931304     1.6098238659     0.1693407863
   14      O      -4.0294726607     2.4531593735    -0.7185874780
   15      O       2.3896291089    -1.6974710375    -0.1401860085
   16      O      -2.7460280439     1.7368058677     1.1490787598
   17      O      -1.1801375289    -1.1578514551     0.9403534569
   18      C      -2.0732951047     3.0493899130     1.0200116884
   19      C      -4.3604767236    -1.9376877674    -0.5129269430
   20      C      -5.7651667026    -2.4106267934     0.0363097725
   21      C      -6.6270639777    -1.1072151378    -0.1587271676
   22      C      -5.5401681009    -0.1127101876    -0.7224884225
   23      O      -4.7029785413    -0.9792009238    -1.5852323434
   24      H      -3.7230112586    -1.4586176903     1.5947453129
   25      H      -5.1352386344     0.4381003718     1.4064917172
   26      H      -3.7130922327    -2.7459451184    -0.9051269841
   27      H      -6.1516806786    -3.2462037559    -0.5684827293
   28      H      -5.7110493348    -2.7320424567     1.0887749786
   29      H      -7.4268965353    -1.2613264108    -0.9003278347
   30      H      -7.0787247029    -0.7480849055     0.7797400497
   31      H      -5.9207899529     0.7542819976    -1.2969057503
   32      O       1.9512968541     0.9359019210     1.0329163018
   33      C       1.4416375279    -2.5639938625     0.6047530600
   34      C       5.7413033974    -0.0534151095     0.6668181839
   35      C       6.8428844741     0.5669552826    -0.2776694315
   36      C       6.1578011993     1.9213793682    -0.6933758218
   37      C       4.7963830588     1.8334361919     0.1045455000
   38      O       5.1658323086     1.1284689597     1.3520288721
   39      H       4.9017955571    -1.1104035551    -1.1251299306
   40      H       3.8582170994     0.9372698148    -1.7336193452
   41      H       0.4915526881    -2.0020634233     0.7592006606
   42      H       6.0972786554    -0.7947195112     1.4087977288
   43      H       7.7757988969     0.7411780745     0.2818227125
   44      H       7.0649121614    -0.0809832174    -1.1409026569
   45      H       6.7441646656     2.7911598130    -0.3573106402
   46      H       5.9962451613     2.0017750664    -1.7802425570
   47      H       4.3195796012     2.8057802848     0.3350848660
   48      H       1.8906426441    -2.8481945724     1.5765546674
   49      H       1.2481021742    -3.4742231745     0.0034881606
   50      H      -1.1323594168     2.9765081535     1.5958902389
   51      H      -2.7021256688     3.8593565699     1.4439726826
   52      H      -1.8530395938     3.2940153462    -0.0376565640
   53      H      -0.7197612015     0.0066402460    -2.6061184294
   54      H      -0.1059132281    -1.0303973764    -1.2590879704
   55      H      -0.3276415098     2.0767125635    -1.2503573132
   56      H       0.0678150844     1.0863548598     0.2270207263
 ----------------------------------------------------------------

    9   -1510.2924654834      3.61E-09 Convergence criterion met
 Total energy in the final basis set = -1510.29246548
 Final energy is   -1510.29246548344
 **  OPTIMIZATION CONVERGED  **

                    Orbital Energies (a.u.)
 --------------------------------------------------------------

 Alpha MOs
 -- Occupied --
-18.943 -18.936 -18.929 -18.925 -18.891 -18.886 -18.885 -18.880
-18.872 -18.872 -10.110 -10.103 -10.097 -10.095 -10.073 -10.066
-10.065 -10.063 -10.060 -10.059 -10.055 -10.043 -10.041 -10.037
-10.035 -10.035 -10.023 -10.022 -10.019 -10.018  -1.021  -1.012
 -1.010  -1.002  -0.973  -0.968  -0.945  -0.940  -0.933  -0.930
 -0.767  -0.762  -0.730  -0.722  -0.712  -0.706  -0.695  -0.665
 -0.649  -0.617  -0.599  -0.583  -0.548  -0.543  -0.540  -0.535
 -0.516  -0.507  -0.487  -0.475  -0.468  -0.458  -0.449  -0.447
 -0.437  -0.433  -0.428  -0.416  -0.411  -0.409  -0.403  -0.399
 -0.394  -0.379  -0.377  -0.366  -0.363  -0.357  -0.356  -0.351
 -0.349  -0.336  -0.335  -0.330  -0.328  -0.326  -0.324  -0.313
 -0.308  -0.308  -0.303  -0.302  -0.295  -0.291  -0.285  -0.278
 -0.269  -0.256  -0.255  -0.244  -0.241  -0.237  -0.232  -0.190
 -0.180  -0.172  -0.165  -0.161  -0.158  -0.155  -0.150  -0.146
 -0.142

          Ground-State Mulliken Net Atomic Charges

     Atom                 Charge (a.u.)
  ----------------------------------------
      1 O                    -0.210394
      2 C                     0.214226
      3 C                    -0.077977
      4 C                    -0.078591
      5 C                     0.214066
      6 O                    -0.173579
      7 C                    -0.059583
      8 C                    -0.049894
      9 O                    -0.165821
     10 C                     0.218941
     11 C                    -0.077722
     12 C                    -0.078176
     13 C                     0.214089
     14 O                    -0.210569
     15 O                    -0.178152
     16 O                    -0.173337
     17 O                    -0.213002
     18 C                    -0.130075
     19 C                     0.026264
     20 C                    -0.144136
     21 C                    -0.143581
     22 C                     0.024535
     23 O                    -0.185610
     24 H                     0.087538
     25 H                     0.085508
     26 H                     0.082062
     27 H                     0.078698
     28 H                     0.074434
     29 H                     0.078816
     30 H                     0.073731
     31 H                     0.091330
     32 O                    -0.213078
     33 C                    -0.153394
     34 C                     0.024292
     35 C                    -0.144033
     36 C                    -0.143921
     37 C                     0.025701
     38 O                    -0.186182
     39 H                     0.084485
     40 H                     0.086362
     41 H                     0.109924
     42 H                     0.091256
     43 H                     0.078191
     44 H                     0.072870
     45 H                     0.077894
     46 H                     0.073255
     47 H                     0.082645
     48 H                     0.097629
     49 H                     0.074662
     50 H                     0.094782
     51 H                     0.086104
     52 H                     0.091622
     53 H                     0.093074
     54 H                     0.094998
     55 H                     0.081257
     56 H                     0.105564
  ----------------------------------------
  Sum of atomic charges =     0.000000

                    Cartesian Multipole Moments
 -----------------------------------------------------------------
    Charge (ESU x 10^10)
                 0.0000
    Dipole Moment (Debye)
         X      -1.1959      Y      -0.0537      Z      -1.4922
       Tot       1.9131
    Quadrupole Moments (Debye-Ang)
        XX    -143.9439     XY       7.7405     YY    -153.9151
        XZ     -20.6375     YZ       3.0127     ZZ    -169.0949

 Total job time:  94.66s(wall), 4508.57s(cpu)
        *  Thank you very much for using Q-Chem.  Have a nice day.  *
