 Q-Chem 5.0, Q-Chem, Inc., Pleasanton, CA (2017)
 Q-Chem 5.0.1 for Intel X86 EM64T Linux

User input:
--------------------------------------------------------------
$molecule
0  1
O -3.94934 -3.66094 2.70899
C -3.26408 -4.56952 2.26188
C -3.36658 -6.02376 2.66595
C -2.06004 -6.83259 2.71698
C -0.77685 -6.0535 2.53123
O 0.12237 -6.80173 1.82627
C 1.35464 -6.11625 1.57953
C 1.14935 -5.02641 0.53252
O 2.2081 -4.05968 0.61829
C 2.89281 -4.04709 1.78884
C 4.00035 -3.0207 1.81161
C 5.02653 -3.1504 0.67653
C 4.61557 -4.02792 -0.48872
O 4.73599 -3.73912 -1.67052
O -2.55588 -4.32762 1.12633
O 4.39383 -5.33646 -0.18437
O 2.27284 -4.00138 2.8472
C 4.1586 -6.32714 -1.1156
C 3.53198 -1.56462 1.60664
C 4.54902 -0.61102 2.22953
C 5.71501 -0.77925 1.27514
C 5.07399 -1.68135 0.21212
O 3.71287 -1.32252 0.23206
H 4.51 -3.10618 2.80097
H 6.00136 -3.54169 1.04245
H 2.51497 -1.36645 2.00999
H 4.13696 0.41694 2.11045
H 4.78508 -0.78619 3.30117
H 5.97021 0.21907 0.85559
H 6.6205 -1.25497 1.71052
H 5.5984 -1.55689 -0.76043
O -0.5038 -5.0259 3.14329
C -2.42159 -3.08652 0.53927
C -3.86268 -6.18622 4.11525
C -4.43716 -7.58865 4.32194
C -3.16673 -8.40954 4.35614
C -2.11847 -7.308 4.18393
O -2.67738 -6.21312 4.86834
H -4.08978 -6.48111 1.95452
H -2.06307 -7.71283 2.03338
H -1.92825 -2.38334 1.24395
H -4.61579 -5.42452 4.41272
H -4.90991 -7.6286 5.32921
H -5.17872 -7.89015 3.55103
H -3.06281 -8.85341 5.37169
H -3.09335 -9.20912 3.58777
H -1.13082 -7.66158 4.55575
H -3.41708 -2.69022 0.24599
H -1.79328 -3.18016 -0.37008
H 4.00607 -7.29183 -0.59001
H 5.02962 -6.42637 -1.79788
H 3.24659 -6.09093 -1.70384
H 1.07319 -5.46585 -0.48444
H 0.2156 -4.4596 0.71704
H 2.08053 -6.82585 1.12907
H 1.75917 -6.02944 2.59882
$end

$opt
CONSTRAINT
tors           1           2           3           4    -144.503
tors           3           4           5           6    -143.769
tors           4           5           6           7    +178.492
tors           5           6           7           8     -72.375
tors           6           7           8           9    +159.961
tors           7           8           9          10     -19.450
tors           8           9          10          11    +179.401
tors           9          10          11          12     -56.117
tors          11          12          13          14    +133.810
ENDCONSTRAINT
$end

$rem
JOBTYPE                   OPT
METHOD                    B3LYP
DFT_D                     d3_op
BASIS                     STO-3G
GEOM_OPT_MAX_CYCLES       100
GEOM_OPT_TOL_GRADIENT     300
GEOM_OPT_TOL_DISPLACEMENT 1200
GEOM_OPT_TOL_ENERGY       100
SYMMETRY                  False
THRESH                    12
SCF_CONVERGENCE           8
MAX_SUB_FILE_NUM          128
MEM_STATIC                400
MEM_TOTAL                 4000
$end
--------------------------------------------------------------

   16   -1510.0894986753      4.23E-09 Convergence criterion met
 Total energy in the final basis set = -1510.08949868
   14   -1510.1686415908      6.09E-09 Convergence criterion met
 Total energy in the final basis set = -1510.16864159
   14   -1510.2147055773      8.25E-09 Convergence criterion met
 Total energy in the final basis set = -1510.21470558
   15   -1510.2436453746      2.89E-09 Convergence criterion met
 Total energy in the final basis set = -1510.24364537
   14   -1510.2590539489      4.67E-09 Convergence criterion met
 Total energy in the final basis set = -1510.25905395
   13   -1510.2677134662      7.72E-09 Convergence criterion met
 Total energy in the final basis set = -1510.26771347
   13   -1510.2727781481      5.08E-09 Convergence criterion met
 Total energy in the final basis set = -1510.27277815
   13   -1510.2757272555      3.52E-09 Convergence criterion met
   11   -1510.2787456747      7.00E-09 Convergence criterion met
 Total energy in the final basis set = -1510.27874567
   10   -1510.2787604464      9.85E-09 Convergence criterion met
 Total energy in the final basis set = -1510.27876045
    9   -1510.2787711486      9.43E-09 Convergence criterion met
 Total energy in the final basis set = -1510.27877115
    9   -1510.2787785342      8.14E-09 Convergence criterion met
 Total energy in the final basis set = -1510.27877853
    9   -1510.2787797100      2.27E-09 Convergence criterion met
 Total energy in the final basis set = -1510.27877971
    9   -1510.2787807609      2.62E-09 Convergence criterion met
 Total energy in the final basis set = -1510.27878076

             Standard Nuclear Orientation (Angstroms)
    I     Atom           X                Y                Z
 ----------------------------------------------------------------
    1      O       3.7223739094    -2.8010986017    -0.6730224060
    2      C       3.4910265706    -1.5969600416    -0.9124827632
    3      C       4.4740381336    -0.3953378560    -0.6756848760
    4      C       3.8192802630     0.9677839406    -0.2111184750
    5      C       2.3283041442     0.8094847903     0.2391380342
    6      O       1.6101677389     1.9815639606    -0.1708428751
    7      C       0.1795332022     1.8679826258     0.2000500003
    8      C      -0.5461751575     0.8162716419    -0.7317871998
    9      O      -1.8278201057     0.2121630612    -0.2754995378
   10      C      -2.1421450561     0.2617543755     1.1145661351
   11      C      -3.5425261750    -0.4325637636     1.2755695602
   12      C      -4.6851283085     0.2098235273     0.3845249568
   13      C      -4.2239503881     1.4518124633    -0.4565358094
   14      O      -4.4541613616     1.6826645953    -1.6616894175
   15      O       2.3326422633    -1.1335119058    -1.6234311423
   16      O      -3.5351622914     2.3588069741     0.4177659972
   17      O      -1.4303598876     0.6808132610     2.0567407839
   18      C      -3.1018467130     3.5563968189    -0.3365368303
   19      C      -3.5290699715    -1.9157836625     0.6975393187
   20      C      -4.8208302427    -2.6676135321     1.2119363115
   21      C      -5.9317114593    -2.0278381260     0.2974392539
   22      C      -5.0749694537    -1.0088702722    -0.5495226831
   23      O      -3.7902092909    -1.7209119140    -0.7460134420
   24      H      -3.8016945433    -0.4105856500     2.3482485629
   25      H      -5.5383929757     0.5241888328     1.0140665788
   26      H      -2.5766001504    -2.4598036528     0.8502637612
   27      H      -4.7283750587    -3.7515519351     1.0384834745
   28      H      -5.0014731084    -2.4963448420     2.2852724744
   29      H      -6.3946760751    -2.7806387970    -0.3601937052
   30      H      -6.7242028200    -1.5276869173     0.8766414423
   31      H      -5.5032289478    -0.7046286112    -1.5244836861
   32      O       1.8330095488    -0.1262266062     0.9042284436
   33      C       1.4243127829    -2.2715725190    -1.8985959821
   34      C       5.5028404459    -0.6713708141     0.4994992935
   35      C       6.7665991851     0.2395372837     0.2548253630
   36      C       6.1765832483     1.6598132789     0.5926005509
   37      C       4.7154192080     1.2848729288     1.0665308441
   38      O       4.8681253855    -0.0509768531     1.6861733892
   39      H       5.0133575365    -0.2420164081    -1.6299290318
   40      H       3.8856745303     1.7547832086    -0.9819246759
   41      H       0.9751131389    -2.6631607809    -0.9629187655
   42      H       5.7015256499    -1.7464607281     0.6774228595
   43      H       7.5776541710    -0.0346293278     0.9483515847
   44      H       7.1435365499     0.1673890168    -0.7777988723
   45      H       6.7335787088     2.1492828808     1.4071143471
   46      H       6.1641969151     2.3313527138    -0.2808055030
   47      H       4.2555370211     1.9951727413     1.7809041688
   48      H       1.9532538059    -3.1011827716    -2.4098520841
   49      H       0.6255969791    -1.8776017931    -2.5537483945
   50      H      -2.5618729517     4.1947565708     0.3867022641
   51      H      -3.9675291148     4.1136237358    -0.7492264509
   52      H      -2.4270779807     3.2884084291    -1.1747374183
   53      H      -0.7789460891     1.2685873346    -1.7187301962
   54      H       0.1641080757    -0.0216362891    -0.9032825584
   55      H      -0.2473478265     2.8786936957     0.0597798775
   56      H       0.0225805854     1.5364973020     1.2512884740
 ----------------------------------------------------------------

    8   -1510.2787810599      5.43E-09 Convergence criterion met
 Total energy in the final basis set = -1510.27878106
 Final energy is   -1510.27878105994
 **  OPTIMIZATION CONVERGED  **

                    Orbital Energies (a.u.)
 --------------------------------------------------------------

 Alpha MOs
 -- Occupied --
-18.937 -18.935 -18.932 -18.929 -18.887 -18.886 -18.879 -18.878
-18.874 -18.869 -10.106 -10.102 -10.098 -10.095 -10.069 -10.067
-10.062 -10.060 -10.059 -10.058 -10.056 -10.056 -10.039 -10.037
-10.036 -10.035 -10.020 -10.020 -10.019 -10.018  -1.017  -1.012
 -1.007  -1.003  -0.969  -0.969  -0.940  -0.939  -0.935  -0.931
 -0.764  -0.762  -0.727  -0.722  -0.710  -0.704  -0.692  -0.666
 -0.660  -0.619  -0.597  -0.586  -0.547  -0.544  -0.537  -0.536
 -0.512  -0.509  -0.481  -0.475  -0.465  -0.460  -0.451  -0.444
 -0.436  -0.430  -0.430  -0.415  -0.410  -0.409  -0.407  -0.389
 -0.389  -0.378  -0.373  -0.369  -0.360  -0.358  -0.354  -0.350
 -0.344  -0.339  -0.337  -0.331  -0.330  -0.326  -0.324  -0.311
 -0.310  -0.305  -0.304  -0.297  -0.296  -0.289  -0.284  -0.278
 -0.272  -0.263  -0.255  -0.251  -0.234  -0.232  -0.232  -0.185
 -0.181  -0.174  -0.170  -0.157  -0.154  -0.148  -0.144  -0.143
 -0.141

          Ground-State Mulliken Net Atomic Charges

     Atom                 Charge (a.u.)
  ----------------------------------------
      1 O                    -0.211383
      2 C                     0.214698
      3 C                    -0.079099
      4 C                    -0.078623
      5 C                     0.212807
      6 O                    -0.174008
      7 C                    -0.068691
      8 C                    -0.055204
      9 O                    -0.170026
     10 C                     0.221592
     11 C                    -0.077802
     12 C                    -0.078389
     13 C                     0.215453
     14 O                    -0.211322
     15 O                    -0.174881
     16 O                    -0.173177
     17 O                    -0.210181
     18 C                    -0.128833
     19 C                     0.026112
     20 C                    -0.143977
     21 C                    -0.143889
     22 C                     0.024364
     23 O                    -0.186498
     24 H                     0.085657
     25 H                     0.084783
     26 H                     0.083569
     27 H                     0.078223
     28 H                     0.074185
     29 H                     0.078133
     30 H                     0.073037
     31 H                     0.090013
     32 O                    -0.212922
     33 C                    -0.130167
     34 C                     0.024497
     35 C                    -0.143020
     36 C                    -0.144548
     37 C                     0.025578
     38 O                    -0.187003
     39 H                     0.083824
     40 H                     0.086225
     41 H                     0.091934
     42 H                     0.091438
     43 H                     0.078333
     44 H                     0.072923
     45 H                     0.078179
     46 H                     0.073426
     47 H                     0.083301
     48 H                     0.091160
     49 H                     0.091228
     50 H                     0.091219
     51 H                     0.089915
     52 H                     0.087804
     53 H                     0.084486
     54 H                     0.093736
     55 H                     0.080853
     56 H                     0.120959
  ----------------------------------------
  Sum of atomic charges =     0.000000

                    Cartesian Multipole Moments
 -----------------------------------------------------------------
    Charge (ESU x 10^10)
                 0.0000
    Dipole Moment (Debye)
         X      -0.7325      Y       1.7512      Z      -1.0702
       Tot       2.1791
    Quadrupole Moments (Debye-Ang)
        XX    -141.5518     XY       9.0699     YY    -155.4324
        XZ     -13.8119     YZ       0.3488     ZZ    -166.0601

 Total job time:  61.43s(wall), 2923.26s(cpu)
        *  Thank you very much for using Q-Chem.  Have a nice day.  *
