 Q-Chem 5.0, Q-Chem, Inc., Pleasanton, CA (2017)
 Q-Chem 5.0.1 for Intel X86 EM64T Linux

User input:
--------------------------------------------------------------
$molecule
0  1
O 3.7223739094 -2.8010986017 -0.673022406
C 3.4910265706 -1.5969600416 -0.9124827632
C 4.4740381336 -0.395337856 -0.675684876
C 3.819280263 0.9677839406 -0.211118475
C 2.3283041442 0.8094847903 0.2391380342
O 1.6101677389 1.9815639606 -0.1708428751
C 0.1795332022 1.8679826258 0.2000500003
C -0.5461751575 0.8162716419 -0.7317871998
O -1.8278201057 0.2121630612 -0.2754995378
C -2.1421450561 0.2617543755 1.1145661351
C -3.542526175 -0.4325637636 1.2755695602
C -4.6851283085 0.2098235273 0.3845249568
C -4.2239503881 1.4518124633 -0.4565358094
O -4.4541613616 1.6826645953 -1.6616894175
O 2.3326422633 -1.1335119058 -1.6234311423
O -3.5351622914 2.3588069741 0.4177659972
O -1.4303598876 0.680813261 2.0567407839
C -3.101846713 3.5563968189 -0.3365368303
C -3.5290699715 -1.9157836625 0.6975393187
C -4.8208302427 -2.6676135321 1.2119363115
C -5.9317114593 -2.027838126 0.2974392539
C -5.0749694537 -1.0088702722 -0.5495226831
O -3.7902092909 -1.720911914 -0.746013442
H -3.8016945433 -0.41058565 2.3482485629
H -5.5383929757 0.5241888328 1.0140665788
H -2.5766001504 -2.4598036528 0.8502637612
H -4.7283750587 -3.7515519351 1.0384834745
H -5.0014731084 -2.496344842 2.2852724744
H -6.3946760751 -2.780638797 -0.3601937052
H -6.72420282 -1.5276869173 0.8766414423
H -5.5032289478 -0.7046286112 -1.5244836861
O 1.8330095488 -0.1262266062 0.9042284436
C 1.4243127829 -2.271572519 -1.8985959821
C 5.5028404459 -0.6713708141 0.4994992935
C 6.7665991851 0.2395372837 0.254825363
C 6.1765832483 1.6598132789 0.5926005509
C 4.715419208 1.2848729288 1.0665308441
O 4.8681253855 -0.0509768531 1.6861733892
H 5.0133575365 -0.2420164081 -1.6299290318
H 3.8856745303 1.7547832086 -0.9819246759
H 0.9751131389 -2.6631607809 -0.9629187655
H 5.7015256499 -1.7464607281 0.6774228595
H 7.577654171 -0.0346293278 0.9483515847
H 7.1435365499 0.1673890168 -0.7777988723
H 6.7335787088 2.1492828808 1.4071143471
H 6.1641969151 2.3313527138 -0.280805503
H 4.2555370211 1.9951727413 1.7809041688
H 1.9532538059 -3.1011827716 -2.4098520841
H 0.6255969791 -1.8776017931 -2.5537483945
H -2.5618729517 4.1947565708 0.3867022641
H -3.9675291148 4.1136237358 -0.7492264509
H -2.4270779807 3.2884084291 -1.1747374183
H -0.7789460891 1.2685873346 -1.7187301962
H 0.1641080757 -0.0216362891 -0.9032825584
H -0.2473478265 2.8786936957 0.0597798775
H 0.0225805854 1.536497302 1.251288474
$end

$rem
JOBTYPE                   OPT
METHOD                    B3LYP
DFT_D                     d3_op
BASIS                     STO-3G
GEOM_OPT_MAX_CYCLES       100
GEOM_OPT_TOL_GRADIENT     300
GEOM_OPT_TOL_DISPLACEMENT 1200
GEOM_OPT_TOL_ENERGY       100
SYMMETRY                  False
THRESH                    12
SCF_CONVERGENCE           8
MAX_SUB_FILE_NUM          128
MEM_STATIC                400
MEM_TOTAL                 4000
$end
--------------------------------------------------------------

   16   -1510.2788360075      5.30E-09 Convergence criterion met
 Total energy in the final basis set = -1510.27883601
   14   -1510.2801634746      2.91E-09 Convergence criterion met
 Total energy in the final basis set = -1510.28016347
   14   -1510.2810291599      4.54E-09 Convergence criterion met
 Total energy in the final basis set = -1510.28102916
   13   -1510.2821828175      4.52E-09 Convergence criterion met
 Total energy in the final basis set = -1510.28218282
   13   -1510.2834293291      3.49E-09 Convergence criterion met
 Total energy in the final basis set = -1510.28342933
   13   -1510.2841475461      4.90E-09 Convergence criterion met
 Total energy in the final basis set = -1510.28414755
   13   -1510.2848320340      7.17E-09 Convergence criterion met
 Total energy in the final basis set = -1510.28483203
   13   -1510.2856645074      9.17E-09 Convergence criterion met
   12   -1510.2924572771      4.46E-09 Convergence criterion met
 Total energy in the final basis set = -1510.29245728
   12   -1510.2924784825      3.83E-09 Convergence criterion met
 Total energy in the final basis set = -1510.29247848
   11   -1510.2924907587      9.63E-09 Convergence criterion met
 Total energy in the final basis set = -1510.29249076
   11   -1510.2925108728      5.26E-09 Convergence criterion met
 Total energy in the final basis set = -1510.29251087
   10   -1510.2924987704      9.96E-09 Convergence criterion met
 Total energy in the final basis set = -1510.29249877
   10   -1510.2925137414      5.58E-09 Convergence criterion met
 Total energy in the final basis set = -1510.29251374

             Standard Nuclear Orientation (Angstroms)
    I     Atom           X                Y                Z
 ----------------------------------------------------------------
    1      O       3.8946892047    -2.0472682571     1.7614866441
    2      C       3.6367920458    -1.5042118137     0.6657422869
    3      C       4.5663886006    -0.5413987623    -0.1544140748
    4      C       3.8629788691     0.8099536197    -0.6010757972
    5      C       2.3765787949     0.9210203598    -0.1275810042
    6      O       1.5442192194     1.0295944534    -1.2962020625
    7      C       0.1188620932     1.0865987665    -0.8953090455
    8      C      -0.6245839012    -0.1575448025    -1.5001350215
    9      O      -2.0369784491    -0.2393851546    -1.0514741969
   10      C      -2.1387469111    -0.8321507207     0.2456151069
   11      C      -3.6529231616    -1.0591067619     0.5705546602
   12      C      -4.5618840833     0.2311406344     0.4274211674
   13      C      -3.7848555492     1.5574537195     0.1127283224
   14      O      -4.0278906699     2.3831998109    -0.7917777897
   15      O       2.4229354362    -1.6850039962    -0.0694766299
   16      O      -2.7538153633     1.7095050185     1.0980197958
   17      O      -1.1676149840    -1.1731532683     0.9585641145
   18      C      -2.0907265161     3.0252075405     0.9514609060
   19      C      -4.3269937391    -2.0020456553    -0.5228001236
   20      C      -5.7321162651    -2.4804490094     0.0205126920
   21      C      -6.6026633808    -1.1859788199    -0.1950530591
   22      C      -5.5201022349    -0.1897378989    -0.7640259260
   23      O      -4.6691769120    -1.0598348716    -1.6095031049
   24      H      -3.7142834057    -1.4910209051     1.5846425553
   25      H      -5.1341961932     0.3954100610     1.3595353233
   26      H      -3.6695524620    -2.8093225078    -0.9000840786
   27      H      -6.1071549817    -3.3252579803    -0.5786590509
   28      H      -5.6839015211    -2.7906313691     1.0766226776
   29      H      -7.3969297761    -1.3551128646    -0.9393323396
   30      H      -7.0623933089    -0.8193148371     0.7365469808
   31      H      -5.9038907366     0.6664188681    -1.3524060638
   32      O       1.9440814547     0.9652435350     1.0452139788
   33      C       1.4757637994    -2.5489938894     0.6794164471
   34      C       5.7474916860     0.0085860399     0.7449271924
   35      C       6.8545566700     0.6221930157    -0.1975813340
   36      C       6.1600625246     1.9602716202    -0.6494105920
   37      C       4.7898307675     1.8735117888     0.1333618307
   38      O       5.1506203485     1.1974806948     1.3990354432
   39      H       4.9421319813    -1.0922083538    -1.0365617427
   40      H       3.8838553138     0.9312332719    -1.6979916559
   41      H       0.5192036312    -1.9936952548     0.8169956239
   42      H       6.1015659554    -0.7139645340     1.5060761695
   43      H       7.7779296897     0.8183740661     0.3703467440
   44      H       7.0949523280    -0.0401363557    -1.0447481881
   45      H       6.7327511558     2.8432022183    -0.3241999218
   46      H       6.0111433353     2.0167193972    -1.7395604515
   47      H       4.2998703031     2.8450605295     0.3382871615
   48      H       1.9183643880    -2.8157942691     1.6590753983
   49      H       1.2954975861    -3.4690909927     0.0891692382
   50      H      -1.1509467912     2.9682918785     1.5309838271
   51      H      -2.7272201672     3.8363000024     1.3616010250
   52      H      -1.8694701515     3.2558172376    -0.1091669697
   53      H      -0.6729149007    -0.0745094006    -2.6043988753
   54      H      -0.0660553988    -1.0775138823    -1.2288712703
   55      H      -0.3217363908     2.0266214692    -1.2853038901
   56      H       0.0691500811     1.0705822635     0.2155480488
 ----------------------------------------------------------------

    9   -1510.2925135540      8.90E-09 Convergence criterion met
 Total energy in the final basis set = -1510.29251355
 Final energy is   -1510.29251355402
 **  OPTIMIZATION CONVERGED  **

                    Orbital Energies (a.u.)
 --------------------------------------------------------------

 Alpha MOs
 -- Occupied --
-18.943 -18.936 -18.929 -18.925 -18.891 -18.886 -18.885 -18.880
-18.872 -18.872 -10.110 -10.103 -10.097 -10.095 -10.073 -10.066
-10.065 -10.063 -10.060 -10.059 -10.055 -10.043 -10.041 -10.037
-10.035 -10.035 -10.023 -10.022 -10.019 -10.018  -1.021  -1.012
 -1.010  -1.002  -0.973  -0.968  -0.945  -0.940  -0.933  -0.930
 -0.767  -0.762  -0.730  -0.722  -0.712  -0.706  -0.695  -0.665
 -0.649  -0.617  -0.599  -0.583  -0.548  -0.543  -0.540  -0.535
 -0.516  -0.507  -0.487  -0.475  -0.468  -0.458  -0.449  -0.447
 -0.438  -0.433  -0.428  -0.416  -0.411  -0.409  -0.403  -0.399
 -0.394  -0.379  -0.378  -0.366  -0.363  -0.357  -0.356  -0.351
 -0.350  -0.336  -0.335  -0.330  -0.328  -0.326  -0.324  -0.313
 -0.308  -0.308  -0.303  -0.302  -0.295  -0.291  -0.285  -0.278
 -0.269  -0.256  -0.255  -0.244  -0.241  -0.237  -0.232  -0.190
 -0.180  -0.172  -0.165  -0.161  -0.158  -0.155  -0.150  -0.146
 -0.142

          Ground-State Mulliken Net Atomic Charges

     Atom                 Charge (a.u.)
  ----------------------------------------
      1 O                    -0.210420
      2 C                     0.214247
      3 C                    -0.077987
      4 C                    -0.078594
      5 C                     0.214106
      6 O                    -0.173556
      7 C                    -0.059603
      8 C                    -0.049917
      9 O                    -0.165822
     10 C                     0.218923
     11 C                    -0.077752
     12 C                    -0.078175
     13 C                     0.214032
     14 O                    -0.210538
     15 O                    -0.178109
     16 O                    -0.173279
     17 O                    -0.212992
     18 C                    -0.130125
     19 C                     0.026295
     20 C                    -0.144127
     21 C                    -0.143612
     22 C                     0.024521
     23 O                    -0.185613
     24 H                     0.087505
     25 H                     0.085530
     26 H                     0.082076
     27 H                     0.078689
     28 H                     0.074421
     29 H                     0.078819
     30 H                     0.073726
     31 H                     0.091335
     32 O                    -0.213220
     33 C                    -0.153444
     34 C                     0.024284
     35 C                    -0.144041
     36 C                    -0.143936
     37 C                     0.025749
     38 O                    -0.186217
     39 H                     0.084488
     40 H                     0.086327
     41 H                     0.110069
     42 H                     0.091281
     43 H                     0.078211
     44 H                     0.072898
     45 H                     0.077880
     46 H                     0.073251
     47 H                     0.082645
     48 H                     0.097596
     49 H                     0.074663
     50 H                     0.094842
     51 H                     0.086091
     52 H                     0.091733
     53 H                     0.093052
     54 H                     0.094997
     55 H                     0.081247
     56 H                     0.105548
  ----------------------------------------
  Sum of atomic charges =     0.000000

                    Cartesian Multipole Moments
 -----------------------------------------------------------------
    Charge (ESU x 10^10)
                 0.0000
    Dipole Moment (Debye)
         X      -1.1699      Y      -0.1041      Z      -1.5037
       Tot       1.9081
    Quadrupole Moments (Debye-Ang)
        XX    -143.6865     XY       7.4704     YY    -153.6769
        XZ     -20.5501     YZ       2.6294     ZZ    -169.6811

 Total job time:  97.13s(wall), 4628.40s(cpu)
        *  Thank you very much for using Q-Chem.  Have a nice day.  *
