 Q-Chem 5.0, Q-Chem, Inc., Pleasanton, CA (2017)
 Q-Chem 5.0.1 for Intel X86 EM64T Linux

User input:
--------------------------------------------------------------
$molecule
0  1
O -3.94934 -3.66094 2.70899
C -3.26408 -4.56952 2.26188
C -3.36658 -6.02376 2.66595
C -2.0498 -6.78725 2.88277
C -0.78001 -5.96609 2.84499
O 0.2221 -6.6878 2.2616
C 1.46013 -5.97312 2.18571
C 1.36377 -4.86407 1.14318
O 2.48206 -3.97214 1.27268
C 3.15637 -4.04908 2.44678
C 4.31912 -3.08831 2.52154
C 5.00461 -2.79595 1.17881
C 4.23284 -3.20436 -0.05985
O 4.09718 -2.52441 -1.06673
O -2.48946 -4.31598 1.17361
O 4.20648 -4.55885 -0.25568
O 2.58892 -4.0772 3.5315
C 3.85142 -5.17843 -1.4377
C 3.91839 -1.647 2.93256
C 5.1233 -0.94284 3.55273
C 6.00015 -0.76175 2.33196
C 5.04656 -1.25618 1.23683
O 3.76516 -0.94793 1.72335
H 5.02319 -3.48411 3.28965
H 6.01531 -3.25483 1.10582
H 3.05514 -1.59905 3.6312
H 4.76902 0.05886 3.88761
H 5.60425 -1.46223 4.40932
H 6.22192 0.3225 2.21772
H 6.94427 -1.34863 2.33351
H 5.32044 -0.79763 0.26142
O -0.61731 -4.92794 3.47876
C -2.3084 -3.0663 0.61927
C -4.04126 -6.20672 4.0373
C -4.57974 -7.63196 4.17485
C -3.29238 -8.39905 4.38442
C -2.27522 -7.25693 4.33594
O -2.96138 -6.18402 4.93546
H -3.96576 -6.50906 1.86349
H -1.94034 -7.67186 2.21357
H -1.85027 -2.38181 1.36502
H -4.85676 -5.47606 4.2292
H -5.18278 -7.69337 5.10868
H -5.19602 -7.96266 3.31113
H -3.30257 -8.82764 5.41176
H -3.08936 -9.20357 3.64505
H -1.32988 -7.56892 4.83358
H -3.28086 -2.65344 0.27591
H -1.62738 -3.15083 -0.25227
H 3.89784 -6.27806 -1.29998
H 4.55505 -4.88941 -2.2472
H 2.81747 -4.8945 -1.72657
H 1.32386 -5.31068 0.1284
H 0.45264 -4.24646 1.27372
H 2.25002 -6.6644 1.81958
H 1.68502 -5.91236 3.25717
$end

$opt
CONSTRAINT
tors           1           2           3           4    -137.284
tors           3           4           5           6    -143.769
tors           4           5           6           7    +179.831
tors           5           6           7           8     -71.476
tors           6           7           8           9    +167.365
tors           7           8           9          10     -17.172
tors           8           9          10          11    +179.993
tors           9          10          11          12     -31.766
tors          11          12          13          14    +135.579
ENDCONSTRAINT
$end

$rem
JOBTYPE                   OPT
METHOD                    B3LYP
DFT_D                     d3_op
BASIS                     STO-3G
GEOM_OPT_MAX_CYCLES       100
GEOM_OPT_TOL_GRADIENT     300
GEOM_OPT_TOL_DISPLACEMENT 1200
GEOM_OPT_TOL_ENERGY       100
SYMMETRY                  False
THRESH                    12
SCF_CONVERGENCE           8
MAX_SUB_FILE_NUM          128
MEM_STATIC                400
MEM_TOTAL                 4000
$end
--------------------------------------------------------------

   16   -1510.0819965382      4.63E-09 Convergence criterion met
 Total energy in the final basis set = -1510.08199654
   14   -1510.1620952870      9.91E-09 Convergence criterion met
 Total energy in the final basis set = -1510.16209529
   14   -1510.2091063999      8.87E-09 Convergence criterion met
 Total energy in the final basis set = -1510.20910640
   15   -1510.2390859827      1.78E-09 Convergence criterion met
 Total energy in the final basis set = -1510.23908598
   14   -1510.2550139573      5.27E-09 Convergence criterion met
 Total energy in the final basis set = -1510.25501396
   14   -1510.2638917995      4.39E-09 Convergence criterion met
 Total energy in the final basis set = -1510.26389180
   14   -1510.2687174095      4.07E-09 Convergence criterion met
 Total energy in the final basis set = -1510.26871741
   13   -1510.2721169940      5.44E-09 Convergence criterion met
   11   -1510.2779551106      6.64E-09 Convergence criterion met
 Total energy in the final basis set = -1510.27795511
   11   -1510.2780180258      4.77E-09 Convergence criterion met
 Total energy in the final basis set = -1510.27801803
   11   -1510.2780507269      5.50E-09 Convergence criterion met
 Total energy in the final basis set = -1510.27805073
   10   -1510.2780649319      5.48E-09 Convergence criterion met
 Total energy in the final basis set = -1510.27806493
    9   -1510.2780698067      7.98E-09 Convergence criterion met
 Total energy in the final basis set = -1510.27806981
    9   -1510.2780709780      2.31E-09 Convergence criterion met
 Total energy in the final basis set = -1510.27807098

             Standard Nuclear Orientation (Angstroms)
    I     Atom           X                Y                Z
 ----------------------------------------------------------------
    1      O       3.5499709017    -1.6671745346    -2.3584762050
    2      C       3.4107180792    -0.5767912007    -1.7656724808
    3      C       4.4515455605     0.1192199981    -0.8175435216
    4      C       3.8501070983     0.7544782072     0.5011372291
    5      C       2.3622846004     0.3393223178     0.7520602755
    6      O       1.6714284090     1.4593951450     1.3218878486
    7      C       0.2496422188     1.1227873760     1.5779692123
    8      C      -0.5430461746     1.0117107640     0.2165235674
    9      O      -1.9032673557     0.4097872673     0.2206073723
   10      C      -2.3073013124    -0.3742278212     1.3421063479
   11      C      -3.7722898004    -0.8593615805     1.0449206402
   12      C      -4.6295405454     0.1537347662     0.1840472460
   13      C      -4.0170992264     1.5962173971     0.0775256380
   14      O      -3.9162190818     2.3128071558    -0.9397720903
   15      O       2.3028984049     0.3128229274    -1.9694690126
   16      O      -3.7321783668     2.0463499035     1.4152319267
   17      O      -1.6221520901    -0.6989562926     2.3372543151
   18      C      -3.2039778622     3.4271118148     1.3827974984
   19      C      -3.6991831542    -2.0863703376     0.0295921838
   20      C      -5.1359674765    -2.7325611374    -0.1061840936
   21      C      -5.8490626902    -1.7058908346    -1.0630368334
   22      C      -4.7268644152    -0.6060069083    -1.2046204967
   23      O      -3.4834569220    -1.4099410452    -1.2691120683
   24      H      -4.2542419936    -1.1299985177     1.9999338037
   25      H      -5.6350620793     0.2643510574     0.6316575744
   26      H      -2.8797578051    -2.8021262882     0.2367514792
   27      H      -5.0676761683    -3.7335761156    -0.5606695541
   28      H      -5.6397025410    -2.8215918669     0.8697147741
   29      H      -6.0706740887    -2.1572472666    -2.0433998431
   30      H      -6.7824360751    -1.3028219947    -0.6385940406
   31      H      -4.8062840362     0.0640466503    -2.0827661500
   32      O       1.8496941728    -0.7852788554     0.5613763346
   33      C       1.3191123781    -0.3079237184    -2.8867031643
   34      C       5.5025156672    -0.9082500031    -0.2245519703
   35      C       6.7819232190    -0.0990967067     0.2180336262
   36      C       6.2351314480     0.6476033090     1.4911824581
   37      C       4.7733049496     0.0545959623     1.5944683381
   38      O       4.9047221252    -1.3220363810     1.0669765364
   39      H       4.9594702727     0.9006432417    -1.4138063630
   40      H       3.9306736794     1.8549332099     0.5193699253
   41      H       0.8739310261    -1.2229960902    -2.4448412552
   42      H       5.6811966627    -1.7891401260    -0.8718822756
   43      H       7.6004857760    -0.7895043236     0.4774205208
   44      H       7.1364426394     0.5908721343    -0.5644129435
   45      H       6.8179670231     0.3970000214     2.3916566203
   46      H       6.2265887414     1.7426393390     1.3696137955
   47      H       4.3422944712     0.0408121179     2.6145756153
   48      H       1.7792485045    -0.5741995757    -3.8599200183
   49      H       0.5273934353     0.4474422256    -3.0445171624
   50      H      -2.9960891782     3.7002938312     2.4338208038
   51      H      -3.9394556172     4.1387198687     0.9545466990
   52      H      -2.2680514442     3.4959267426     0.7920814897
   53      H      -0.6699174839     2.0170248700    -0.2370268256
   54      H       0.0741044108     0.3995473522    -0.4760450766
   55      H      -0.1480017547     1.9522091729     2.1946786431
   56      H       0.1267867373     0.1683639771     2.1321536432
 ----------------------------------------------------------------

    8   -1510.2780712687      7.61E-09 Convergence criterion met
 Total energy in the final basis set = -1510.27807127
 Final energy is   -1510.27807126866
 **  OPTIMIZATION CONVERGED  **

                    Orbital Energies (a.u.)
 --------------------------------------------------------------

 Alpha MOs
 -- Occupied --
-18.943 -18.934 -18.930 -18.926 -18.887 -18.886 -18.881 -18.874
-18.872 -18.869 -10.109 -10.099 -10.098 -10.097 -10.072 -10.064
-10.064 -10.061 -10.060 -10.060 -10.057 -10.056 -10.038 -10.037
-10.036 -10.035 -10.021 -10.020 -10.019 -10.019  -1.017  -1.012
 -1.005  -1.003  -0.970  -0.969  -0.944  -0.936  -0.932  -0.932
 -0.764  -0.762  -0.729  -0.722  -0.710  -0.704  -0.695  -0.662
 -0.659  -0.621  -0.597  -0.587  -0.546  -0.544  -0.537  -0.536
 -0.511  -0.510  -0.484  -0.475  -0.463  -0.461  -0.452  -0.442
 -0.437  -0.431  -0.430  -0.412  -0.409  -0.408  -0.406  -0.394
 -0.388  -0.379  -0.373  -0.366  -0.364  -0.358  -0.355  -0.346
 -0.346  -0.341  -0.338  -0.332  -0.331  -0.325  -0.325  -0.311
 -0.310  -0.305  -0.304  -0.300  -0.298  -0.290  -0.285  -0.275
 -0.272  -0.262  -0.252  -0.251  -0.235  -0.234  -0.233  -0.187
 -0.177  -0.173  -0.171  -0.155  -0.154  -0.149  -0.146  -0.144
 -0.142

          Ground-State Mulliken Net Atomic Charges

     Atom                 Charge (a.u.)
  ----------------------------------------
      1 O                    -0.210110
      2 C                     0.214812
      3 C                    -0.079225
      4 C                    -0.078450
      5 C                     0.213194
      6 O                    -0.172440
      7 C                    -0.062666
      8 C                    -0.053391
      9 O                    -0.166155
     10 C                     0.221561
     11 C                    -0.076591
     12 C                    -0.078545
     13 C                     0.218804
     14 O                    -0.218963
     15 O                    -0.176217
     16 O                    -0.178777
     17 O                    -0.211100
     18 C                    -0.129023
     19 C                     0.024807
     20 C                    -0.144470
     21 C                    -0.142858
     22 C                     0.024524
     23 O                    -0.188466
     24 H                     0.087066
     25 H                     0.082947
     26 H                     0.084404
     27 H                     0.078683
     28 H                     0.074049
     29 H                     0.078057
     30 H                     0.073093
     31 H                     0.090202
     32 O                    -0.213058
     33 C                    -0.130296
     34 C                     0.024427
     35 C                    -0.143227
     36 C                    -0.144404
     37 C                     0.025614
     38 O                    -0.187047
     39 H                     0.083924
     40 H                     0.086655
     41 H                     0.093834
     42 H                     0.091732
     43 H                     0.078436
     44 H                     0.072991
     45 H                     0.078276
     46 H                     0.073513
     47 H                     0.083033
     48 H                     0.089719
     49 H                     0.090938
     50 H                     0.088586
     51 H                     0.087843
     52 H                     0.084060
     53 H                     0.086275
     54 H                     0.097149
     55 H                     0.084985
     56 H                     0.117286
  ----------------------------------------
  Sum of atomic charges =     0.000000

                    Cartesian Multipole Moments
 -----------------------------------------------------------------
    Charge (ESU x 10^10)
                 0.0000
    Dipole Moment (Debye)
         X      -0.8184      Y       2.4776      Z       0.5394
       Tot       2.6644
    Quadrupole Moments (Debye-Ang)
        XX    -138.3805     XY      13.7113     YY    -160.7713
        XZ      -3.1613     YZ       3.2330     ZZ    -162.5203

 Total job time:  62.79s(wall), 2990.51s(cpu)
        *  Thank you very much for using Q-Chem.  Have a nice day.  *
