 Q-Chem 5.0, Q-Chem, Inc., Pleasanton, CA (2017)
 Q-Chem 5.0.1 for Intel X86 EM64T Linux

User input:
--------------------------------------------------------------
$molecule
0  1
O 3.5499709017 -1.6671745346 -2.358476205
C 3.4107180792 -0.5767912007 -1.7656724808
C 4.4515455605 0.1192199981 -0.8175435216
C 3.8501070983 0.7544782072 0.5011372291
C 2.3622846004 0.3393223178 0.7520602755
O 1.671428409 1.459395145 1.3218878486
C 0.2496422188 1.122787376 1.5779692123
C -0.5430461746 1.011710764 0.2165235674
O -1.9032673557 0.4097872673 0.2206073723
C -2.3073013124 -0.3742278212 1.3421063479
C -3.7722898004 -0.8593615805 1.0449206402
C -4.6295405454 0.1537347662 0.184047246
C -4.0170992264 1.5962173971 0.077525638
O -3.9162190818 2.3128071558 -0.9397720903
O 2.3028984049 0.3128229274 -1.9694690126
O -3.7321783668 2.0463499035 1.4152319267
O -1.6221520901 -0.6989562926 2.3372543151
C -3.2039778622 3.4271118148 1.3827974984
C -3.6991831542 -2.0863703376 0.0295921838
C -5.1359674765 -2.7325611374 -0.1061840936
C -5.8490626902 -1.7058908346 -1.0630368334
C -4.7268644152 -0.6060069083 -1.2046204967
O -3.483456922 -1.4099410452 -1.2691120683
H -4.2542419936 -1.1299985177 1.9999338037
H -5.6350620793 0.2643510574 0.6316575744
H -2.8797578051 -2.8021262882 0.2367514792
H -5.0676761683 -3.7335761156 -0.5606695541
H -5.639702541 -2.8215918669 0.8697147741
H -6.0706740887 -2.1572472666 -2.0433998431
H -6.7824360751 -1.3028219947 -0.6385940406
H -4.8062840362 0.0640466503 -2.08276615
O 1.8496941728 -0.7852788554 0.5613763346
C 1.3191123781 -0.3079237184 -2.8867031643
C 5.5025156672 -0.9082500031 -0.2245519703
C 6.781923219 -0.0990967067 0.2180336262
C 6.235131448 0.647603309 1.4911824581
C 4.7733049496 0.0545959623 1.5944683381
O 4.9047221252 -1.322036381 1.0669765364
H 4.9594702727 0.9006432417 -1.413806363
H 3.9306736794 1.8549332099 0.5193699253
H 0.8739310261 -1.2229960902 -2.4448412552
H 5.6811966627 -1.789140126 -0.8718822756
H 7.600485776 -0.7895043236 0.4774205208
H 7.1364426394 0.5908721343 -0.5644129435
H 6.8179670231 0.3970000214 2.3916566203
H 6.2265887414 1.742639339 1.3696137955
H 4.3422944712 0.0408121179 2.6145756153
H 1.7792485045 -0.5741995757 -3.8599200183
H 0.5273934353 0.4474422256 -3.0445171624
H -2.9960891782 3.7002938312 2.4338208038
H -3.9394556172 4.1387198687 0.954546699
H -2.2680514442 3.4959267426 0.7920814897
H -0.6699174839 2.01702487 -0.2370268256
H 0.0741044108 0.3995473522 -0.4760450766
H -0.1480017547 1.9522091729 2.1946786431
H 0.1267867373 0.1683639771 2.1321536432
$end

$rem
JOBTYPE                   OPT
METHOD                    B3LYP
DFT_D                     d3_op
BASIS                     STO-3G
GEOM_OPT_MAX_CYCLES       100
GEOM_OPT_TOL_GRADIENT     300
GEOM_OPT_TOL_DISPLACEMENT 1200
GEOM_OPT_TOL_ENERGY       100
SYMMETRY                  False
THRESH                    12
SCF_CONVERGENCE           8
MAX_SUB_FILE_NUM          128
MEM_STATIC                400
MEM_TOTAL                 4000
$end
--------------------------------------------------------------

   16   -1510.2780276528      5.73E-09 Convergence criterion met
 Total energy in the final basis set = -1510.27802765
   14   -1510.2798197110      3.81E-09 Convergence criterion met
 Total energy in the final basis set = -1510.27981971
   14   -1510.2812077804      7.64E-09 Convergence criterion met
 Total energy in the final basis set = -1510.28120778
   14   -1510.2827208645      4.97E-09 Convergence criterion met
 Total energy in the final basis set = -1510.28272086
   13   -1510.2832278575      8.86E-09 Convergence criterion met
 Total energy in the final basis set = -1510.28322786
   14   -1510.2846905302      4.79E-09 Convergence criterion met
 Total energy in the final basis set = -1510.28469053
   13   -1510.2857095159      5.09E-09 Convergence criterion met
 Total energy in the final basis set = -1510.28570952
   14   -1510.2865139875      6.45E-09 Convergence criterion met
   12   -1510.2923853771      5.15E-09 Convergence criterion met
 Total energy in the final basis set = -1510.29238538
   12   -1510.2924550719      7.35E-09 Convergence criterion met
 Total energy in the final basis set = -1510.29245507
   12   -1510.2924762372      3.71E-09 Convergence criterion met
 Total energy in the final basis set = -1510.29247624
   11   -1510.2924816660      6.00E-09 Convergence criterion met
 Total energy in the final basis set = -1510.29248167
   11   -1510.2924825313      4.24E-09 Convergence criterion met
 Total energy in the final basis set = -1510.29248253
   11   -1510.2924986794      1.52E-09 Convergence criterion met
 Total energy in the final basis set = -1510.29249868

             Standard Nuclear Orientation (Angstroms)
    I     Atom           X                Y                Z
 ----------------------------------------------------------------
    1      O       3.8571958849    -2.0402100157     1.7797990733
    2      C       3.6082850226    -1.4976335110     0.6817520801
    3      C       4.5468444667    -0.5401016975    -0.1343514614
    4      C       3.8521283994     0.8138821267    -0.5864288399
    5      C       2.3640723794     0.9328112411    -0.1200096126
    6      O       1.5380824643     1.0472756547    -1.2925641305
    7      C       0.1108630828     1.1097961596    -0.8991219693
    8      C      -0.6340958683    -0.1316570848    -1.5075330639
    9      O      -2.0496842264    -0.2065542503    -1.0678203096
   10      C      -2.1631572920    -0.8000668193     0.2280165277
   11      C      -3.6807418514    -1.0192190214     0.5424473982
   12      C      -4.5815240068     0.2762076471     0.3949468847
   13      C      -3.7943279966     1.5984279675     0.0882996495
   14      O      -4.0244617765     2.4268005157    -0.8171727503
   15      O       2.3982704178    -1.6745348727    -0.0607159043
   16      O      -2.7703213662     1.7425241554     1.0820886155
   17      O      -1.1986334699    -1.1471006155     0.9469793273
   18      C      -2.0982649851     3.0545144762     0.9434894181
   19      C      -4.3523044067    -1.9568636090    -0.5569492217
   20      C      -5.7636765742    -2.4283498666    -0.0239695176
   21      C      -6.6256345451    -1.1288508203    -0.2438192956
   22      C      -5.5337585860    -0.1376582420    -0.8037961746
   23      O      -4.6818594653    -1.0112297892    -1.6446282085
   24      H      -3.7514312334    -1.4521829452     1.5554905919
   25      H      -5.1593782918     0.4420964572     1.3233520204
   26      H      -3.6966823046    -2.7671462110    -0.9309571676
   27      H      -6.1391778535    -3.2703759943    -0.6267675261
   28      H      -5.7243303379    -2.7400939334     1.0320522667
   29      H      -7.4154953904    -1.2926397955    -0.9939505921
   30      H      -7.0899407133    -0.7609560111     0.6850141110
   31      H      -5.9087823630     0.7213907639    -1.3935903432
   32      O       1.9261438044     0.9781245344     1.0507128749
   33      C       1.4429418363    -2.5331424162     0.6839174439
   34      C       5.7257869784     0.0055663514     0.7704365027
   35      C       6.8408087525     0.6124009134    -0.1671898170
   36      C       6.1550096356     1.9529939173    -0.6249471078
   37      C       4.7804165373     1.8740945395     0.1509319254
   38      O       5.1313464715     1.1984497748     1.4195142755
   39      H       4.9245979840    -1.0937956970    -1.0138373432
   40      H       3.8786964718     0.9335630657    -1.6833814985
   41      H       0.4882571215    -1.9731511084     0.8154986421
   42      H       6.0723465068    -0.7174130005     1.5346413657
   43      H       7.7620581793     0.8051994075     0.4053435374
   44      H       7.0826291313    -0.0523989191    -1.0120200984
   45      H       6.7302547729     2.8337265192    -0.2983219300
   46      H       6.0119542259     2.0082086871    -1.7159509085
   47      H       4.2941288963     2.8483422338     0.3517236880
   48      H       1.8786665307    -2.8008230517     1.6664322658
   49      H       1.2615719763    -3.4530464812     0.0936991225
   50      H      -1.1620169389     2.9898254598     1.5279106483
   51      H      -2.7319257631     3.8681830022     1.3529190575
   52      H      -1.8698969411     3.2872186035    -0.1151540561
   53      H      -0.6748611759    -0.0493579835    -2.6121567131
   54      H      -0.0814022363    -1.0537655416    -1.2317426841
   55      H      -0.3239537152     2.0513789873    -1.2918464308
   56      H       0.0551107958     1.0943799552     0.2114344078
 ----------------------------------------------------------------

    9   -1510.2924989294      5.81E-09 Convergence criterion met
 Total energy in the final basis set = -1510.29249893
 Final energy is   -1510.29249892938
 **  OPTIMIZATION CONVERGED  **

                    Orbital Energies (a.u.)
 --------------------------------------------------------------

 Alpha MOs
 -- Occupied --
-18.943 -18.936 -18.929 -18.925 -18.891 -18.886 -18.885 -18.880
-18.872 -18.872 -10.110 -10.103 -10.097 -10.095 -10.073 -10.066
-10.065 -10.063 -10.060 -10.059 -10.055 -10.043 -10.041 -10.037
-10.035 -10.035 -10.023 -10.022 -10.019 -10.018  -1.021  -1.012
 -1.010  -1.002  -0.973  -0.968  -0.945  -0.940  -0.933  -0.930
 -0.767  -0.762  -0.730  -0.722  -0.712  -0.706  -0.695  -0.665
 -0.649  -0.617  -0.599  -0.583  -0.548  -0.543  -0.540  -0.535
 -0.516  -0.507  -0.487  -0.475  -0.468  -0.458  -0.449  -0.447
 -0.437  -0.433  -0.428  -0.416  -0.411  -0.409  -0.403  -0.399
 -0.394  -0.379  -0.378  -0.366  -0.363  -0.357  -0.356  -0.351
 -0.350  -0.336  -0.335  -0.330  -0.328  -0.326  -0.324  -0.313
 -0.308  -0.308  -0.303  -0.302  -0.295  -0.291  -0.285  -0.278
 -0.269  -0.256  -0.255  -0.244  -0.241  -0.237  -0.232  -0.190
 -0.180  -0.172  -0.165  -0.161  -0.158  -0.155  -0.150  -0.146
 -0.142

          Ground-State Mulliken Net Atomic Charges

     Atom                 Charge (a.u.)
  ----------------------------------------
      1 O                    -0.210409
      2 C                     0.214268
      3 C                    -0.077996
      4 C                    -0.078587
      5 C                     0.214085
      6 O                    -0.173567
      7 C                    -0.059571
      8 C                    -0.049932
      9 O                    -0.165849
     10 C                     0.218876
     11 C                    -0.077736
     12 C                    -0.078168
     13 C                     0.214029
     14 O                    -0.210524
     15 O                    -0.178137
     16 O                    -0.173300
     17 O                    -0.212997
     18 C                    -0.130167
     19 C                     0.026291
     20 C                    -0.144124
     21 C                    -0.143614
     22 C                     0.024532
     23 O                    -0.185604
     24 H                     0.087501
     25 H                     0.085526
     26 H                     0.082078
     27 H                     0.078686
     28 H                     0.074418
     29 H                     0.078822
     30 H                     0.073725
     31 H                     0.091318
     32 O                    -0.213217
     33 C                    -0.153381
     34 C                     0.024284
     35 C                    -0.144029
     36 C                    -0.143942
     37 C                     0.025761
     38 O                    -0.186222
     39 H                     0.084493
     40 H                     0.086342
     41 H                     0.109988
     42 H                     0.091280
     43 H                     0.078209
     44 H                     0.072895
     45 H                     0.077883
     46 H                     0.073255
     47 H                     0.082634
     48 H                     0.097629
     49 H                     0.074697
     50 H                     0.094841
     51 H                     0.086065
     52 H                     0.091788
     53 H                     0.093066
     54 H                     0.095011
     55 H                     0.081317
     56 H                     0.105477
  ----------------------------------------
  Sum of atomic charges =     0.000000

                    Cartesian Multipole Moments
 -----------------------------------------------------------------
    Charge (ESU x 10^10)
                 0.0000
    Dipole Moment (Debye)
         X      -1.1647      Y      -0.1034      Z      -1.5114
       Tot       1.9109
    Quadrupole Moments (Debye-Ang)
        XX    -143.3049     XY       7.3635     YY    -153.7708
        XZ     -20.3394     YZ       2.7531     ZZ    -169.8936

 Total job time:  97.90s(wall), 4667.29s(cpu)
        *  Thank you very much for using Q-Chem.  Have a nice day.  *
