 Q-Chem 5.0, Q-Chem, Inc., Pleasanton, CA (2017)
 Q-Chem 5.0.1 for Intel X86 EM64T Linux

User input:
--------------------------------------------------------------
$molecule
0  1
O 3.6998367773 -2.7914889045 -0.2041062753
C 3.4783153992 -1.6611634936 -0.686204876
C 4.4623610753 -0.435853339 -0.7132731951
C 3.8532604068 0.9140978108 -0.1497317369
C 2.4320388471 0.70825424 0.4672969518
O 1.6340849693 1.8632709549 0.1774733324
C 0.2592223181 1.676203104 0.7138513664
C -0.5416419369 0.8256451449 -0.3472726525
O -1.8996554801 0.3074438918 -0.0406396955
C -2.4368650254 0.5406863495 1.2620569951
C -3.8654767485 -0.1104413327 1.2640384901
C -4.7179357578 0.2199677961 -0.0294716494
C -4.0459297446 1.2620738627 -0.9931923993
O -3.8730640156 1.1640296384 -2.2256838691
O 2.2956014252 -1.317702492 -1.4248454985
O -3.729988507 2.4338745995 -0.2231454447
O -1.8791478658 1.1125227157 2.2214327893
C -3.1255273471 3.4662165477 -1.0939964857
C -3.7537804043 -1.6939230812 1.1317508794
C -5.166993086 -2.3325779409 1.4386922377
C -5.9405256467 -2.0244087556 0.1027675515
C -4.8484763412 -1.2122945222 -0.6952882668
O -3.5847316743 -1.89214695 -0.3246399524
H -4.3786401275 0.1948595733 2.1921816076
H -5.7095463287 0.6176640437 0.2564343981
H -2.9057411187 -2.1413193841 1.6860169627
H -5.06951068 -3.4163346764 1.6101843933
H -5.6447532049 -1.8773661092 2.3211644367
H -6.198850465 -2.9503689067 -0.4354957332
H -6.8614577024 -1.441965171 0.2658309113
H -4.9666443214 -1.1871116934 -1.7961848674
O 2.0382346548 -0.2686395245 1.1426663141
C 1.3409309138 -2.4498308336 -1.3964747435
C 5.6910054476 -0.6563842291 0.2605120963
C 6.8449495678 0.3279175397 -0.1746465612
C 6.2622694128 1.7061956235 0.3151050349
C 4.9106844496 1.24701621 0.9939467819
O 5.2259976591 -0.0877627127 1.547942041
H 4.7978520136 -0.2977575142 -1.7577749304
H 3.8011687929 1.7073133593 -0.9156619059
H 0.9789171244 -2.6438222203 -0.3658236899
H 5.9755667426 -1.719045304 0.3877984729
H 7.782173497 0.0789085116 0.3480154367
H 7.0269457917 0.3035502646 -1.2608730399
H 6.9213260837 2.1853729184 1.0563195733
H 6.0889953122 2.4136230582 -0.5116119479
H 4.5310566166 1.9186371483 1.7885335863
H 1.7971273208 -3.3802777833 -1.7911632233
H 0.4897530051 -2.1525380977 -2.0365735635
H -2.805500014 4.2847886937 -0.4232842373
H -3.857338544 3.8576367987 -1.8304382918
H -2.2489413115 3.0747933662 -1.6482365342
H -0.6435627907 1.421417653 -1.2798833111
H 0.0795899688 -0.0647001918 -0.588212456
H -0.1719289161 2.6882218423 0.8376510874
H 0.2891764355 1.1535564126 1.6898401557
$end

$rem
JOBTYPE                   OPT
METHOD                    B3LYP
DFT_D                     d3_op
BASIS                     STO-3G
GEOM_OPT_MAX_CYCLES       100
GEOM_OPT_TOL_GRADIENT     300
GEOM_OPT_TOL_DISPLACEMENT 1200
GEOM_OPT_TOL_ENERGY       100
SYMMETRY                  False
THRESH                    12
SCF_CONVERGENCE           8
MAX_SUB_FILE_NUM          128
MEM_STATIC                400
MEM_TOTAL                 4000
$end
--------------------------------------------------------------

   16   -1510.2799499997      5.76E-09 Convergence criterion met
 Total energy in the final basis set = -1510.27995000
   13   -1510.2799988917      7.82E-09 Convergence criterion met
 Total energy in the final basis set = -1510.27999889
   13   -1510.2801701249      8.66E-09 Convergence criterion met
 Total energy in the final basis set = -1510.28017012
   13   -1510.2805333985      6.13E-09 Convergence criterion met
 Total energy in the final basis set = -1510.28053340
   13   -1510.2808382900      6.49E-09 Convergence criterion met
 Total energy in the final basis set = -1510.28083829
   13   -1510.2816908178      3.62E-09 Convergence criterion met
 Total energy in the final basis set = -1510.28169082
   13   -1510.2829689415      6.59E-09 Convergence criterion met
 Total energy in the final basis set = -1510.28296894
   13   -1510.2841455451      4.32E-09 Convergence criterion met
   13   -1510.2876335970      2.19E-09 Convergence criterion met
 Total energy in the final basis set = -1510.28763360
   12   -1510.2877244058      5.02E-09 Convergence criterion met
 Total energy in the final basis set = -1510.28772441
   12   -1510.2877315895      4.81E-09 Convergence criterion met
 Total energy in the final basis set = -1510.28773159
   12   -1510.2877406869      3.88E-09 Convergence criterion met
 Total energy in the final basis set = -1510.28774069
   12   -1510.2877345938      4.86E-09 Convergence criterion met
 Total energy in the final basis set = -1510.28773459
   11   -1510.2877497587      5.65E-09 Convergence criterion met
 Total energy in the final basis set = -1510.28774976

             Standard Nuclear Orientation (Angstroms)
    I     Atom           X                Y                Z
 ----------------------------------------------------------------
    1      O       4.0915653258    -2.7006059920     0.6419998740
    2      C       3.8375467232    -1.8913934713    -0.2740078743
    3      C       4.6591111550    -0.6115481675    -0.6706390751
    4      C       3.8577783840     0.7456096367    -0.4985190704
    5      C       2.4279706384     0.5277532451     0.0930617252
    6      O       1.5482627038     1.5138264625    -0.4603333261
    7      C       0.1744137655     1.3368456707     0.0718317796
    8      C      -0.5359095247     0.1016231121    -0.6054326824
    9      O      -2.0032571788     0.0688315472    -0.3927159294
   10      C      -2.3204799450    -0.1674395348     0.9848933990
   11      C      -3.8612627817    -0.4011641436     1.1167672652
   12      C      -4.7820966442     0.5166154747     0.2096317019
   13      C      -4.0342654263     1.6029243159    -0.6424254027
   14      O      -4.0656267763     1.7448038866    -1.8827087631
   15      O       2.7537135122    -2.0315720635    -1.2052732194
   16      O      -3.3682674590     2.5045531574     0.2548646187
   17      O      -1.4745969233    -0.2363740208     1.9031598125
   18      C      -2.7536439756     3.6089133500    -0.5154097511
   19      C      -4.2498241562    -1.8416189424     0.5522859900
   20      C      -5.7022157358    -2.1992916194     1.0622620851
   21      C      -6.5867596349    -1.3016626115     0.1198819616
   22      C      -5.4756259710    -0.5629326009    -0.7223775192
   23      O      -4.4293597451    -1.5984234152    -0.8946501057
   24      H      -4.1223394908    -0.3064926772     2.1853736174
   25      H      -5.5254187307     1.0405470194     0.8384452671
   26      H      -3.4848284065    -2.6234708527     0.7254835480
   27      H      -5.9096181864    -3.2709976232     0.9138722617
   28      H      -5.8349238494    -1.9574872091     2.1287905196
   29      H      -7.2257918696    -1.9129542370    -0.5372885223
   30      H      -7.2242536170    -0.5964173429     0.6767862682
   31      H      -5.7915707786    -0.1667126677    -1.7070949476
   32      O       2.0776697400    -0.3409697736     0.9227083228
   33      C       1.8984786168    -3.1730498416    -0.8110321537
   34      C       5.8676428368    -0.3840805450     0.3276213211
   35      C       6.8847417854     0.6207486780    -0.3393466394
   36      C       6.0980927943     1.9780251972    -0.2076145182
   37      C       4.7917760177     1.5034527431     0.5457747836
   38      O       5.2655783406     0.4120621490     1.4234642520
   39      H       5.0030188374    -0.7277308225    -1.7145183864
   40      H       3.7693685130     1.3026957942    -1.4473475271
   41      H       1.4470353255    -3.0084318371     0.1891707977
   42      H       6.3003612141    -1.3214247237     0.7278457612
   43      H       7.8289907047     0.6463328886     0.2273209002
   44      H       7.1065436928     0.3564126341    -1.3855882657
   45      H       6.6505755567     2.7087236544     0.4042519154
   46      H       5.8693505753     2.4352284879    -1.1835503267
   47      H       4.2784372570     2.2860135831     1.1379271888
   48      H       2.4670483511    -4.1250528121    -0.7883529435
   49      H       1.0999755720    -3.2365509404    -1.5732773712
   50      H      -2.1536431505     4.1933394518     0.2063465995
   51      H      -3.5253775538     4.2657268054    -0.9673779798
   52      H      -2.1021542557     3.2302141227    -1.3288587247
   53      H      -0.4034668386     0.1506019779    -1.7050028841
   54      H      -0.0655367258    -0.8284149927    -0.2212933241
   55      H      -0.3656896293     2.2709625981    -0.1736050045
   56      H       0.1801163575     1.1818861264     1.1710930579
 ----------------------------------------------------------------

    9   -1510.2877491191      7.82E-09 Convergence criterion met
 Total energy in the final basis set = -1510.28774912
 Final energy is   -1510.28774911911
 **  OPTIMIZATION CONVERGED  **

                    Orbital Energies (a.u.)
 --------------------------------------------------------------

 Alpha MOs
 -- Occupied --
-18.940 -18.938 -18.931 -18.924 -18.889 -18.887 -18.879 -18.878
-18.873 -18.869 -10.103 -10.102 -10.100 -10.093 -10.072 -10.069
-10.066 -10.063 -10.061 -10.058 -10.058 -10.056 -10.040 -10.038
-10.038 -10.034 -10.022 -10.020 -10.020 -10.019  -1.019  -1.014
 -1.007  -1.002  -0.971  -0.969  -0.942  -0.938  -0.935  -0.929
 -0.765  -0.762  -0.729  -0.723  -0.711  -0.706  -0.695  -0.664
 -0.657  -0.619  -0.598  -0.586  -0.547  -0.544  -0.539  -0.537
 -0.514  -0.510  -0.488  -0.475  -0.465  -0.459  -0.452  -0.444
 -0.435  -0.431  -0.427  -0.414  -0.409  -0.408  -0.405  -0.396
 -0.394  -0.382  -0.374  -0.364  -0.363  -0.361  -0.353  -0.348
 -0.345  -0.341  -0.337  -0.333  -0.332  -0.326  -0.324  -0.311
 -0.310  -0.307  -0.303  -0.300  -0.298  -0.291  -0.281  -0.278
 -0.271  -0.259  -0.254  -0.249  -0.243  -0.236  -0.233  -0.194
 -0.177  -0.171  -0.168  -0.157  -0.156  -0.150  -0.146  -0.145
 -0.143

          Ground-State Mulliken Net Atomic Charges

     Atom                 Charge (a.u.)
  ----------------------------------------
      1 O                    -0.209258
      2 C                     0.215017
      3 C                    -0.079786
      4 C                    -0.078800
      5 C                     0.212020
      6 O                    -0.171547
      7 C                    -0.056486
      8 C                    -0.052027
      9 O                    -0.167515
     10 C                     0.211529
     11 C                    -0.078487
     12 C                    -0.078946
     13 C                     0.216816
     14 O                    -0.213207
     15 O                    -0.177779
     16 O                    -0.175620
     17 O                    -0.209991
     18 C                    -0.129806
     19 C                     0.025798
     20 C                    -0.143844
     21 C                    -0.143833
     22 C                     0.024769
     23 O                    -0.187007
     24 H                     0.086549
     25 H                     0.084229
     26 H                     0.082574
     27 H                     0.078510
     28 H                     0.074471
     29 H                     0.078377
     30 H                     0.073325
     31 H                     0.090884
     32 O                    -0.209069
     33 C                    -0.129943
     34 C                     0.024890
     35 C                    -0.144010
     36 C                    -0.143758
     37 C                     0.025820
     38 O                    -0.186753
     39 H                     0.083897
     40 H                     0.086707
     41 H                     0.092348
     42 H                     0.090883
     43 H                     0.078347
     44 H                     0.073141
     45 H                     0.078173
     46 H                     0.073558
     47 H                     0.082814
     48 H                     0.088449
     49 H                     0.087465
     50 H                     0.088887
     51 H                     0.087127
     52 H                     0.089850
     53 H                     0.092578
     54 H                     0.095025
     55 H                     0.087469
     56 H                     0.105174
  ----------------------------------------
  Sum of atomic charges =     0.000000

                    Cartesian Multipole Moments
 -----------------------------------------------------------------
    Charge (ESU x 10^10)
                -0.0000
    Dipole Moment (Debye)
         X      -1.1435      Y       1.7078      Z      -1.2836
       Tot       2.4232
    Quadrupole Moments (Debye-Ang)
        XX    -142.4559     XY       7.0778     YY    -152.4712
        XZ     -19.0855     YZ       2.5121     ZZ    -169.7140

 Total job time:  68.76s(wall), 3273.73s(cpu)
        *  Thank you very much for using Q-Chem.  Have a nice day.  *
