 Q-Chem 5.0, Q-Chem, Inc., Pleasanton, CA (2017)
 Q-Chem 5.0.1 for Intel X86 EM64T Linux

User input:
--------------------------------------------------------------
$molecule
0  1
O -3.94934 -3.66094 2.70899
C -3.26408 -4.56952 2.26188
C -3.36658 -6.02376 2.66595
C -2.06682 -6.72967 3.08568
C -0.83975 -5.85623 3.22523
O 0.26623 -6.53952 2.80648
C 1.46595 -5.76097 2.86803
C 1.58569 -4.88099 1.6281
O 2.68472 -3.96882 1.7796
C 3.32772 -4.02351 2.97238
C 4.4778 -3.04925 3.06602
C 5.39439 -3.00948 1.83453
C 4.84468 -3.65891 0.58043
O 4.81691 -3.1466 -0.52923
O -2.418 -4.30223 1.23216
O 4.69462 -5.01216 0.6468
O 3.63968 -5.0278 3.60524
C 4.41701 -5.8219 -0.43599
C 4.02005 -1.57402 3.112
C 5.0937 -0.72827 3.79547
C 6.1926 -0.77433 2.75249
C 5.45459 -1.48585 1.61006
O 4.10753 -1.11988 1.78354
H 5.04623 -3.23752 4.01005
H 6.38311 -3.47676 2.03647
H 3.03814 -1.43186 3.61432
H 4.69264 0.30974 3.84576
H 5.3974 -1.04725 4.81576
H 6.46118 0.27045 2.48079
H 7.10263 -1.3414 3.04632
H 5.91245 -1.21585 0.63325
O -0.82828 -4.78336 3.82062
C -2.20401 -3.04577 0.70613
C -4.22957 -6.22422 3.925
C -4.72285 -7.67014 4.00386
C -3.45037 -8.37802 4.41441
C -2.48583 -7.19297 4.49776
O -3.29708 -6.14533 4.97229
H -3.82443 -6.53991 1.79278
H -1.82302 -7.61838 2.45874
H -1.79971 -2.36865 1.48875
H -5.09475 -5.52841 3.98193
H -5.4553 -7.74898 4.83863
H -5.18912 -8.03541 3.06347
H -3.59517 -8.79582 5.43602
H -3.1069 -9.18088 3.72697
H -1.61282 -7.45895 5.13479
H -3.15281 -2.63184 0.30288
H -1.4657 -3.11826 -0.1186
H 4.32473 -6.87195 -0.09078
H 5.2392 -5.75958 -1.1802
H 3.46263 -5.51455 -0.91334
H 1.7095 -5.50871 0.72223
H 0.66673 -4.26969 1.50881
H 2.26517 -6.53437 2.8158
H 1.44552 -5.24169 3.85851
$end

$opt
CONSTRAINT
tors           1           2           3           4    -128.410
tors           3           4           5           6    -143.769
tors           4           5           6           7    +178.101
tors           5           6           7           8     -82.585
tors           6           7           8           9    +171.920
tors           7           8           9          10      -3.064
tors           8           9          10          11    +179.578
tors           9          10          11          12     -45.287
tors          11          12          13          14    +130.109
ENDCONSTRAINT
$end

$rem
JOBTYPE                   OPT
METHOD                    B3LYP
DFT_D                     d3_op
BASIS                     STO-3G
GEOM_OPT_MAX_CYCLES       100
GEOM_OPT_TOL_GRADIENT     300
GEOM_OPT_TOL_DISPLACEMENT 1200
GEOM_OPT_TOL_ENERGY       100
SYMMETRY                  False
THRESH                    12
SCF_CONVERGENCE           8
MAX_SUB_FILE_NUM          128
MEM_STATIC                400
MEM_TOTAL                 4000
$end
--------------------------------------------------------------

   16   -1510.1054521231      3.38E-09 Convergence criterion met
 Total energy in the final basis set = -1510.10545212
   15   -1510.1818031510      3.67E-09 Convergence criterion met
 Total energy in the final basis set = -1510.18180315
   14   -1510.2273757675      8.70E-09 Convergence criterion met
 Total energy in the final basis set = -1510.22737577
   15   -1510.2523373642      2.03E-09 Convergence criterion met
 Total energy in the final basis set = -1510.25233736
   14   -1510.2639438609      7.64E-09 Convergence criterion met
 Total energy in the final basis set = -1510.26394386
   13   -1510.2703373557      7.78E-09 Convergence criterion met
 Total energy in the final basis set = -1510.27033736
   13   -1510.2741397611      6.05E-09 Convergence criterion met
 Total energy in the final basis set = -1510.27413976
   13   -1510.2765528107      2.34E-09 Convergence criterion met
   11   -1510.2796497767      9.29E-09 Convergence criterion met
 Total energy in the final basis set = -1510.27964978
   11   -1510.2797943786      7.05E-09 Convergence criterion met
 Total energy in the final basis set = -1510.27979438
   10   -1510.2798620464      7.83E-09 Convergence criterion met
 Total energy in the final basis set = -1510.27986205
   10   -1510.2799150586      5.89E-09 Convergence criterion met
 Total energy in the final basis set = -1510.27991506
   10   -1510.2799469104      7.45E-09 Convergence criterion met
 Total energy in the final basis set = -1510.27994691
   10   -1510.2799579091      6.58E-09 Convergence criterion met
 Total energy in the final basis set = -1510.27995791

             Standard Nuclear Orientation (Angstroms)
    I     Atom           X                Y                Z
 ----------------------------------------------------------------
    1      O       3.6998367773    -2.7914889045    -0.2041062753
    2      C       3.4783153992    -1.6611634936    -0.6862048760
    3      C       4.4623610753    -0.4358533390    -0.7132731951
    4      C       3.8532604068     0.9140978108    -0.1497317369
    5      C       2.4320388471     0.7082542400     0.4672969518
    6      O       1.6340849693     1.8632709549     0.1774733324
    7      C       0.2592223181     1.6762031040     0.7138513664
    8      C      -0.5416419369     0.8256451449    -0.3472726525
    9      O      -1.8996554801     0.3074438918    -0.0406396955
   10      C      -2.4368650254     0.5406863495     1.2620569951
   11      C      -3.8654767485    -0.1104413327     1.2640384901
   12      C      -4.7179357578     0.2199677961    -0.0294716494
   13      C      -4.0459297446     1.2620738627    -0.9931923993
   14      O      -3.8730640156     1.1640296384    -2.2256838691
   15      O       2.2956014252    -1.3177024920    -1.4248454985
   16      O      -3.7299885070     2.4338745995    -0.2231454447
   17      O      -1.8791478658     1.1125227157     2.2214327893
   18      C      -3.1255273471     3.4662165477    -1.0939964857
   19      C      -3.7537804043    -1.6939230812     1.1317508794
   20      C      -5.1669930860    -2.3325779409     1.4386922377
   21      C      -5.9405256467    -2.0244087556     0.1027675515
   22      C      -4.8484763412    -1.2122945222    -0.6952882668
   23      O      -3.5847316743    -1.8921469500    -0.3246399524
   24      H      -4.3786401275     0.1948595733     2.1921816076
   25      H      -5.7095463287     0.6176640437     0.2564343981
   26      H      -2.9057411187    -2.1413193841     1.6860169627
   27      H      -5.0695106800    -3.4163346764     1.6101843933
   28      H      -5.6447532049    -1.8773661092     2.3211644367
   29      H      -6.1988504650    -2.9503689067    -0.4354957332
   30      H      -6.8614577024    -1.4419651710     0.2658309113
   31      H      -4.9666443214    -1.1871116934    -1.7961848674
   32      O       2.0382346548    -0.2686395245     1.1426663141
   33      C       1.3409309138    -2.4498308336    -1.3964747435
   34      C       5.6910054476    -0.6563842291     0.2605120963
   35      C       6.8449495678     0.3279175397    -0.1746465612
   36      C       6.2622694128     1.7061956235     0.3151050349
   37      C       4.9106844496     1.2470162100     0.9939467819
   38      O       5.2259976591    -0.0877627127     1.5479420410
   39      H       4.7978520136    -0.2977575142    -1.7577749304
   40      H       3.8011687929     1.7073133593    -0.9156619059
   41      H       0.9789171244    -2.6438222203    -0.3658236899
   42      H       5.9755667426    -1.7190453040     0.3877984729
   43      H       7.7821734970     0.0789085116     0.3480154367
   44      H       7.0269457917     0.3035502646    -1.2608730399
   45      H       6.9213260837     2.1853729184     1.0563195733
   46      H       6.0889953122     2.4136230582    -0.5116119479
   47      H       4.5310566166     1.9186371483     1.7885335863
   48      H       1.7971273208    -3.3802777833    -1.7911632233
   49      H       0.4897530051    -2.1525380977    -2.0365735635
   50      H      -2.8055000140     4.2847886937    -0.4232842373
   51      H      -3.8573385440     3.8576367987    -1.8304382918
   52      H      -2.2489413115     3.0747933662    -1.6482365342
   53      H      -0.6435627907     1.4214176530    -1.2798833111
   54      H       0.0795899688    -0.0647001918    -0.5882124560
   55      H      -0.1719289161     2.6882218423     0.8376510874
   56      H       0.2891764355     1.1535564126     1.6898401557
 ----------------------------------------------------------------

    9   -1510.2799604096      7.28E-09 Convergence criterion met
 Total energy in the final basis set = -1510.27996041
 Final energy is   -1510.27996040956
 **  OPTIMIZATION CONVERGED  **

                    Orbital Energies (a.u.)
 --------------------------------------------------------------

 Alpha MOs
 -- Occupied --
-18.937 -18.935 -18.931 -18.927 -18.887 -18.887 -18.877 -18.875
-18.874 -18.872 -10.105 -10.100 -10.100 -10.096 -10.073 -10.070
-10.066 -10.061 -10.061 -10.058 -10.057 -10.056 -10.038 -10.037
-10.036 -10.036 -10.021 -10.021 -10.019 -10.019  -1.017  -1.014
 -1.005  -1.004  -0.970  -0.969  -0.942  -0.937  -0.935  -0.931
 -0.764  -0.762  -0.729  -0.723  -0.711  -0.705  -0.695  -0.663
 -0.658  -0.621  -0.597  -0.587  -0.547  -0.545  -0.537  -0.537
 -0.512  -0.510  -0.481  -0.477  -0.464  -0.461  -0.452  -0.442
 -0.438  -0.431  -0.430  -0.414  -0.409  -0.408  -0.406  -0.396
 -0.389  -0.377  -0.372  -0.366  -0.363  -0.357  -0.355  -0.349
 -0.346  -0.341  -0.338  -0.332  -0.331  -0.326  -0.325  -0.311
 -0.310  -0.305  -0.304  -0.300  -0.297  -0.290  -0.283  -0.276
 -0.273  -0.262  -0.254  -0.250  -0.239  -0.234  -0.233  -0.181
 -0.178  -0.173  -0.171  -0.158  -0.155  -0.149  -0.147  -0.143
 -0.143

          Ground-State Mulliken Net Atomic Charges

     Atom                 Charge (a.u.)
  ----------------------------------------
      1 O                    -0.209661
      2 C                     0.214931
      3 C                    -0.079375
      4 C                    -0.078721
      5 C                     0.211776
      6 O                    -0.173032
      7 C                    -0.052701
      8 C                    -0.052779
      9 O                    -0.169123
     10 C                     0.217556
     11 C                    -0.077567
     12 C                    -0.078227
     13 C                     0.216665
     14 O                    -0.214638
     15 O                    -0.177648
     16 O                    -0.176280
     17 O                    -0.213424
     18 C                    -0.128893
     19 C                     0.025485
     20 C                    -0.144164
     21 C                    -0.143536
     22 C                     0.024589
     23 O                    -0.187025
     24 H                     0.085767
     25 H                     0.083720
     26 H                     0.083026
     27 H                     0.078369
     28 H                     0.074040
     29 H                     0.078000
     30 H                     0.073030
     31 H                     0.090105
     32 O                    -0.213039
     33 C                    -0.130623
     34 C                     0.024435
     35 C                    -0.143616
     36 C                    -0.144034
     37 C                     0.025792
     38 O                    -0.187061
     39 H                     0.083998
     40 H                     0.086646
     41 H                     0.092826
     42 H                     0.091806
     43 H                     0.078459
     44 H                     0.073087
     45 H                     0.078339
     46 H                     0.073585
     47 H                     0.083095
     48 H                     0.089736
     49 H                     0.091310
     50 H                     0.089785
     51 H                     0.087347
     52 H                     0.086996
     53 H                     0.084675
     54 H                     0.093880
     55 H                     0.091478
     56 H                     0.110835
  ----------------------------------------
  Sum of atomic charges =     0.000000

                    Cartesian Multipole Moments
 -----------------------------------------------------------------
    Charge (ESU x 10^10)
                 0.0000
    Dipole Moment (Debye)
         X      -1.0499      Y       2.0473      Z      -1.3742
       Tot       2.6799
    Quadrupole Moments (Debye-Ang)
        XX    -140.4256     XY       9.5748     YY    -156.8627
        XZ     -12.6460     YZ      -0.6771     ZZ    -166.7697

 Total job time:  54.02s(wall), 2568.28s(cpu)
        *  Thank you very much for using Q-Chem.  Have a nice day.  *
