 Q-Chem 5.0, Q-Chem, Inc., Pleasanton, CA (2017)
 Q-Chem 5.0.1 for Intel X86 EM64T Linux

User input:
--------------------------------------------------------------
$molecule
0  1
O 3.7341419247 -2.7759714781 -0.2642856356
C 3.5564017533 -1.6467569924 -0.766778339
C 4.5220402959 -0.4103405634 -0.6815909358
C 3.8244646658 0.9504279074 -0.275879063
C 2.3524266266 0.7343059949 0.207641063
O 1.5922555908 1.9111698279 -0.088554206
C 0.183730147 1.7421997886 0.3469784314
C -0.5685287882 0.7431489766 -0.618870405
O -1.896031585 0.2110813939 -0.2101172566
C -2.2326757831 0.2325814148 1.1768376758
C -3.6768275996 -0.3751132941 1.2844710082
C -4.7166169773 0.2721445835 0.2793510685
C -4.1411803115 1.4741820977 -0.5499065781
O -4.214395484 1.654459587 -1.7830657565
O 2.4828573571 -1.3232713419 -1.6648965458
O -3.5600966142 2.4135412358 0.3688455957
O -1.5099340314 0.5739568434 2.1399104705
C -3.035472191 3.5832266903 -0.3701004775
C -3.6961399307 -1.8843498326 0.779720271
C -5.0706850693 -2.5432393938 1.1998622219
C -6.0521479971 -1.9085213335 0.1441252567
C -5.0683586165 -0.9636657747 -0.6480764262
O -3.8089981468 -1.7439803838 -0.688826781
H -4.0038806762 -0.2833612659 2.3346332502
H -5.6092940411 0.6300493443 0.8251358802
H -2.79418721 -2.4690015933 1.0462547657
H -5.0180291781 -3.6387041164 1.0966261841
H -5.3479874617 -2.3002383819 2.2382119598
H -6.4723126146 -2.6748896755 -0.5266402553
H -6.8815548522 -1.353248495 0.6106746294
H -5.3816365507 -0.6798022862 -1.6717576726
O 1.8997663558 -0.2688115968 0.8035776533
C 1.5428881676 -2.4630769955 -1.7559294832
C 5.598532155 -0.5682634462 0.4713134537
C 6.8072790776 0.3887294877 0.1386606261
C 6.159838266 1.794717916 0.4271208949
C 4.7316737492 1.3757335175 0.9607747333
O 4.9665761445 0.0838901405 1.6430939675
H 5.0120518026 -0.3063064136 -1.6675827974
H 3.8391643561 1.699328146 -1.0866769129
H 1.0373932282 -2.6455683821 -0.7851366585
H 5.8557595805 -1.6201941467 0.7035936165
H 7.6537705713 0.1888633556 0.8149252305
H 7.1529760312 0.2825951931 -0.9020123115
H 6.7144039144 2.346304506 1.2027375586
H 6.0936108287 2.4240584562 -0.4748905779
H 4.2546391362 2.1007083202 1.648715941
H 2.0568281799 -3.3954498817 -2.0661358748
H 0.7907003305 -2.1823737141 -2.5162468829
H -2.5249252657 4.2158361365 0.3792273598
H -3.8519712247 4.1631086206 -0.8473450852
H -2.315915655 3.2815348063 -1.1580508438
H -0.7413226924 1.2215209018 -1.6058430678
H 0.0980123563 -0.1329847886 -0.7765792124
H -0.2683013932 2.7510743067 0.2977250729
H 0.0925315489 1.349104705 1.3825467606
$end

$rem
JOBTYPE                   OPT
METHOD                    B3LYP
DFT_D                     d3_op
BASIS                     STO-3G
GEOM_OPT_MAX_CYCLES       100
GEOM_OPT_TOL_GRADIENT     300
GEOM_OPT_TOL_DISPLACEMENT 1200
GEOM_OPT_TOL_ENERGY       100
SYMMETRY                  False
THRESH                    12
SCF_CONVERGENCE           8
MAX_SUB_FILE_NUM          128
MEM_STATIC                400
MEM_TOTAL                 4000
$end
--------------------------------------------------------------

   16   -1510.2807867399      6.15E-09 Convergence criterion met
 Total energy in the final basis set = -1510.28078674
   14   -1510.2817643371      3.31E-09 Convergence criterion met
 Total energy in the final basis set = -1510.28176434
   14   -1510.2826625547      2.11E-09 Convergence criterion met
 Total energy in the final basis set = -1510.28266255
   13   -1510.2834992157      6.17E-09 Convergence criterion met
 Total energy in the final basis set = -1510.28349922
   13   -1510.2846460189      3.97E-09 Convergence criterion met
 Total energy in the final basis set = -1510.28464602
   14   -1510.2856333764      4.20E-09 Convergence criterion met
 Total energy in the final basis set = -1510.28563338
   14   -1510.2862715043      5.74E-09 Convergence criterion met
 Total energy in the final basis set = -1510.28627150
   13   -1510.2868189864      7.86E-09 Convergence criterion met
   12   -1510.2924252398      4.62E-09 Convergence criterion met
 Total energy in the final basis set = -1510.29242524
   12   -1510.2924558483      3.40E-09 Convergence criterion met
 Total energy in the final basis set = -1510.29245585
   12   -1510.2924597196      2.38E-09 Convergence criterion met
 Total energy in the final basis set = -1510.29245972
   10   -1510.2924657444      5.56E-09 Convergence criterion met
 Total energy in the final basis set = -1510.29246574
   11   -1510.2924677182      2.15E-09 Convergence criterion met
 Total energy in the final basis set = -1510.29246772
    9   -1510.2924696929      6.48E-09 Convergence criterion met
 Total energy in the final basis set = -1510.29246969

             Standard Nuclear Orientation (Angstroms)
    I     Atom           X                Y                Z
 ----------------------------------------------------------------
    1      O      -3.8527794604    -2.0356473862    -1.7546536591
    2      C      -3.6044424215    -1.5033788467    -0.6513065291
    3      C      -4.5422552952    -0.5472342495     0.1674999858
    4      C      -3.8489596561     0.8090249658     0.6156561529
    5      C      -2.3598116214     0.9258646142     0.1505809431
    6      O      -1.5331266245     1.0403405825     1.3222596518
    7      C      -0.1065908799     1.0997186575     0.9254734710
    8      C       0.6368224314    -0.1463249397     1.5260168697
    9      O       2.0493980084    -0.2244710186     1.0765466961
   10      C       2.1500693302    -0.8163645748    -0.2211273695
   11      C       3.6627691885    -1.0361058389    -0.5546061788
   12      C       4.5629354220     0.2617164620    -0.4290652004
   13      C       3.7761902848     1.5860077853    -0.1300019560
   14      O       4.0174676103     2.4299176954     0.7579856521
   15      O      -2.3991607468    -1.6950355911     0.0942236500
   16      O       2.7354105494     1.7096291025    -1.1092577006
   17      O       1.1777157278    -1.1612208900    -0.9306399067
   18      C       2.0587190259     3.0204615685    -0.9821918143
   19      C       4.3494246877    -1.9644415983     0.5422365468
   20      C       5.7558439576    -2.4351831504    -0.0040546501
   21      C       6.6168801110    -1.1323539708     0.1989746899
   22      C       5.5281129133    -0.1400487982     0.7633803166
   23      O       4.6879178444    -1.0100999628     1.6196319285
   24      H       3.7191643424    -1.4761337750    -1.5654844081
   25      H       5.1311326404     0.4189282631    -1.3649095864
   26      H       3.7000354587    -2.7739938236     0.9284362037
   27      H       6.1404640751    -3.2732515418     0.5984645029
   28      H       5.7049020438    -2.7522471189    -1.0580135311
   29      H       7.4144709302    -1.2894698801     0.9423169393
   30      H       7.0711848522    -0.7694336896    -0.7367551188
   31      H       5.9066973388     0.7245278258     1.3426796829
   32      O      -1.9223543601     0.9658578183    -1.0206007732
   33      C      -1.4512731871    -2.5591591884    -0.6537304901
   34      C      -5.7249978725    -0.0058752200    -0.7352564160
   35      C      -6.8381180538     0.6030751940     0.2031520021
   36      C      -6.1530785257     1.9466009358     0.6532534688
   37      C      -4.7797353198     1.8656990070    -0.1249825319
   38      O      -5.1335983059     1.1852617399    -1.3901350577
   39      H      -4.9165563165    -1.1006733163     1.0486180223
   40      H      -3.8773618415     0.9320165005     1.7122039707
   41      H      -0.4960612374    -2.0023180703    -0.7933961248
   42      H      -6.0732407253    -0.7316412608    -1.4960849194
   43      H      -7.7612725309     0.7920436275    -0.3676275877
   44      H      -7.0767214478    -0.0586548074     1.0513039721
   45      H      -6.7298810564     2.8249868553     0.3229896844
   46      H      -6.0086111040     2.0075019461     1.7437497143
   47      H      -4.2952961688     2.8397755278    -0.3309369581
   48      H      -1.8951681242    -2.8271846568    -1.6325182168
   49      H      -1.2700637989    -3.4777066785    -0.0615595387
   50      H       1.1219607340     2.9458944631    -1.5647364168
   51      H       2.6881972096     3.8328881217    -1.4003707627
   52      H       1.8298517514     3.2626931032     0.0741863461
   53      H       0.6843596395    -0.0682849036     2.6306308143
   54      H       0.0782934287    -1.0648595483     1.2496459197
   55      H       0.3316490904     2.0390794336     1.3194913553
   56      H      -0.0560263128     1.0869565468    -0.1854371299
 ----------------------------------------------------------------

    9   -1510.2924700335      4.64E-09 Convergence criterion met
 Total energy in the final basis set = -1510.29247003
 Final energy is   -1510.29247003351
 **  OPTIMIZATION CONVERGED  **

                    Orbital Energies (a.u.)
 --------------------------------------------------------------

 Alpha MOs
 -- Occupied --
-18.942 -18.936 -18.930 -18.925 -18.891 -18.886 -18.885 -18.880
-18.873 -18.872 -10.110 -10.103 -10.097 -10.095 -10.073 -10.066
-10.065 -10.063 -10.060 -10.059 -10.055 -10.043 -10.041 -10.037
-10.035 -10.035 -10.023 -10.022 -10.019 -10.018  -1.021  -1.012
 -1.010  -1.002  -0.973  -0.968  -0.945  -0.940  -0.934  -0.930
 -0.768  -0.761  -0.730  -0.722  -0.712  -0.706  -0.695  -0.665
 -0.649  -0.617  -0.599  -0.583  -0.549  -0.543  -0.540  -0.535
 -0.516  -0.507  -0.487  -0.475  -0.468  -0.458  -0.449  -0.447
 -0.437  -0.433  -0.428  -0.416  -0.411  -0.409  -0.403  -0.399
 -0.394  -0.379  -0.377  -0.366  -0.363  -0.357  -0.355  -0.351
 -0.350  -0.336  -0.335  -0.330  -0.328  -0.326  -0.324  -0.313
 -0.308  -0.308  -0.303  -0.302  -0.294  -0.291  -0.284  -0.278
 -0.269  -0.256  -0.255  -0.244  -0.241  -0.237  -0.232  -0.190
 -0.180  -0.171  -0.165  -0.161  -0.158  -0.155  -0.150  -0.146
 -0.142

          Ground-State Mulliken Net Atomic Charges

     Atom                 Charge (a.u.)
  ----------------------------------------
      1 O                    -0.210581
      2 C                     0.214136
      3 C                    -0.077984
      4 C                    -0.078584
      5 C                     0.213864
      6 O                    -0.173326
      7 C                    -0.059720
      8 C                    -0.050026
      9 O                    -0.165770
     10 C                     0.218869
     11 C                    -0.077761
     12 C                    -0.078165
     13 C                     0.213851
     14 O                    -0.210344
     15 O                    -0.178255
     16 O                    -0.173169
     17 O                    -0.213138
     18 C                    -0.130073
     19 C                     0.026274
     20 C                    -0.144149
     21 C                    -0.143560
     22 C                     0.024485
     23 O                    -0.185555
     24 H                     0.087599
     25 H                     0.085578
     26 H                     0.082130
     27 H                     0.078685
     28 H                     0.074416
     29 H                     0.078828
     30 H                     0.073726
     31 H                     0.091295
     32 O                    -0.212945
     33 C                    -0.153789
     34 C                     0.024340
     35 C                    -0.144076
     36 C                    -0.143918
     37 C                     0.025777
     38 O                    -0.186207
     39 H                     0.084438
     40 H                     0.086285
     41 H                     0.110082
     42 H                     0.091284
     43 H                     0.078187
     44 H                     0.072882
     45 H                     0.077879
     46 H                     0.073240
     47 H                     0.082601
     48 H                     0.097702
     49 H                     0.074625
     50 H                     0.095156
     51 H                     0.086177
     52 H                     0.091524
     53 H                     0.092967
     54 H                     0.095218
     55 H                     0.081355
     56 H                     0.105640
  ----------------------------------------
  Sum of atomic charges =     0.000000

                    Cartesian Multipole Moments
 -----------------------------------------------------------------
    Charge (ESU x 10^10)
                 0.0000
    Dipole Moment (Debye)
         X       1.1540      Y      -0.1137      Z       1.4981
       Tot       1.8944
    Quadrupole Moments (Debye-Ang)
        XX    -143.5594     XY      -7.4940     YY    -153.7907
        XZ     -20.4143     YZ      -2.7597     ZZ    -169.5206

 Total job time:  94.72s(wall), 4513.53s(cpu)
        *  Thank you very much for using Q-Chem.  Have a nice day.  *
