 Q-Chem 5.0, Q-Chem, Inc., Pleasanton, CA (2017)
 Q-Chem 5.0.1 for Intel X86 EM64T Linux

User input:
--------------------------------------------------------------
$molecule
0  1
O -3.94934 -3.66094 2.70899
C -3.26408 -4.56952 2.26188
C -3.36658 -6.02376 2.66595
C -2.05607 -6.75296 3.00458
C -0.80841 -5.90053 3.07375
O 0.28389 -6.64865 2.73815
C 1.5071 -5.90575 2.77156
C 1.57147 -4.94567 1.58825
O 2.63976 -4.00479 1.77896
C 3.05013 -3.84047 3.06104
C 4.1804 -2.84781 3.1944
C 5.36009 -3.07782 2.23852
C 5.09579 -4.01328 1.07586
O 5.3617 -3.7818 -0.09473
O -2.44683 -4.30803 1.20745
O 4.84062 -5.30719 1.41742
O 2.2243 -3.65619 3.94906
C 4.74858 -6.35021 0.51869
C 3.80065 -1.39695 2.82341
C 4.74012 -0.42827 3.53813
C 6.03482 -0.69183 2.79512
C 5.53491 -1.64419 1.70067
O 4.20167 -1.25056 1.48267
H 4.51656 -2.87226 4.25792
H 6.25441 -3.47105 2.7702
H 2.74125 -1.14456 3.04738
H 4.38869 0.59866 3.28777
H 4.79837 -0.5328 4.64289
H 6.39205 0.26917 2.36312
H 6.84051 -1.16466 3.39771
H 6.20908 -1.59816 0.81756
O -0.75357 -4.82318 3.65853
C -2.24563 -3.05444 0.66958
C -4.1578 -6.21802 3.97178
C -4.66817 -7.65679 4.0716
C -3.38532 -8.38668 4.40462
C -2.39877 -7.21768 4.4367
O -3.16425 -6.1601 4.96294
H -3.87956 -6.52807 1.81684
H -1.86158 -7.63849 2.35648
H -1.81898 -2.37428 1.43757
H -5.00681 -5.50902 4.08282
H -5.35285 -7.73001 4.94645
H -5.19288 -8.00892 3.15735
H -3.47693 -8.80648 5.43159
H -3.09517 -9.19175 3.69556
H -1.4944 -7.50063 5.02042
H -3.20449 -2.64089 0.29046
H -1.53029 -3.13211 -0.17468
H 4.52082 -7.28566 1.06945
H 5.71193 -6.47732 -0.01961
H 3.93551 -6.15707 -0.21251
H 1.70107 -5.51048 0.64146
H 0.63964 -4.34972 1.49868
H 2.35493 -6.61084 2.63476
H 1.58142 -5.65721 3.84003
$end

$opt
CONSTRAINT
tors           1           2           3           4    -131.974
tors           3           4           5           6    -150.939
tors           4           5           6           7    +179.591
tors           5           6           7           8     -72.747
tors           6           7           8           9    +167.365
tors           7           8           9          10     -21.277
tors           8           9          10          11    +179.578
tors           9          10          11          12     -49.862
tors          11          12          13          14    +131.092
ENDCONSTRAINT
$end

$rem
JOBTYPE                   OPT
METHOD                    B3LYP
DFT_D                     d3_op
BASIS                     STO-3G
GEOM_OPT_MAX_CYCLES       100
GEOM_OPT_TOL_GRADIENT     300
GEOM_OPT_TOL_DISPLACEMENT 1200
GEOM_OPT_TOL_ENERGY       100
SYMMETRY                  False
THRESH                    12
SCF_CONVERGENCE           8
MAX_SUB_FILE_NUM          128
MEM_STATIC                400
MEM_TOTAL                 4000
$end
--------------------------------------------------------------

   16   -1510.0962303553      4.18E-09 Convergence criterion met
 Total energy in the final basis set = -1510.09623036
   14   -1510.1744053402      9.54E-09 Convergence criterion met
 Total energy in the final basis set = -1510.17440534
   14   -1510.2196458605      8.19E-09 Convergence criterion met
 Total energy in the final basis set = -1510.21964586
   15   -1510.2474781349      2.84E-09 Convergence criterion met
 Total energy in the final basis set = -1510.24747813
   14   -1510.2621069201      4.43E-09 Convergence criterion met
 Total energy in the final basis set = -1510.26210692
   13   -1510.2700504472      7.41E-09 Convergence criterion met
 Total energy in the final basis set = -1510.27005045
   13   -1510.2747044293      7.69E-09 Convergence criterion met
 Total energy in the final basis set = -1510.27470443
   13   -1510.2775911496      3.24E-09 Convergence criterion met
   12   -1510.2805986037      5.20E-09 Convergence criterion met
 Total energy in the final basis set = -1510.28059860
   10   -1510.2806716856      9.12E-09 Convergence criterion met
 Total energy in the final basis set = -1510.28067169
   11   -1510.2807110727      3.75E-09 Convergence criterion met
 Total energy in the final basis set = -1510.28071107
   10   -1510.2807347041      6.52E-09 Convergence criterion met
 Total energy in the final basis set = -1510.28073470
   10   -1510.2807474589      5.04E-09 Convergence criterion met
 Total energy in the final basis set = -1510.28074746
    9   -1510.2807522886      6.34E-09 Convergence criterion met
 Total energy in the final basis set = -1510.28075229

             Standard Nuclear Orientation (Angstroms)
    I     Atom           X                Y                Z
 ----------------------------------------------------------------
    1      O       3.7341419247    -2.7759714781    -0.2642856356
    2      C       3.5564017533    -1.6467569924    -0.7667783390
    3      C       4.5220402959    -0.4103405634    -0.6815909358
    4      C       3.8244646658     0.9504279074    -0.2758790630
    5      C       2.3524266266     0.7343059949     0.2076410630
    6      O       1.5922555908     1.9111698279    -0.0885542060
    7      C       0.1837301470     1.7421997886     0.3469784314
    8      C      -0.5685287882     0.7431489766    -0.6188704050
    9      O      -1.8960315850     0.2110813939    -0.2101172566
   10      C      -2.2326757831     0.2325814148     1.1768376758
   11      C      -3.6768275996    -0.3751132941     1.2844710082
   12      C      -4.7166169773     0.2721445835     0.2793510685
   13      C      -4.1411803115     1.4741820977    -0.5499065781
   14      O      -4.2143954840     1.6544595870    -1.7830657565
   15      O       2.4828573571    -1.3232713419    -1.6648965458
   16      O      -3.5600966142     2.4135412358     0.3688455957
   17      O      -1.5099340314     0.5739568434     2.1399104705
   18      C      -3.0354721910     3.5832266903    -0.3701004775
   19      C      -3.6961399307    -1.8843498326     0.7797202710
   20      C      -5.0706850693    -2.5432393938     1.1998622219
   21      C      -6.0521479971    -1.9085213335     0.1441252567
   22      C      -5.0683586165    -0.9636657747    -0.6480764262
   23      O      -3.8089981468    -1.7439803838    -0.6888267810
   24      H      -4.0038806762    -0.2833612659     2.3346332502
   25      H      -5.6092940411     0.6300493443     0.8251358802
   26      H      -2.7941872100    -2.4690015933     1.0462547657
   27      H      -5.0180291781    -3.6387041164     1.0966261841
   28      H      -5.3479874617    -2.3002383819     2.2382119598
   29      H      -6.4723126146    -2.6748896755    -0.5266402553
   30      H      -6.8815548522    -1.3532484950     0.6106746294
   31      H      -5.3816365507    -0.6798022862    -1.6717576726
   32      O       1.8997663558    -0.2688115968     0.8035776533
   33      C       1.5428881676    -2.4630769955    -1.7559294832
   34      C       5.5985321550    -0.5682634462     0.4713134537
   35      C       6.8072790776     0.3887294877     0.1386606261
   36      C       6.1598382660     1.7947179160     0.4271208949
   37      C       4.7316737492     1.3757335175     0.9607747333
   38      O       4.9665761445     0.0838901405     1.6430939675
   39      H       5.0120518026    -0.3063064136    -1.6675827974
   40      H       3.8391643561     1.6993281460    -1.0866769129
   41      H       1.0373932282    -2.6455683821    -0.7851366585
   42      H       5.8557595805    -1.6201941467     0.7035936165
   43      H       7.6537705713     0.1888633556     0.8149252305
   44      H       7.1529760312     0.2825951931    -0.9020123115
   45      H       6.7144039144     2.3463045060     1.2027375586
   46      H       6.0936108287     2.4240584562    -0.4748905779
   47      H       4.2546391362     2.1007083202     1.6487159410
   48      H       2.0568281799    -3.3954498817    -2.0661358748
   49      H       0.7907003305    -2.1823737141    -2.5162468829
   50      H      -2.5249252657     4.2158361365     0.3792273598
   51      H      -3.8519712247     4.1631086206    -0.8473450852
   52      H      -2.3159156550     3.2815348063    -1.1580508438
   53      H      -0.7413226924     1.2215209018    -1.6058430678
   54      H       0.0980123563    -0.1329847886    -0.7765792124
   55      H      -0.2683013932     2.7510743067     0.2977250729
   56      H       0.0925315489     1.3491047050     1.3825467606
 ----------------------------------------------------------------

    9   -1510.2807531938      2.50E-09 Convergence criterion met
 Total energy in the final basis set = -1510.28075319
 Final energy is   -1510.28075319377
 **  OPTIMIZATION CONVERGED  **

                    Orbital Energies (a.u.)
 --------------------------------------------------------------

 Alpha MOs
 -- Occupied --
-18.938 -18.936 -18.934 -18.926 -18.887 -18.886 -18.880 -18.877
-18.875 -18.870 -10.107 -10.101 -10.100 -10.095 -10.071 -10.068
-10.062 -10.061 -10.060 -10.058 -10.058 -10.056 -10.038 -10.037
-10.037 -10.034 -10.021 -10.020 -10.019 -10.018  -1.017  -1.013
 -1.006  -1.003  -0.970  -0.969  -0.942  -0.938  -0.937  -0.930
 -0.765  -0.762  -0.729  -0.722  -0.711  -0.705  -0.694  -0.665
 -0.658  -0.621  -0.597  -0.587  -0.547  -0.544  -0.537  -0.536
 -0.512  -0.509  -0.483  -0.476  -0.465  -0.460  -0.452  -0.443
 -0.437  -0.431  -0.429  -0.415  -0.409  -0.408  -0.405  -0.392
 -0.389  -0.378  -0.373  -0.369  -0.363  -0.356  -0.356  -0.349
 -0.344  -0.341  -0.338  -0.332  -0.331  -0.326  -0.325  -0.311
 -0.310  -0.305  -0.303  -0.298  -0.297  -0.289  -0.283  -0.279
 -0.273  -0.263  -0.255  -0.249  -0.236  -0.234  -0.233  -0.187
 -0.180  -0.173  -0.169  -0.157  -0.154  -0.148  -0.147  -0.143
 -0.142

          Ground-State Mulliken Net Atomic Charges

     Atom                 Charge (a.u.)
  ----------------------------------------
      1 O                    -0.211374
      2 C                     0.215673
      3 C                    -0.079671
      4 C                    -0.078232
      5 C                     0.213730
      6 O                    -0.172156
      7 C                    -0.064869
      8 C                    -0.054318
      9 O                    -0.168421
     10 C                     0.220051
     11 C                    -0.077524
     12 C                    -0.078410
     13 C                     0.216085
     14 O                    -0.212834
     15 O                    -0.177894
     16 O                    -0.175203
     17 O                    -0.210515
     18 C                    -0.129258
     19 C                     0.025795
     20 C                    -0.144026
     21 C                    -0.143653
     22 C                     0.024553
     23 O                    -0.186449
     24 H                     0.085989
     25 H                     0.084300
     26 H                     0.083507
     27 H                     0.078414
     28 H                     0.074142
     29 H                     0.078161
     30 H                     0.073002
     31 H                     0.090244
     32 O                    -0.211592
     33 C                    -0.130241
     34 C                     0.024321
     35 C                    -0.143261
     36 C                    -0.144250
     37 C                     0.025460
     38 O                    -0.187643
     39 H                     0.083616
     40 H                     0.086571
     41 H                     0.091480
     42 H                     0.091720
     43 H                     0.078265
     44 H                     0.072975
     45 H                     0.078180
     46 H                     0.073482
     47 H                     0.083248
     48 H                     0.089553
     49 H                     0.089484
     50 H                     0.090079
     51 H                     0.088540
     52 H                     0.088020
     53 H                     0.086802
     54 H                     0.093665
     55 H                     0.083562
     56 H                     0.119127
  ----------------------------------------
  Sum of atomic charges =     0.000000

                    Cartesian Multipole Moments
 -----------------------------------------------------------------
    Charge (ESU x 10^10)
                 0.0000
    Dipole Moment (Debye)
         X      -0.9318      Y       1.9492      Z      -1.1190
       Tot       2.4331
    Quadrupole Moments (Debye-Ang)
        XX    -140.6705     XY       9.0772     YY    -155.2099
        XZ     -14.1908     YZ       1.1260     ZZ    -166.9697

 Total job time:  56.58s(wall), 2692.82s(cpu)
        *  Thank you very much for using Q-Chem.  Have a nice day.  *
