 Q-Chem 5.0, Q-Chem, Inc., Pleasanton, CA (2017)
 Q-Chem 5.0.1 for Intel X86 EM64T Linux

User input:
--------------------------------------------------------------
$molecule
0  1
O -3.94934 -3.66094 2.70899
C -3.26408 -4.56952 2.26188
C -3.36658 -6.02376 2.66595
C -2.06091 -6.74108 3.04613
C -0.8232 -5.8779 3.15145
O 0.28513 -6.61736 2.85108
C 1.49734 -5.85698 2.89152
C 1.61759 -4.9926 1.64071
O 2.57538 -3.94501 1.85998
C 2.85318 -3.67142 3.15887
C 3.86549 -2.56286 3.32316
C 5.14162 -2.72197 2.48384
C 5.07301 -3.74028 1.36355
O 5.45935 -3.56057 0.21769
O -2.43194 -4.305 1.22002
O 4.89628 -5.03039 1.76523
O 1.93588 -3.50551 3.957
C 4.98707 -6.1291 0.93527
C 3.38059 -1.18036 2.83163
C 4.15501 -0.08323 3.55849
C 5.52915 -0.25279 2.94171
C 5.22209 -1.30963 1.87241
O 3.88126 -1.06708 1.52166
H 4.10735 -2.49473 4.41024
H 6.01967 -2.99253 3.11071
H 2.28619 -1.02516 2.95172
H 3.72855 0.88726 3.21636
H 4.12617 -0.12126 4.66869
H 5.82733 0.71473 2.48046
H 6.32134 -0.60686 3.63661
H 5.96322 -1.24267 1.04615
O -0.79506 -4.79207 3.72153
C -2.22258 -3.04962 0.68953
C -4.19512 -6.22104 3.94809
C -4.696 -7.66383 4.03744
C -3.41769 -8.38135 4.41178
C -2.44266 -7.2037 4.46911
O -3.23251 -6.15111 4.96844
H -3.85106 -6.53428 1.80392
H -1.83915 -7.62786 2.40862
H -1.80605 -2.37249 1.46572
H -5.05327 -5.51919 4.03096
H -5.40633 -7.74025 4.89131
H -5.18957 -8.02337 3.10884
H -3.53662 -8.79813 5.43718
H -3.09949 -9.18654 3.715
H -1.55397 -7.47699 5.08087
H -3.17592 -2.63411 0.29881
H -1.49579 -3.12469 -0.14514
H 4.78396 -7.04697 1.52396
H 6.00814 -6.19927 0.5035
H 4.24012 -6.05497 0.1169
H 1.87467 -5.60968 0.75428
H 0.65496 -4.48284 1.42559
H 2.3589 -6.55638 2.83392
H 1.54636 -5.57137 3.95313
$end

$opt
CONSTRAINT
tors           1           2           3           4    -130.152
tors           3           4           5           6    -150.939
tors           4           5           6           7    +178.300
tors           5           6           7           8     -76.732
tors           6           7           8           9    +161.923
tors           7           8           9          10     -19.219
tors           8           9          10          11    +179.991
tors           9          10          11          12     -49.862
tors          11          12          13          14    +133.730
ENDCONSTRAINT
$end

$rem
JOBTYPE                   OPT
METHOD                    B3LYP
DFT_D                     d3_op
BASIS                     STO-3G
GEOM_OPT_MAX_CYCLES       100
GEOM_OPT_TOL_GRADIENT     300
GEOM_OPT_TOL_DISPLACEMENT 1200
GEOM_OPT_TOL_ENERGY       100
SYMMETRY                  False
THRESH                    12
SCF_CONVERGENCE           8
MAX_SUB_FILE_NUM          128
MEM_STATIC                400
MEM_TOTAL                 4000
$end
--------------------------------------------------------------

   16   -1510.0884354531      4.47E-09 Convergence criterion met
 Total energy in the final basis set = -1510.08843545
   14   -1510.1676165657      5.03E-09 Convergence criterion met
 Total energy in the final basis set = -1510.16761657
   14   -1510.2139385943      8.22E-09 Convergence criterion met
 Total energy in the final basis set = -1510.21393859
   14   -1510.2433046173      8.93E-09 Convergence criterion met
 Total energy in the final basis set = -1510.24330462
   14   -1510.2590839203      5.97E-09 Convergence criterion met
 Total energy in the final basis set = -1510.25908392
   13   -1510.2680388481      5.47E-09 Convergence criterion met
 Total energy in the final basis set = -1510.26803885
   14   -1510.2733674271      4.17E-09 Convergence criterion met
 Total energy in the final basis set = -1510.27336743
   13   -1510.2767587805      4.46E-09 Convergence criterion met
   11   -1510.2807454797      9.80E-09 Convergence criterion met
 Total energy in the final basis set = -1510.28074548
   10   -1510.2807909382      9.96E-09 Convergence criterion met
 Total energy in the final basis set = -1510.28079094
   11   -1510.2808202889      4.98E-09 Convergence criterion met
 Total energy in the final basis set = -1510.28082029
   10   -1510.2808397294      6.49E-09 Convergence criterion met
 Total energy in the final basis set = -1510.28083973
    9   -1510.2808461356      8.72E-09 Convergence criterion met
 Total energy in the final basis set = -1510.28084614
    9   -1510.2808476946      3.92E-09 Convergence criterion met
 Total energy in the final basis set = -1510.28084769

             Standard Nuclear Orientation (Angstroms)
    I     Atom           X                Y                Z
 ----------------------------------------------------------------
    1      O       3.5945631006    -2.7434831625    -0.0898714277
    2      C       3.4536727152    -1.6498093235    -0.6756215756
    3      C       4.4581895129    -0.4412204171    -0.6785997883
    4      C       3.8065484751     0.9585170746    -0.3329937592
    5      C       2.3375267800     0.8063224045     0.1809348993
    6      O       1.5993344326     1.9850674451    -0.1608235552
    7      C       0.1905659157     1.8464349707     0.2810477020
    8      C      -0.5898042638     0.8995447578    -0.7161803364
    9      O      -1.8736886803     0.2900266899    -0.2757824952
   10      C      -2.1520267226     0.2280866071     1.1227827053
   11      C      -3.5582783706    -0.4579352654     1.2584786172
   12      C      -4.6679589870     0.1839364221     0.3282232084
   13      C      -4.1909628368     1.4622623071    -0.4472226880
   14      O      -4.3580327968     1.7286715224    -1.6552781534
   15      O       2.3865554591    -1.3559598947    -1.5924609366
   16      O      -3.5907644489     2.3598631402     0.5009561222
   17      O      -1.4095409387     0.5593032189     2.0751189899
   18      C      -3.1475033858     3.5955206120    -0.1820392491
   19      C      -3.5269480653    -1.9404800583     0.6787985989
   20      C      -4.8529755087    -2.6827848894     1.1161318241
   21      C      -5.9020926586    -2.0475950779     0.1278994558
   22      C      -4.9940253642    -1.0189914968    -0.6503397166
   23      O      -3.7022035103    -1.7344341768    -0.7757432501
   24      H      -3.8446378328    -0.4347009106     2.3240803381
   25      H      -5.5566522266     0.4630271624     0.9245505462
   26      H      -2.5896528162    -2.4939609922     0.8831631133
   27      H      -4.7544856807    -3.7688225010     0.9601284659
   28      H      -5.1006732130    -2.4994371255     2.1740018812
   29      H      -6.3113435251    -2.8008945651    -0.5641730316
   30      H      -6.7375351446    -1.5555612393     0.6511364568
   31      H      -5.3597956584    -0.6999270773    -1.6458965193
   32      O       1.8666209313    -0.1588108211     0.8237254757
   33      C       1.4025815933    -2.4618169920    -1.5874644812
   34      C       5.5487631160    -0.5711427637     0.4641868976
   35      C       6.7791614142     0.3321692543     0.0658500697
   36      C       6.1766097009     1.7693634236     0.2916785039
   37      C       4.7457116021     1.4193678450     0.8665921615
   38      O       4.9549705637     0.1576217997     1.6103665658
   39      H       4.9322080007    -0.4040534421    -1.6769669878
   40      H       3.8291658781     1.6642332500    -1.1812782496
   41      H       0.9041744845    -2.5503089979    -0.6000939842
   42      H       5.7798347753    -1.6168842058     0.7463859265
   43      H       7.6296437894     0.1421606793     0.7399014989
   44      H       7.1056968312     0.1628710657    -0.9726280948
   45      H       6.7588420671     2.3428959435     1.0302015576
   46      H       6.1140339257     2.3543550436    -0.6399690490
   47      H       4.3001157894     2.1915163285     1.5235674456
   48      H       1.8761576566    -3.4342446549    -1.8319939490
   49      H       0.6511847578    -2.2100366212    -2.3586440257
   50      H      -2.6589341212     4.2150640833     0.5924145724
   51      H      -4.0035962393     4.1519839004    -0.6154754680
   52      H      -2.4256838965     3.3769944267    -0.9949037578
   53      H      -0.8355370763     1.4428854557    -1.6527711274
   54      H       0.0903136035     0.0599233846    -0.9826251960
   55      H      -0.2345064206     2.8680594207     0.2646960681
   56      H       0.0895729980     1.4157180049     1.3016120646
 ----------------------------------------------------------------

    8   -1510.2808482449      9.79E-09 Convergence criterion met
 Total energy in the final basis set = -1510.28084824
 Final energy is   -1510.28084824494
 **  OPTIMIZATION CONVERGED  **

                    Orbital Energies (a.u.)
 --------------------------------------------------------------

 Alpha MOs
 -- Occupied --
-18.938 -18.935 -18.935 -18.925 -18.888 -18.886 -18.881 -18.877
-18.875 -18.869 -10.107 -10.102 -10.099 -10.094 -10.071 -10.068
-10.061 -10.060 -10.060 -10.058 -10.058 -10.055 -10.038 -10.037
-10.037 -10.034 -10.021 -10.020 -10.020 -10.018  -1.018  -1.013
 -1.006  -1.002  -0.970  -0.969  -0.943  -0.938  -0.936  -0.929
 -0.765  -0.762  -0.729  -0.722  -0.711  -0.704  -0.694  -0.665
 -0.657  -0.620  -0.597  -0.586  -0.547  -0.544  -0.538  -0.536
 -0.513  -0.509  -0.482  -0.476  -0.465  -0.459  -0.452  -0.444
 -0.437  -0.431  -0.429  -0.415  -0.409  -0.407  -0.405  -0.392
 -0.390  -0.379  -0.372  -0.370  -0.363  -0.356  -0.355  -0.350
 -0.343  -0.341  -0.338  -0.332  -0.331  -0.327  -0.325  -0.311
 -0.310  -0.306  -0.303  -0.298  -0.297  -0.289  -0.282  -0.279
 -0.273  -0.262  -0.256  -0.249  -0.236  -0.234  -0.232  -0.186
 -0.180  -0.174  -0.169  -0.157  -0.154  -0.147  -0.146  -0.144
 -0.142

          Ground-State Mulliken Net Atomic Charges

     Atom                 Charge (a.u.)
  ----------------------------------------
      1 O                    -0.211330
      2 C                     0.215778
      3 C                    -0.079765
      4 C                    -0.078409
      5 C                     0.213101
      6 O                    -0.172473
      7 C                    -0.067381
      8 C                    -0.053533
      9 O                    -0.168904
     10 C                     0.221366
     11 C                    -0.077426
     12 C                    -0.078382
     13 C                     0.216269
     14 O                    -0.212676
     15 O                    -0.178422
     16 O                    -0.174887
     17 O                    -0.209552
     18 C                    -0.129054
     19 C                     0.025793
     20 C                    -0.144048
     21 C                    -0.143535
     22 C                     0.024551
     23 O                    -0.186574
     24 H                     0.086228
     25 H                     0.084397
     26 H                     0.083301
     27 H                     0.078414
     28 H                     0.074255
     29 H                     0.078201
     30 H                     0.073102
     31 H                     0.090240
     32 O                    -0.210819
     33 C                    -0.130328
     34 C                     0.024370
     35 C                    -0.143320
     36 C                    -0.144256
     37 C                     0.025550
     38 O                    -0.187679
     39 H                     0.083525
     40 H                     0.086493
     41 H                     0.091503
     42 H                     0.091654
     43 H                     0.078207
     44 H                     0.072939
     45 H                     0.078117
     46 H                     0.073440
     47 H                     0.083187
     48 H                     0.089280
     49 H                     0.089381
     50 H                     0.090591
     51 H                     0.089283
     52 H                     0.087001
     53 H                     0.086337
     54 H                     0.092118
     55 H                     0.082378
     56 H                     0.122402
  ----------------------------------------
  Sum of atomic charges =     0.000000

                    Cartesian Multipole Moments
 -----------------------------------------------------------------
    Charge (ESU x 10^10)
                 0.0000
    Dipole Moment (Debye)
         X      -0.9373      Y       1.7439      Z      -1.1574
       Tot       2.2933
    Quadrupole Moments (Debye-Ang)
        XX    -141.4937     XY       8.8810     YY    -154.3049
        XZ     -14.9240     YZ       1.3882     ZZ    -167.3115

 Total job time:  59.80s(wall), 2843.11s(cpu)
        *  Thank you very much for using Q-Chem.  Have a nice day.  *
