 Q-Chem 5.0, Q-Chem, Inc., Pleasanton, CA (2017)
 Q-Chem 5.0.1 for Intel X86 EM64T Linux

User input:
--------------------------------------------------------------
$molecule
0  1
O 3.5945631006 -2.7434831625 -0.0898714277
C 3.4536727152 -1.6498093235 -0.6756215756
C 4.4581895129 -0.4412204171 -0.6785997883
C 3.8065484751 0.9585170746 -0.3329937592
C 2.33752678 0.8063224045 0.1809348993
O 1.5993344326 1.9850674451 -0.1608235552
C 0.1905659157 1.8464349707 0.281047702
C -0.5898042638 0.8995447578 -0.7161803364
O -1.8736886803 0.2900266899 -0.2757824952
C -2.1520267226 0.2280866071 1.1227827053
C -3.5582783706 -0.4579352654 1.2584786172
C -4.667958987 0.1839364221 0.3282232084
C -4.1909628368 1.4622623071 -0.447222688
O -4.3580327968 1.7286715224 -1.6552781534
O 2.3865554591 -1.3559598947 -1.5924609366
O -3.5907644489 2.3598631402 0.5009561222
O -1.4095409387 0.5593032189 2.0751189899
C -3.1475033858 3.595520612 -0.1820392491
C -3.5269480653 -1.9404800583 0.6787985989
C -4.8529755087 -2.6827848894 1.1161318241
C -5.9020926586 -2.0475950779 0.1278994558
C -4.9940253642 -1.0189914968 -0.6503397166
O -3.7022035103 -1.7344341768 -0.7757432501
H -3.8446378328 -0.4347009106 2.3240803381
H -5.5566522266 0.4630271624 0.9245505462
H -2.5896528162 -2.4939609922 0.8831631133
H -4.7544856807 -3.768822501 0.9601284659
H -5.100673213 -2.4994371255 2.1740018812
H -6.3113435251 -2.8008945651 -0.5641730316
H -6.7375351446 -1.5555612393 0.6511364568
H -5.3597956584 -0.6999270773 -1.6458965193
O 1.8666209313 -0.1588108211 0.8237254757
C 1.4025815933 -2.461816992 -1.5874644812
C 5.548763116 -0.5711427637 0.4641868976
C 6.7791614142 0.3321692543 0.0658500697
C 6.1766097009 1.7693634236 0.2916785039
C 4.7457116021 1.419367845 0.8665921615
O 4.9549705637 0.1576217997 1.6103665658
H 4.9322080007 -0.4040534421 -1.6769669878
H 3.8291658781 1.66423325 -1.1812782496
H 0.9041744845 -2.5503089979 -0.6000939842
H 5.7798347753 -1.6168842058 0.7463859265
H 7.6296437894 0.1421606793 0.7399014989
H 7.1056968312 0.1628710657 -0.9726280948
H 6.7588420671 2.3428959435 1.0302015576
H 6.1140339257 2.3543550436 -0.639969049
H 4.3001157894 2.1915163285 1.5235674456
H 1.8761576566 -3.4342446549 -1.831993949
H 0.6511847578 -2.2100366212 -2.3586440257
H -2.6589341212 4.2150640833 0.5924145724
H -4.0035962393 4.1519839004 -0.615475468
H -2.4256838965 3.3769944267 -0.9949037578
H -0.8355370763 1.4428854557 -1.6527711274
H 0.0903136035 0.0599233846 -0.982625196
H -0.2345064206 2.8680594207 0.2646960681
H 0.089572998 1.4157180049 1.3016120646
$end

$rem
JOBTYPE                   OPT
METHOD                    B3LYP
DFT_D                     d3_op
BASIS                     STO-3G
GEOM_OPT_MAX_CYCLES       100
GEOM_OPT_TOL_GRADIENT     300
GEOM_OPT_TOL_DISPLACEMENT 1200
GEOM_OPT_TOL_ENERGY       100
SYMMETRY                  False
THRESH                    12
SCF_CONVERGENCE           8
MAX_SUB_FILE_NUM          128
MEM_STATIC                400
MEM_TOTAL                 4000
$end
--------------------------------------------------------------

   16   -1510.2808258234      5.57E-09 Convergence criterion met
 Total energy in the final basis set = -1510.28082582
   14   -1510.2812401013      4.26E-09 Convergence criterion met
 Total energy in the final basis set = -1510.28124010
   14   -1510.2823005508      4.06E-09 Convergence criterion met
 Total energy in the final basis set = -1510.28230055
   13   -1510.2830899278      7.79E-09 Convergence criterion met
 Total energy in the final basis set = -1510.28308993
   13   -1510.2843089735      8.65E-09 Convergence criterion met
 Total energy in the final basis set = -1510.28430897
   14   -1510.2852352850      8.94E-09 Convergence criterion met
 Total energy in the final basis set = -1510.28523528
   13   -1510.2856570134      7.18E-09 Convergence criterion met
 Total energy in the final basis set = -1510.28565701
   14   -1510.2870714709      3.10E-09 Convergence criterion met
   12   -1510.2924051282      7.10E-09 Convergence criterion met
 Total energy in the final basis set = -1510.29240513
   12   -1510.2923883802      5.86E-09 Convergence criterion met
 Total energy in the final basis set = -1510.29238838
   11   -1510.2924450886      8.66E-09 Convergence criterion met
 Total energy in the final basis set = -1510.29244509
   10   -1510.2924353793      9.00E-09 Convergence criterion met
 Total energy in the final basis set = -1510.29243538
   11   -1510.2924508429      2.79E-09 Convergence criterion met
 Total energy in the final basis set = -1510.29245084
   11   -1510.2924538426      3.80E-09 Convergence criterion met
 Total energy in the final basis set = -1510.29245384

             Standard Nuclear Orientation (Angstroms)
    I     Atom           X                Y                Z
 ----------------------------------------------------------------
    1      O      -3.8670767346    -2.0482552872    -1.7316786416
    2      C      -3.6153297726    -1.5030746036    -0.6354333699
    3      C      -4.5483865903    -0.5332085883     0.1726874565
    4      C      -3.8500220281     0.8275122611     0.5992158511
    5      C      -2.3615456401     0.9322156052     0.1293222278
    6      O      -1.5323321033     1.0599144773     1.2977257943
    7      C      -0.1059469304     1.1043000406     0.8984215995
    8      C       0.6303040629    -0.1340291102     1.5230416843
    9      O       2.0438202586    -0.2263420416     1.0797128736
   10      C       2.1468638043    -0.8432382883    -0.2060869798
   11      C       3.6602654733    -1.0772608678    -0.5270359117
   12      C       4.5655981335     0.2186448177    -0.4198316234
   13      C       3.7811227761     1.5520391087    -0.1573042051
   14      O       4.0196422422     2.4175203287     0.7104007254
   15      O      -2.4098622975    -1.6901268497     0.1110405831
   16      O       2.7459793753     1.6534962682    -1.1450960774
   17      O       1.1758773582    -1.1967417357    -0.9131627370
   18      C       2.0711024055     2.9683089538    -1.0546905155
   19      C       4.3352295681    -1.9873962718     0.5918669212
   20      C       5.7446277181    -2.4723515326     0.0661748954
   21      C       6.6085987950    -1.1691921720     0.2534622785
   22      C       5.5181255955    -0.1630330881     0.7895174791
   23      O       4.6676813250    -1.0143203768     1.6544047869
   24      H       3.7205882910    -1.5365603601    -1.5290337472
   25      H       5.1435896317     0.3534618924    -1.3531792809
   26      H       3.6801985067    -2.7878341244     0.9874240955
   27      H       6.1210284140    -3.3009215798     0.6867624261
   28      H       5.7015686347    -2.8080897290    -0.9823832304
   29      H       7.3987289579    -1.3154463762     1.0069103906
   30      H       7.0726194889    -0.8247256819    -0.6844210148
   31      H       5.8943337577     0.7112158746     1.3557161255
   32      O      -1.9261432014     0.9539336801    -1.0431143794
   33      C      -1.4666611491    -2.5680719169    -0.6267285528
   34      C      -5.7324493799    -0.0015936400    -0.7339751046
   35      C      -6.8406956224     0.6245732997     0.1987994438
   36      C      -6.1504014472     1.9725713878     0.6265370737
   37      C      -4.7795604632     1.8759366022    -0.1544308863
   38      O      -5.1395495484     1.1778429765    -1.4083538771
   39      H      -4.9212110113    -1.0733018202     1.0626652881
   40      H      -3.8755000242     0.9665793028     1.6939146607
   41      H      -0.5069019212    -2.0197889936    -0.7689931548
   42      H      -6.0855248937    -0.7373766242    -1.4828441663
   43      H      -7.7651346996     0.8076897225    -0.3718262264
   44      H      -7.0787381345    -0.0237342800     1.0574573010
   45      H      -6.7254414954     2.8475391616     0.2843745070
   46      H      -6.0027286799     2.0497647485     1.7155980530
   47      H      -4.2927819934     2.8453288121    -0.3763629067
   48      H      -1.9103018047    -2.8415083726    -1.6041138810
   49      H      -1.2936595417    -3.4827673557    -0.0261618944
   50      H       1.1374003004     2.8808036962    -1.6403663558
   51      H       2.7044116196     3.7688700415    -1.4896443579
   52      H       1.8369248857     3.2373907067    -0.0060132514
   53      H       0.6745667472    -0.0364701946     2.6262625591
   54      H       0.0684844202    -1.0548949938     1.2612928365
   55      H       0.3379310992     2.0487099990     1.2737383326
   56      H      -0.0563740939     1.0697297493    -0.2120293776
 ----------------------------------------------------------------

   11   -1510.2924529825      2.63E-09 Convergence criterion met
 Total energy in the final basis set = -1510.29245298
 Final energy is   -1510.29245298252
 **  OPTIMIZATION CONVERGED  **

                    Orbital Energies (a.u.)
 --------------------------------------------------------------

 Alpha MOs
 -- Occupied --
-18.942 -18.936 -18.930 -18.925 -18.891 -18.886 -18.885 -18.880
-18.873 -18.872 -10.110 -10.103 -10.098 -10.095 -10.073 -10.066
-10.065 -10.063 -10.060 -10.059 -10.055 -10.043 -10.041 -10.037
-10.035 -10.035 -10.023 -10.022 -10.019 -10.018  -1.021  -1.012
 -1.010  -1.002  -0.973  -0.968  -0.945  -0.940  -0.934  -0.930
 -0.768  -0.761  -0.730  -0.722  -0.712  -0.706  -0.695  -0.665
 -0.649  -0.617  -0.599  -0.583  -0.549  -0.543  -0.540  -0.535
 -0.516  -0.507  -0.487  -0.475  -0.468  -0.458  -0.449  -0.447
 -0.437  -0.433  -0.428  -0.416  -0.411  -0.409  -0.403  -0.399
 -0.394  -0.379  -0.377  -0.366  -0.363  -0.357  -0.355  -0.351
 -0.350  -0.336  -0.335  -0.330  -0.328  -0.326  -0.324  -0.313
 -0.308  -0.308  -0.303  -0.302  -0.295  -0.291  -0.284  -0.278
 -0.269  -0.256  -0.255  -0.244  -0.241  -0.237  -0.232  -0.190
 -0.181  -0.171  -0.165  -0.161  -0.158  -0.155  -0.150  -0.146
 -0.142

          Ground-State Mulliken Net Atomic Charges

     Atom                 Charge (a.u.)
  ----------------------------------------
      1 O                    -0.210558
      2 C                     0.214099
      3 C                    -0.077968
      4 C                    -0.078599
      5 C                     0.213866
      6 O                    -0.173336
      7 C                    -0.059660
      8 C                    -0.049981
      9 O                    -0.165830
     10 C                     0.218969
     11 C                    -0.077730
     12 C                    -0.078149
     13 C                     0.213869
     14 O                    -0.210337
     15 O                    -0.178314
     16 O                    -0.173184
     17 O                    -0.213226
     18 C                    -0.130093
     19 C                     0.026266
     20 C                    -0.144167
     21 C                    -0.143545
     22 C                     0.024495
     23 O                    -0.185521
     24 H                     0.087593
     25 H                     0.085567
     26 H                     0.082118
     27 H                     0.078691
     28 H                     0.074414
     29 H                     0.078829
     30 H                     0.073727
     31 H                     0.091273
     32 O                    -0.213009
     33 C                    -0.153776
     34 C                     0.024352
     35 C                    -0.144085
     36 C                    -0.143903
     37 C                     0.025735
     38 O                    -0.186191
     39 H                     0.084444
     40 H                     0.086302
     41 H                     0.110060
     42 H                     0.091260
     43 H                     0.078184
     44 H                     0.072878
     45 H                     0.077879
     46 H                     0.073242
     47 H                     0.082625
     48 H                     0.097706
     49 H                     0.074620
     50 H                     0.095245
     51 H                     0.086187
     52 H                     0.091528
     53 H                     0.092993
     54 H                     0.095185
     55 H                     0.081384
     56 H                     0.105575
  ----------------------------------------
  Sum of atomic charges =     0.000000

                    Cartesian Multipole Moments
 -----------------------------------------------------------------
    Charge (ESU x 10^10)
                 0.0000
    Dipole Moment (Debye)
         X       1.1725      Y      -0.1118      Z       1.5116
       Tot       1.9163
    Quadrupole Moments (Debye-Ang)
        XX    -143.5458     XY      -7.8798     YY    -153.8851
        XZ     -20.2424     YZ      -2.9679     ZZ    -169.4606

 Total job time:  88.90s(wall), 4236.82s(cpu)
        *  Thank you very much for using Q-Chem.  Have a nice day.  *
