 Q-Chem 5.0, Q-Chem, Inc., Pleasanton, CA (2017)
 Q-Chem 5.0.1 for Intel X86 EM64T Linux

User input:
--------------------------------------------------------------
$molecule
0  1
O 3.7146754174 -2.7816828715 -0.2862833486
C 3.5081233618 -1.6410910142 -0.7508272128
C 4.4860453993 -0.4124455921 -0.7039864108
C 3.8262464496 0.9535237813 -0.2521291483
C 2.3713537887 0.7566781014 0.2870952263
O 1.5977514967 1.9168919933 -0.0447207399
C 0.1985527807 1.7452698761 0.4175073789
C -0.5631651274 0.7882074563 -0.5821805098
O -1.8915520444 0.2415929824 -0.1977102969
C -2.2478466847 0.2440978539 1.1852384725
C -3.6847183694 -0.3859766171 1.2656867118
C -4.7173611871 0.2576262353 0.2517402873
C -4.1556796109 1.4925258976 -0.5371002827
O -4.2572423394 1.726457934 -1.7591559115
O 2.3733479313 -1.2960693615 -1.5613225237
O -3.5646151148 2.3973100584 0.4098937561
O -1.5422964279 0.5823894058 2.161433221
C -3.0470163438 3.5941818542 -0.2895732507
C -3.6752888566 -1.8886438686 0.7423428666
C -5.0518560482 -2.5672600294 1.1237792092
C -6.0152762435 -1.9380830976 0.0484145091
C -5.0264632539 -0.9672647995 -0.7054263032
O -3.756271332 -1.7305010104 -0.7267273941
H -4.0285883703 -0.3117097873 2.3118234515
H -5.6291613313 0.5839964982 0.7859034436
H -2.7731830962 -2.4667835258 1.0221656206
H -4.983560069 -3.6614236618 1.0161445662
H -5.3574370992 -2.3331739202 2.1562515597
H -6.4035886164 -2.7039224457 -0.6419963052
H -6.866611284 -1.4021774699 0.4978530892
H -5.3196871975 -0.6710055978 -1.7315771824
O 1.9375099457 -0.2166028569 0.9424684928
C 1.4344328964 -2.4395356285 -1.6230154764
C 5.6174072625 -0.5933714986 0.390117102
C 6.8169899215 0.3578786856 0.0091527362
C 6.2007238102 1.7652007619 0.3540617305
C 4.794901756 1.3513864267 0.9477399712
O 5.0505499122 0.0482245946 1.60003832
H 4.9269700583 -0.3049377324 -1.7126217556
H 3.8182761229 1.7101579935 -1.0558257728
H 0.9935288504 -2.6518060945 -0.6272543125
H 5.8765500736 -1.6503513266 0.5958155005
H 7.6962381006 0.1385875071 0.6359450514
H 7.1057935752 0.2658634466 -1.049991004
H 6.797693852 2.2955046912 1.112815281
H 6.099211767 2.413047471 -0.5314309554
H 4.3580101098 2.069827667 1.6684876796
H 1.9324631534 -3.3592946776 -1.9912766053
H 0.6334605639 -2.1433510138 -2.3254209605
H -2.5562328493 4.212927272 0.4841198943
H -3.8645695975 4.1749964074 -0.7636436079
H -2.3108799229 3.3238973846 -1.07364411
H -0.7326031639 1.307953762 -1.5488276037
H 0.1016542244 -0.0818824533 -0.779517826
H -0.250381564 2.7569805174 0.4131223443
H 0.1267659566 1.3141940289 1.4381586332
$end

$rem
JOBTYPE                   OPT
METHOD                    B3LYP
DFT_D                     d3_op
BASIS                     STO-3G
GEOM_OPT_MAX_CYCLES       100
GEOM_OPT_TOL_GRADIENT     300
GEOM_OPT_TOL_DISPLACEMENT 1200
GEOM_OPT_TOL_ENERGY       100
SYMMETRY                  False
THRESH                    12
SCF_CONVERGENCE           8
MAX_SUB_FILE_NUM          128
MEM_STATIC                400
MEM_TOTAL                 4000
$end
--------------------------------------------------------------

   16   -1510.2805735747      5.46E-09 Convergence criterion met
 Total energy in the final basis set = -1510.28057357
   14   -1510.2815524785      3.23E-09 Convergence criterion met
 Total energy in the final basis set = -1510.28155248
   14   -1510.2823574064      3.47E-09 Convergence criterion met
 Total energy in the final basis set = -1510.28235741
   13   -1510.2834433508      4.58E-09 Convergence criterion met
 Total energy in the final basis set = -1510.28344335
   13   -1510.2845606116      5.13E-09 Convergence criterion met
 Total energy in the final basis set = -1510.28456061
   14   -1510.2854970339      7.23E-09 Convergence criterion met
 Total energy in the final basis set = -1510.28549703
   14   -1510.2862616433      9.13E-09 Convergence criterion met
 Total energy in the final basis set = -1510.28626164
   13   -1510.2866604071      9.64E-09 Convergence criterion met
   13   -1510.2923761947      1.42E-09 Convergence criterion met
 Total energy in the final basis set = -1510.29237619
   11   -1510.2924423455      9.93E-09 Convergence criterion met
 Total energy in the final basis set = -1510.29244235
   12   -1510.2924402311      3.34E-09 Convergence criterion met
 Total energy in the final basis set = -1510.29244023
   11   -1510.2924559891      6.36E-09 Convergence criterion met
 Total energy in the final basis set = -1510.29245599
   11   -1510.2924556461      4.78E-09 Convergence criterion met
 Total energy in the final basis set = -1510.29245565
   11   -1510.2924569451      2.68E-09 Convergence criterion met
 Total energy in the final basis set = -1510.29245695

             Standard Nuclear Orientation (Angstroms)
    I     Atom           X                Y                Z
 ----------------------------------------------------------------
    1      O      -3.8520988711    -2.0568275663    -1.7339326488
    2      C      -3.6030483767    -1.5171442489    -0.6343578015
    3      C      -4.5408640189    -0.5568165295     0.1795364851
    4      C      -3.8485385593     0.8032063789     0.6174173649
    5      C      -2.3602119394     0.9184214520     0.1493971255
    6      O      -1.5324282986     1.0448646929     1.3190004153
    7      C      -0.1064283936     1.1028160133     0.9200990231
    8      C       0.6391710107    -0.1365253735     1.5319556128
    9      O       2.0516423424    -0.2171814759     1.0826830735
   10      C       2.1525589050    -0.8200630258    -0.2099704204
   11      C       3.6654748174    -1.0413334718    -0.5416855447
   12      C       4.5647976850     0.2579760527    -0.4255192249
   13      C       3.7764235202     1.5843472294    -0.1402148051
   14      O       4.0152955810     2.4370819773     0.7399480709
   15      O      -2.3968184846    -1.7030384140     0.1111704131
   16      O       2.7364582965     1.6968542381    -1.1217375486
   17      O       1.1802363525    -1.1713604342    -0.9163214025
   18      C       2.0570276668     3.0074940572    -1.0079709240
   19      C       4.3520554598    -1.9606485584     0.5626934486
   20      C       5.7598903512    -2.4333502383     0.0218157195
   21      C       6.6191274670    -1.1281642542     0.2170622661
   22      C       5.5280816466    -0.1331127937     0.7721254467
   23      O       4.6876379170    -0.9978767749     1.6335009723
   24      H       3.7225840608    -1.4891279909    -1.5490930029
   25      H       5.1349144685     0.4072691558    -1.3614981437
   26      H       3.7032860376    -2.7682842790     0.9538897205
   27      H       6.1445866817    -3.2667639018     0.6307141109
   28      H       5.7109005773    -2.7578185040    -1.0299919870
   29      H       7.4154288495    -1.2788590973     0.9631120831
   30      H       7.0748183785    -0.7713992891    -0.7203556591
   31      H       5.9044874183     0.7364220425     1.3454082596
   32      O      -1.9243014756     0.9497468229    -1.0226300147
   33      C      -1.4488403907    -2.5702759962    -0.6329129268
   34      C      -5.7256058735    -0.0227345661    -0.7248930064
   35      C      -6.8380176620     0.5911876407     0.2111717788
   36      C      -6.1540032276     1.9385353926     0.6507668756
   37      C      -4.7816800902     1.8537383509    -0.1290006286
   38      O      -5.1367277530     1.1645081855    -1.3890901778
   39      H      -4.9130415413    -1.1048821735     1.0649113508
   40      H      -3.8754792821     0.9335887031     1.7131486386
   41      H      -0.4933691435    -2.0144065284    -0.7746460546
   42      H      -6.0743412527    -0.7540014022    -1.4801846577
   43      H      -7.7623397786     0.7750948144    -0.3593957507
   44      H      -7.0745400590    -0.0649534263     1.0642700381
   45      H      -6.7323914748     2.8138243706     0.3151084984
   46      H      -6.0081086271     2.0072878511     1.7406175288
   47      H      -4.2987062912     2.8269122102    -0.3424203262
   48      H      -1.8925391413    -2.8419468451    -1.6107707985
   49      H      -1.2682359111    -3.4865942096    -0.0371069070
   50      H       1.1219332756     2.9259850287    -1.5922725985
   51      H       2.6860181426     3.8174642211    -1.4316171250
   52      H       1.8248937864     3.2585425580     0.0456192591
   53      H       0.6869851483    -0.0481998618     2.6357817437
   54      H       0.0817267744    -1.0583690077     1.2643325524
   55      H       0.3307370611     2.0466685179     1.3044957434
   56      H      -0.0571611086     1.0794497286    -0.1906528634
 ----------------------------------------------------------------

    9   -1510.2924570895      5.96E-09 Convergence criterion met
 Total energy in the final basis set = -1510.29245709
 Final energy is   -1510.29245708951
 **  OPTIMIZATION CONVERGED  **

                    Orbital Energies (a.u.)
 --------------------------------------------------------------

 Alpha MOs
 -- Occupied --
-18.942 -18.936 -18.930 -18.925 -18.891 -18.886 -18.885 -18.880
-18.873 -18.872 -10.110 -10.103 -10.097 -10.095 -10.073 -10.066
-10.065 -10.063 -10.060 -10.059 -10.055 -10.043 -10.041 -10.037
-10.035 -10.035 -10.023 -10.022 -10.019 -10.018  -1.021  -1.012
 -1.010  -1.002  -0.973  -0.968  -0.945  -0.940  -0.934  -0.930
 -0.768  -0.762  -0.730  -0.722  -0.712  -0.706  -0.695  -0.665
 -0.649  -0.617  -0.599  -0.583  -0.549  -0.543  -0.540  -0.535
 -0.516  -0.507  -0.487  -0.475  -0.468  -0.458  -0.449  -0.447
 -0.437  -0.433  -0.428  -0.416  -0.411  -0.409  -0.403  -0.399
 -0.394  -0.379  -0.377  -0.366  -0.363  -0.357  -0.355  -0.351
 -0.350  -0.336  -0.335  -0.330  -0.328  -0.326  -0.324  -0.313
 -0.308  -0.308  -0.303  -0.302  -0.294  -0.291  -0.284  -0.278
 -0.269  -0.256  -0.255  -0.244  -0.241  -0.237  -0.232  -0.190
 -0.180  -0.171  -0.165  -0.161  -0.158  -0.155  -0.150  -0.146
 -0.142

          Ground-State Mulliken Net Atomic Charges

     Atom                 Charge (a.u.)
  ----------------------------------------
      1 O                    -0.210561
      2 C                     0.214154
      3 C                    -0.077990
      4 C                    -0.078593
      5 C                     0.213879
      6 O                    -0.173343
      7 C                    -0.059726
      8 C                    -0.049997
      9 O                    -0.165782
     10 C                     0.218860
     11 C                    -0.077741
     12 C                    -0.078160
     13 C                     0.213839
     14 O                    -0.210335
     15 O                    -0.178260
     16 O                    -0.173172
     17 O                    -0.213173
     18 C                    -0.130065
     19 C                     0.026266
     20 C                    -0.144156
     21 C                    -0.143550
     22 C                     0.024489
     23 O                    -0.185541
     24 H                     0.087603
     25 H                     0.085565
     26 H                     0.082128
     27 H                     0.078685
     28 H                     0.074414
     29 H                     0.078823
     30 H                     0.073725
     31 H                     0.091289
     32 O                    -0.212958
     33 C                    -0.153731
     34 C                     0.024335
     35 C                    -0.144080
     36 C                    -0.143916
     37 C                     0.025759
     38 O                    -0.186162
     39 H                     0.084450
     40 H                     0.086299
     41 H                     0.110032
     42 H                     0.091249
     43 H                     0.078181
     44 H                     0.072883
     45 H                     0.077885
     46 H                     0.073246
     47 H                     0.082586
     48 H                     0.097724
     49 H                     0.074635
     50 H                     0.095175
     51 H                     0.086184
     52 H                     0.091485
     53 H                     0.092979
     54 H                     0.095170
     55 H                     0.081353
     56 H                     0.105663
  ----------------------------------------
  Sum of atomic charges =     0.000000

                    Cartesian Multipole Moments
 -----------------------------------------------------------------
    Charge (ESU x 10^10)
                 0.0000
    Dipole Moment (Debye)
         X       1.1594      Y      -0.1042      Z       1.4994
       Tot       1.8982
    Quadrupole Moments (Debye-Ang)
        XX    -143.5511     XY      -7.6422     YY    -153.8703
        XZ     -20.3520     YZ      -2.9121     ZZ    -169.4322

 Total job time:  90.86s(wall), 4326.46s(cpu)
        *  Thank you very much for using Q-Chem.  Have a nice day.  *
