 Q-Chem 5.0, Q-Chem, Inc., Pleasanton, CA (2017)
 Q-Chem 5.0.1 for Intel X86 EM64T Linux

User input:
--------------------------------------------------------------
$molecule
0  1
O -3.94934 -3.66094 2.70899
C -3.26408 -4.56952 2.26188
C -3.36658 -6.02376 2.66595
C -2.05346 -6.76137 2.97497
C -0.79946 -5.91657 3.01828
O 0.26713 -6.64632 2.57637
C 1.4885 -5.90007 2.55148
C 1.51341 -4.97294 1.34072
O 2.59062 -4.03141 1.46736
C 3.07472 -3.86466 2.72314
C 4.20384 -2.86405 2.79039
C 5.32669 -3.08532 1.76642
C 5.00091 -4.0222 0.62064
O 5.24884 -3.81337 -0.55812
O -2.45765 -4.31014 1.19858
O 4.75346 -5.31239 0.98309
O 2.30302 -3.66679 3.65567
C 4.62485 -6.36424 0.09907
C 3.79192 -1.41589 2.44235
C 4.7653 -0.43968 3.0991
C 6.01463 -0.69364 2.27934
C 5.45702 -1.65105 1.21775
O 4.11023 -1.26787 1.07993
H 4.60289 -2.88516 3.83216
H 6.25422 -3.47134 2.24373
H 2.74616 -1.17055 2.7294
H 4.39164 0.58447 2.87051
H 4.8908 -0.54349 4.19832
H 6.33719 0.26968 1.82576
H 6.8592 -1.15917 2.83234
H 6.07631 -1.6002 0.29561
O -0.71295 -4.84683 3.61284
C -2.26221 -3.05771 0.65578
C -4.13095 -6.21418 3.98802
C -4.64664 -7.65031 4.09843
C -3.36108 -8.38656 4.40569
C -2.36772 -7.22294 4.41483
O -3.11592 -6.16121 4.95731
H -3.89973 -6.52351 1.82664
H -1.88043 -7.65105 2.32633
H -1.82768 -2.37582 1.41778
H -4.9736 -5.5007 4.11718
H -5.31432 -7.72074 4.98653
H -5.19081 -7.99917 3.19434
H -3.43295 -8.80319 5.43553
H -3.09091 -9.19531 3.69295
H -1.45249 -7.51067 4.97902
H -3.22494 -2.64507 0.28562
H -1.55566 -3.13718 -0.1957
H 4.41223 -7.29272 0.66742
H 5.56784 -6.50191 -0.47169
H 3.78719 -6.17433 -0.60476
H 1.60531 -5.56363 0.40529
H 0.57754 -4.37928 1.27863
H 2.32882 -6.60935 2.39019
H 1.61298 -5.64699 3.61456
$end

$opt
CONSTRAINT
tors           1           2           3           4    -133.269
tors           3           4           5           6    -147.093
tors           4           5           6           7    +178.300
tors           5           6           7           8     -77.231
tors           6           7           8           9    +167.811
tors           7           8           9          10     -19.315
tors           8           9          10          11    +179.991
tors           9          10          11          12     -49.862
tors          11          12          13          14    +134.485
ENDCONSTRAINT
$end

$rem
JOBTYPE                   OPT
METHOD                    B3LYP
DFT_D                     d3_op
BASIS                     STO-3G
GEOM_OPT_MAX_CYCLES       100
GEOM_OPT_TOL_GRADIENT     300
GEOM_OPT_TOL_DISPLACEMENT 1200
GEOM_OPT_TOL_ENERGY       100
SYMMETRY                  False
THRESH                    12
SCF_CONVERGENCE           8
MAX_SUB_FILE_NUM          128
MEM_STATIC                400
MEM_TOTAL                 4000
$end
--------------------------------------------------------------

   16   -1510.0926818854      4.37E-09 Convergence criterion met
 Total energy in the final basis set = -1510.09268189
   14   -1510.1714977637      8.12E-09 Convergence criterion met
 Total energy in the final basis set = -1510.17149776
   14   -1510.2172359587      8.42E-09 Convergence criterion met
 Total energy in the final basis set = -1510.21723596
   15   -1510.2457000630      2.82E-09 Convergence criterion met
 Total energy in the final basis set = -1510.24570006
   14   -1510.2607618851      5.22E-09 Convergence criterion met
 Total energy in the final basis set = -1510.26076189
   14   -1510.2690175885      3.34E-09 Convergence criterion met
 Total energy in the final basis set = -1510.26901759
   13   -1510.2738785649      8.23E-09 Convergence criterion met
 Total energy in the final basis set = -1510.27387856
   13   -1510.2769533081      3.11E-09 Convergence criterion met
   11   -1510.2804886113      9.38E-09 Convergence criterion met
 Total energy in the final basis set = -1510.28048861
   11   -1510.2805228270      6.71E-09 Convergence criterion met
 Total energy in the final basis set = -1510.28052283
   10   -1510.2805509274      7.92E-09 Convergence criterion met
 Total energy in the final basis set = -1510.28055093
   10   -1510.2805683803      8.13E-09 Convergence criterion met
 Total energy in the final basis set = -1510.28056838
    9   -1510.2805737147      5.67E-09 Convergence criterion met
 Total energy in the final basis set = -1510.28057371
    9   -1510.2805749235      3.57E-09 Convergence criterion met
 Total energy in the final basis set = -1510.28057492

             Standard Nuclear Orientation (Angstroms)
    I     Atom           X                Y                Z
 ----------------------------------------------------------------
    1      O       3.7146754174    -2.7816828715    -0.2862833486
    2      C       3.5081233618    -1.6410910142    -0.7508272128
    3      C       4.4860453993    -0.4124455921    -0.7039864108
    4      C       3.8262464496     0.9535237813    -0.2521291483
    5      C       2.3713537887     0.7566781014     0.2870952263
    6      O       1.5977514967     1.9168919933    -0.0447207399
    7      C       0.1985527807     1.7452698761     0.4175073789
    8      C      -0.5631651274     0.7882074563    -0.5821805098
    9      O      -1.8915520444     0.2415929824    -0.1977102969
   10      C      -2.2478466847     0.2440978539     1.1852384725
   11      C      -3.6847183694    -0.3859766171     1.2656867118
   12      C      -4.7173611871     0.2576262353     0.2517402873
   13      C      -4.1556796109     1.4925258976    -0.5371002827
   14      O      -4.2572423394     1.7264579340    -1.7591559115
   15      O       2.3733479313    -1.2960693615    -1.5613225237
   16      O      -3.5646151148     2.3973100584     0.4098937561
   17      O      -1.5422964279     0.5823894058     2.1614332210
   18      C      -3.0470163438     3.5941818542    -0.2895732507
   19      C      -3.6752888566    -1.8886438686     0.7423428666
   20      C      -5.0518560482    -2.5672600294     1.1237792092
   21      C      -6.0152762435    -1.9380830976     0.0484145091
   22      C      -5.0264632539    -0.9672647995    -0.7054263032
   23      O      -3.7562713320    -1.7305010104    -0.7267273941
   24      H      -4.0285883703    -0.3117097873     2.3118234515
   25      H      -5.6291613313     0.5839964982     0.7859034436
   26      H      -2.7731830962    -2.4667835258     1.0221656206
   27      H      -4.9835600690    -3.6614236618     1.0161445662
   28      H      -5.3574370992    -2.3331739202     2.1562515597
   29      H      -6.4035886164    -2.7039224457    -0.6419963052
   30      H      -6.8666112840    -1.4021774699     0.4978530892
   31      H      -5.3196871975    -0.6710055978    -1.7315771824
   32      O       1.9375099457    -0.2166028569     0.9424684928
   33      C       1.4344328964    -2.4395356285    -1.6230154764
   34      C       5.6174072625    -0.5933714986     0.3901171020
   35      C       6.8169899215     0.3578786856     0.0091527362
   36      C       6.2007238102     1.7652007619     0.3540617305
   37      C       4.7949017560     1.3513864267     0.9477399712
   38      O       5.0505499122     0.0482245946     1.6000383200
   39      H       4.9269700583    -0.3049377324    -1.7126217556
   40      H       3.8182761229     1.7101579935    -1.0558257728
   41      H       0.9935288504    -2.6518060945    -0.6272543125
   42      H       5.8765500736    -1.6503513266     0.5958155005
   43      H       7.6962381006     0.1385875071     0.6359450514
   44      H       7.1057935752     0.2658634466    -1.0499910040
   45      H       6.7976938520     2.2955046912     1.1128152810
   46      H       6.0992117670     2.4130474710    -0.5314309554
   47      H       4.3580101098     2.0698276670     1.6684876796
   48      H       1.9324631534    -3.3592946776    -1.9912766053
   49      H       0.6334605639    -2.1433510138    -2.3254209605
   50      H      -2.5562328493     4.2129272720     0.4841198943
   51      H      -3.8645695975     4.1749964074    -0.7636436079
   52      H      -2.3108799229     3.3238973846    -1.0736441100
   53      H      -0.7326031639     1.3079537620    -1.5488276037
   54      H       0.1016542244    -0.0818824533    -0.7795178260
   55      H      -0.2503815640     2.7569805174     0.4131223443
   56      H       0.1267659566     1.3141940289     1.4381586332
 ----------------------------------------------------------------

    8   -1510.2805753177      8.96E-09 Convergence criterion met
 Total energy in the final basis set = -1510.28057532
 Final energy is   -1510.28057531767
 **  OPTIMIZATION CONVERGED  **

                    Orbital Energies (a.u.)
 --------------------------------------------------------------

 Alpha MOs
 -- Occupied --
-18.936 -18.935 -18.934 -18.927 -18.887 -18.886 -18.879 -18.877
-18.874 -18.872 -10.106 -10.102 -10.099 -10.096 -10.070 -10.068
-10.062 -10.061 -10.060 -10.059 -10.058 -10.056 -10.038 -10.037
-10.037 -10.035 -10.021 -10.020 -10.020 -10.018  -1.017  -1.013
 -1.006  -1.003  -0.970  -0.969  -0.941  -0.938  -0.936  -0.931
 -0.765  -0.762  -0.728  -0.722  -0.711  -0.705  -0.694  -0.665
 -0.658  -0.620  -0.597  -0.586  -0.547  -0.544  -0.538  -0.536
 -0.512  -0.509  -0.482  -0.476  -0.465  -0.460  -0.452  -0.444
 -0.437  -0.431  -0.430  -0.415  -0.409  -0.408  -0.406  -0.393
 -0.389  -0.378  -0.373  -0.369  -0.363  -0.357  -0.355  -0.349
 -0.344  -0.340  -0.337  -0.332  -0.331  -0.326  -0.325  -0.311
 -0.310  -0.305  -0.303  -0.298  -0.297  -0.289  -0.283  -0.278
 -0.273  -0.262  -0.256  -0.250  -0.236  -0.234  -0.233  -0.185
 -0.180  -0.173  -0.170  -0.157  -0.155  -0.148  -0.146  -0.143
 -0.142

          Ground-State Mulliken Net Atomic Charges

     Atom                 Charge (a.u.)
  ----------------------------------------
      1 O                    -0.210704
      2 C                     0.215392
      3 C                    -0.079477
      4 C                    -0.078493
      5 C                     0.212866
      6 O                    -0.172798
      7 C                    -0.063732
      8 C                    -0.053891
      9 O                    -0.169511
     10 C                     0.220049
     11 C                    -0.077504
     12 C                    -0.078393
     13 C                     0.216312
     14 O                    -0.212833
     15 O                    -0.177262
     16 O                    -0.174690
     17 O                    -0.211290
     18 C                    -0.129088
     19 C                     0.025680
     20 C                    -0.144100
     21 C                    -0.143491
     22 C                     0.024540
     23 O                    -0.186658
     24 H                     0.085856
     25 H                     0.084295
     26 H                     0.083269
     27 H                     0.078310
     28 H                     0.074117
     29 H                     0.078128
     30 H                     0.073004
     31 H                     0.090238
     32 O                    -0.211814
     33 C                    -0.130375
     34 C                     0.024386
     35 C                    -0.143309
     36 C                    -0.144241
     37 C                     0.025636
     38 O                    -0.187356
     39 H                     0.083780
     40 H                     0.086491
     41 H                     0.091881
     42 H                     0.091774
     43 H                     0.078287
     44 H                     0.072930
     45 H                     0.078213
     46 H                     0.073486
     47 H                     0.083168
     48 H                     0.089899
     49 H                     0.090309
     50 H                     0.090357
     51 H                     0.089079
     52 H                     0.087639
     53 H                     0.086121
     54 H                     0.092268
     55 H                     0.083527
     56 H                     0.119723
  ----------------------------------------
  Sum of atomic charges =     0.000000

                    Cartesian Multipole Moments
 -----------------------------------------------------------------
    Charge (ESU x 10^10)
                 0.0000
    Dipole Moment (Debye)
         X      -0.9506      Y       1.8569      Z      -1.1949
       Tot       2.4041
    Quadrupole Moments (Debye-Ang)
        XX    -141.2016     XY       9.5328     YY    -155.0543
        XZ     -14.3984     YZ       1.4141     ZZ    -167.2492

 Total job time:  59.56s(wall), 2833.68s(cpu)
        *  Thank you very much for using Q-Chem.  Have a nice day.  *
