 Q-Chem 5.0, Q-Chem, Inc., Pleasanton, CA (2017)
 Q-Chem 5.0.1 for Intel X86 EM64T Linux

User input:
--------------------------------------------------------------
$molecule
0  1
O 3.6006466775 -2.734128198 -0.0062878033
C 3.4710710565 -1.663375784 -0.6354863816
C 4.4683603579 -0.4487736242 -0.6528408678
C 3.7977131038 0.957350029 -0.3779390267
C 2.3197961066 0.8095469771 0.1110993194
O 1.5903964271 1.9912050927 -0.2380119852
C 0.1801167507 1.8644916008 0.2024456119
C -0.6089311658 0.917982584 -0.7887382218
O -1.8793243416 0.2985775825 -0.3233191136
C -2.0986602406 0.1750243692 1.0804351014
C -3.5031044197 -0.5050971243 1.2459455018
C -4.6504757259 0.1793752825 0.3915472315
C -4.1756482779 1.4408682823 -0.4143821516
O -4.2758545464 1.6480291298 -1.6413499203
O 2.43678811 -1.4134387427 -1.6018351899
O -3.6302644183 2.3837565921 0.5222872387
O -1.3195994587 0.4733403099 2.0149558129
C -3.1814556456 3.6006402248 -0.1901200552
C -3.5115984406 -1.9687757199 0.6178324552
C -4.8055364923 -2.7236253857 1.1216116165
C -5.9194635189 -2.0419429259 0.2418791142
C -5.061138103 -1.0031624597 -0.5789557912
O -3.7856585667 -1.7202417345 -0.8142451768
H -3.7440097946 -0.5185486981 2.3229858865
H -5.4916370093 0.4807732314 1.0426989262
H -2.5635378303 -2.5278357936 0.7416390126
H -4.7262775633 -3.8018933257 0.9103909215
H -4.9719998353 -2.5871837447 2.2022576808
H -6.3979026575 -2.7673087816 -0.4351327099
H -6.6996364492 -1.5530599226 0.8468015263
H -5.4952911406 -0.6637042478 -1.5394421783
O 1.8373788992 -0.1544349654 0.7474176437
C 1.4527601572 -2.5184829038 -1.5792131003
C 5.5274487775 -0.5288709739 0.5235403725
C 6.7640012487 0.3651835996 0.1236662829
C 6.1469356412 1.8062781424 0.2725959173
C 4.7038069597 1.471025787 0.8255074686
O 4.8995131026 0.2408234146 1.6237690029
H 4.9704598783 -0.4441094042 -1.637983322
H 3.8342054597 1.6311776769 -1.2512111609
H 0.9271248005 -2.566667676 -0.6032172335
H 5.755417384 -1.561644474 0.8521599836
H 7.5953432232 0.2093727816 0.829502121
H 7.1211673928 0.1551833741 -0.8971803739
H 6.7070038758 2.4155901743 0.9995102518
H 6.1034857238 2.3501138219 -0.6847219399
H 4.238269465 2.2663406109 1.439640454
H 1.9320327328 -3.5000639133 -1.770683437
H 0.7233757103 -2.2986839932 -2.3806854305
H -2.6933325064 4.2386958632 0.5694444342
H -4.0351538392 4.1487962417 -0.6389661194
H -2.45943061 3.360232145 -0.9964433458
H -0.8809386028 1.4621581566 -1.7172365414
H 0.0722928001 0.084864807 -1.0724250166
H -0.2379791861 2.8888253049 0.1838701621
H 0.0769805024 1.4302150131 1.2223299009
$end

$rem
JOBTYPE                   OPT
METHOD                    B3LYP
DFT_D                     d3_op
BASIS                     STO-3G
GEOM_OPT_MAX_CYCLES       100
GEOM_OPT_TOL_GRADIENT     300
GEOM_OPT_TOL_DISPLACEMENT 1200
GEOM_OPT_TOL_ENERGY       100
SYMMETRY                  False
THRESH                    12
SCF_CONVERGENCE           8
MAX_SUB_FILE_NUM          128
MEM_STATIC                400
MEM_TOTAL                 4000
$end
--------------------------------------------------------------

   16   -1510.2813018157      5.71E-09 Convergence criterion met
 Total energy in the final basis set = -1510.28130182
   13   -1510.2819432279      8.67E-09 Convergence criterion met
 Total energy in the final basis set = -1510.28194323
   13   -1510.2824627443      7.74E-09 Convergence criterion met
 Total energy in the final basis set = -1510.28246274
   13   -1510.2831980145      4.28E-09 Convergence criterion met
 Total energy in the final basis set = -1510.28319801
   13   -1510.2842319975      5.67E-09 Convergence criterion met
 Total energy in the final basis set = -1510.28423200
   13   -1510.2851486275      6.47E-09 Convergence criterion met
 Total energy in the final basis set = -1510.28514863
   14   -1510.2859660183      7.70E-09 Convergence criterion met
 Total energy in the final basis set = -1510.28596602
   14   -1510.2859646762      7.71E-09 Convergence criterion met
   12   -1510.2924149083      6.88E-09 Convergence criterion met
 Total energy in the final basis set = -1510.29241491
   12   -1510.2923421736      9.49E-09 Convergence criterion met
 Total energy in the final basis set = -1510.29234217
   12   -1510.2924427138      7.51E-09 Convergence criterion met
 Total energy in the final basis set = -1510.29244271
   12   -1510.2924494580      2.39E-09 Convergence criterion met
 Total energy in the final basis set = -1510.29244946
   11   -1510.2924527650      3.66E-09 Convergence criterion met
 Total energy in the final basis set = -1510.29245276
    9   -1510.2924546327      7.89E-09 Convergence criterion met
 Total energy in the final basis set = -1510.29245463

             Standard Nuclear Orientation (Angstroms)
    I     Atom           X                Y                Z
 ----------------------------------------------------------------
    1      O      -3.8675186041    -2.0535323778    -1.7238191034
    2      C      -3.6150974963    -1.5072177354    -0.6283013868
    3      C      -4.5477166813    -0.5367758385     0.1796095997
    4      C      -3.8495738124     0.8248463421     0.6034368281
    5      C      -2.3617656245     0.9300466451     0.1314749360
    6      O      -1.5311422991     1.0607025155     1.2986078585
    7      C      -0.1054761959     1.1080871548     0.8971350641
    8      C       0.6344272835    -0.1290135213     1.5199990361
    9      O       2.0463649663    -0.2205482409     1.0713539174
   10      C       2.1441714596    -0.8359666398    -0.2155812593
   11      C       3.6559832260    -1.0693978992    -0.5439412815
   12      C       4.5626538282     0.2256087879    -0.4372726655
   13      C       3.7812204898     1.5589770441    -0.1657253980
   14      O       4.0258599179     2.4206826139     0.7040512479
   15      O      -2.4086484040    -1.6926019335     0.1170030436
   16      O       2.7412091935     1.6661478077    -1.1477447272
   17      O       1.1701087900    -1.1883369154    -0.9190044675
   18      C       2.0694790776     2.9819197525    -1.0485012590
   19      C       4.3358271021    -1.9833728269     0.5689597971
   20      C       5.7421323051    -2.4679793933     0.0346802052
   21      C       6.6080696531    -1.1659895285     0.2211190228
   22      C       5.5212501541    -0.1605740101     0.7658004884
   23      O       4.6745176871    -1.0136873783     1.6325724056
   24      H       3.7114452452    -1.5258120147    -1.5475403892
   25      H       5.1357630770     0.3631049712    -1.3732295211
   26      H       3.6821243805    -2.7844182699     0.9654809254
   27      H       6.1210494893    -3.2985525500     0.6510389513
   28      H       5.6934485122    -2.8007455266    -1.0145677240
   29      H       7.4020430330    -1.3149993316     0.9699767085
   30      H       7.0674757591    -0.8192316008    -0.7182048018
   31      H       5.9010907459     0.7117164989     1.3325990553
   32      O      -1.9279247171     0.9504061743    -1.0415614482
   33      C      -1.4656172367    -2.5704926953    -0.6210498444
   34      C      -5.7331486719    -0.0070290223    -0.7263556315
   35      C      -6.8406838804     0.6196199019     0.2069121645
   36      C      -6.1507424427     1.9686030622     0.6320807530
   37      C      -4.7807254595     1.8717993218    -0.1503427284
   38      O      -5.1418426086     1.1719397698    -1.4029693823
   39      H      -4.9192127010    -1.0758729941     1.0707546521
   40      H      -3.8737334545     0.9652796045     1.6979867905
   41      H      -0.5075274847    -2.0203875622    -0.7674257593
   42      H      -6.0866572977    -0.7440190414    -1.4738325066
   43      H      -7.7659161332     0.8013836678    -0.3628688704
   44      H      -7.0773141138    -0.0277609869     1.0666654707
   45      H      -6.7267460818     2.8427523380     0.2894474522
   46      H      -6.0018580699     2.0473039093     1.7208658792
   47      H      -4.2948232181     2.8412014373    -0.3741268547
   48      H      -1.9112480262    -2.8474370142    -1.5965452375
   49      H      -1.2890774811    -3.4832195725    -0.0185475860
   50      H       1.1340409116     2.8994180269    -1.6321094570
   51      H       2.7032724585     3.7834973167    -1.4808594420
   52      H       1.8385807137     3.2459517457     0.0021970163
   53      H       0.6828426027    -0.0306997975     2.6229620807
   54      H       0.0724292773    -1.0505619522     1.2609915928
   55      H       0.3369741963     2.0533260724     1.2719871884
   56      H      -0.0576632407     1.0737614452    -0.2133930910
 ----------------------------------------------------------------

    9   -1510.2924543971      5.70E-09 Convergence criterion met
 Total energy in the final basis set = -1510.29245440
 Final energy is   -1510.29245439714
 **  OPTIMIZATION CONVERGED  **

                    Orbital Energies (a.u.)
 --------------------------------------------------------------

 Alpha MOs
 -- Occupied --
-18.942 -18.936 -18.930 -18.925 -18.891 -18.886 -18.885 -18.880
-18.873 -18.872 -10.110 -10.103 -10.097 -10.095 -10.073 -10.066
-10.065 -10.063 -10.060 -10.059 -10.055 -10.043 -10.041 -10.037
-10.035 -10.035 -10.023 -10.022 -10.019 -10.018  -1.021  -1.012
 -1.010  -1.002  -0.973  -0.968  -0.945  -0.940  -0.934  -0.930
 -0.768  -0.761  -0.730  -0.722  -0.712  -0.706  -0.695  -0.665
 -0.649  -0.617  -0.599  -0.583  -0.549  -0.543  -0.540  -0.535
 -0.516  -0.507  -0.487  -0.475  -0.468  -0.458  -0.449  -0.447
 -0.437  -0.433  -0.428  -0.416  -0.411  -0.409  -0.403  -0.399
 -0.394  -0.379  -0.377  -0.366  -0.363  -0.357  -0.355  -0.351
 -0.350  -0.336  -0.335  -0.330  -0.328  -0.326  -0.324  -0.313
 -0.308  -0.308  -0.303  -0.302  -0.295  -0.291  -0.284  -0.278
 -0.269  -0.256  -0.255  -0.244  -0.241  -0.237  -0.232  -0.190
 -0.181  -0.171  -0.165  -0.161  -0.158  -0.155  -0.150  -0.146
 -0.142

          Ground-State Mulliken Net Atomic Charges

     Atom                 Charge (a.u.)
  ----------------------------------------
      1 O                    -0.210554
      2 C                     0.214107
      3 C                    -0.077969
      4 C                    -0.078595
      5 C                     0.213852
      6 O                    -0.173343
      7 C                    -0.059690
      8 C                    -0.049983
      9 O                    -0.165809
     10 C                     0.218943
     11 C                    -0.077751
     12 C                    -0.078159
     13 C                     0.213885
     14 O                    -0.210356
     15 O                    -0.178290
     16 O                    -0.173172
     17 O                    -0.213204
     18 C                    -0.130049
     19 C                     0.026266
     20 C                    -0.144163
     21 C                    -0.143547
     22 C                     0.024490
     23 O                    -0.185542
     24 H                     0.087600
     25 H                     0.085564
     26 H                     0.082117
     27 H                     0.078692
     28 H                     0.074418
     29 H                     0.078826
     30 H                     0.073729
     31 H                     0.091289
     32 O                    -0.212936
     33 C                    -0.153764
     34 C                     0.024351
     35 C                    -0.144083
     36 C                    -0.143903
     37 C                     0.025734
     38 O                    -0.186182
     39 H                     0.084440
     40 H                     0.086302
     41 H                     0.110024
     42 H                     0.091255
     43 H                     0.078181
     44 H                     0.072875
     45 H                     0.077882
     46 H                     0.073241
     47 H                     0.082620
     48 H                     0.097716
     49 H                     0.074625
     50 H                     0.095188
     51 H                     0.086204
     52 H                     0.091481
     53 H                     0.092977
     54 H                     0.095177
     55 H                     0.081345
     56 H                     0.105647
  ----------------------------------------
  Sum of atomic charges =     0.000000

                    Cartesian Multipole Moments
 -----------------------------------------------------------------
    Charge (ESU x 10^10)
                 0.0000
    Dipole Moment (Debye)
         X       1.1680      Y      -0.1013      Z       1.5046
       Tot       1.9075
    Quadrupole Moments (Debye-Ang)
        XX    -143.6731     XY      -7.8729     YY    -153.8466
        XZ     -20.3376     YZ      -2.9408     ZZ    -169.3847

 Total job time:  89.26s(wall), 4253.39s(cpu)
        *  Thank you very much for using Q-Chem.  Have a nice day.  *
