 Q-Chem 5.0, Q-Chem, Inc., Pleasanton, CA (2017)
 Q-Chem 5.0.1 for Intel X86 EM64T Linux

User input:
--------------------------------------------------------------
$molecule
0  1
O -3.94934 -3.66094 2.70899
C -3.26408 -4.56952 2.26188
C -3.36658 -6.02376 2.66595
C -2.06091 -6.74108 3.04613
C -0.8232 -5.8779 3.15145
O 0.28985 -6.63108 2.90805
C 1.5052 -5.87755 2.97416
C 1.67597 -5.04342 1.70878
O 2.60596 -3.97543 1.94841
C 2.76901 -3.6249 3.24829
C 3.75776 -2.49867 3.43439
C 5.10044 -2.69042 2.71415
C 5.13143 -3.76926 1.65027
O 5.4671 -3.60713 0.48596
O -2.4323 -4.30509 1.21967
O 4.99305 -5.0457 2.10385
O 1.78662 -3.45423 3.96388
C 5.13072 -6.17223 1.31946
C 3.30701 -1.15013 2.83075
C 4.01088 -0.00778 3.55969
C 5.43321 -0.19552 3.07026
C 5.22361 -1.31089 2.03735
O 3.91549 -1.10107 1.56311
H 3.90693 -2.37088 4.53249
H 5.92823 -2.91283 3.42293
H 2.20529 -1.00148 2.85065
H 3.60885 0.93852 3.13118
H 3.8889 0.01304 4.66398
H 5.7634 0.74917 2.58417
H 6.16609 -0.50382 3.84719
H 6.03159 -1.28132 1.27379
O -0.80456 -4.78451 3.70692
C -2.22292 -3.04973 0.68915
C -4.19461 -6.22184 3.94842
C -4.69638 -7.6644 4.03637
C -3.41812 -8.38354 4.40806
C -2.44254 -7.2065 4.46798
O -3.23175 -6.15413 4.96884
H -3.85151 -6.5344 1.80423
H -1.83759 -7.62424 2.40427
H -1.80609 -2.37265 1.46523
H -5.05227 -5.51954 4.03254
H -5.40538 -7.74087 4.89134
H -5.19191 -8.02278 3.10839
H -3.5369 -8.80366 5.43209
H -3.10018 -9.18631 3.70838
H -1.55391 -7.48115 5.07919
H -3.17633 -2.63409 0.29873
H -1.49641 -3.12489 -0.14575
H 4.95439 -7.07273 1.94262
H 6.15798 -6.2225 0.89964
H 4.39 -6.15787 0.49237
H 1.97376 -5.67132 0.84293
H 0.71716 -4.54963 1.44387
H 2.36379 -6.58256 2.96287
H 1.5319 -5.55635 4.02751
$end

$opt
CONSTRAINT
tors           1           2           3           4    -130.152
tors           3           4           5           6    -153.562
tors           4           5           6           7    +179.299
tors           5           6           7           8     -76.732
tors           6           7           8           9    +160.396
tors           7           8           9          10     -22.014
tors           8           9          10          11    +179.991
tors           9          10          11          12     -49.633
tors          11          12          13          14    +124.696
ENDCONSTRAINT
$end

$rem
JOBTYPE                   OPT
METHOD                    B3LYP
DFT_D                     d3_op
BASIS                     STO-3G
GEOM_OPT_MAX_CYCLES       100
GEOM_OPT_TOL_GRADIENT     300
GEOM_OPT_TOL_DISPLACEMENT 1200
GEOM_OPT_TOL_ENERGY       100
SYMMETRY                  False
THRESH                    12
SCF_CONVERGENCE           8
MAX_SUB_FILE_NUM          128
MEM_STATIC                400
MEM_TOTAL                 4000
$end
--------------------------------------------------------------

   16   -1510.0943610166      4.15E-09 Convergence criterion met
 Total energy in the final basis set = -1510.09436102
   14   -1510.1725585034      7.27E-09 Convergence criterion met
 Total energy in the final basis set = -1510.17255850
   14   -1510.2180355778      8.28E-09 Convergence criterion met
 Total energy in the final basis set = -1510.21803558
   15   -1510.2465936813      2.84E-09 Convergence criterion met
 Total energy in the final basis set = -1510.24659368
   13   -1510.2616687068      8.89E-09 Convergence criterion met
 Total energy in the final basis set = -1510.26166871
   13   -1510.2701172156      7.77E-09 Convergence criterion met
 Total energy in the final basis set = -1510.27011722
   14   -1510.2750471404      4.30E-09 Convergence criterion met
 Total energy in the final basis set = -1510.27504714
   13   -1510.2781600210      3.36E-09 Convergence criterion met
   12   -1510.2812452394      3.95E-09 Convergence criterion met
 Total energy in the final basis set = -1510.28124524
   10   -1510.2813171473      8.92E-09 Convergence criterion met
 Total energy in the final basis set = -1510.28131715
   10   -1510.2813729670      8.29E-09 Convergence criterion met
 Total energy in the final basis set = -1510.28137297
   10   -1510.2813802399      5.07E-09 Convergence criterion met
 Total energy in the final basis set = -1510.28138024
   10   -1510.2814010963      5.16E-09 Convergence criterion met
 Total energy in the final basis set = -1510.28140110
    9   -1510.2813944261      7.70E-09 Convergence criterion met
 Total energy in the final basis set = -1510.28139443

             Standard Nuclear Orientation (Angstroms)
    I     Atom           X                Y                Z
 ----------------------------------------------------------------
    1      O       3.6006466775    -2.7341281980    -0.0062878033
    2      C       3.4710710565    -1.6633757840    -0.6354863816
    3      C       4.4683603579    -0.4487736242    -0.6528408678
    4      C       3.7977131038     0.9573500290    -0.3779390267
    5      C       2.3197961066     0.8095469771     0.1110993194
    6      O       1.5903964271     1.9912050927    -0.2380119852
    7      C       0.1801167507     1.8644916008     0.2024456119
    8      C      -0.6089311658     0.9179825840    -0.7887382218
    9      O      -1.8793243416     0.2985775825    -0.3233191136
   10      C      -2.0986602406     0.1750243692     1.0804351014
   11      C      -3.5031044197    -0.5050971243     1.2459455018
   12      C      -4.6504757259     0.1793752825     0.3915472315
   13      C      -4.1756482779     1.4408682823    -0.4143821516
   14      O      -4.2758545464     1.6480291298    -1.6413499203
   15      O       2.4367881100    -1.4134387427    -1.6018351899
   16      O      -3.6302644183     2.3837565921     0.5222872387
   17      O      -1.3195994587     0.4733403099     2.0149558129
   18      C      -3.1814556456     3.6006402248    -0.1901200552
   19      C      -3.5115984406    -1.9687757199     0.6178324552
   20      C      -4.8055364923    -2.7236253857     1.1216116165
   21      C      -5.9194635189    -2.0419429259     0.2418791142
   22      C      -5.0611381030    -1.0031624597    -0.5789557912
   23      O      -3.7856585667    -1.7202417345    -0.8142451768
   24      H      -3.7440097946    -0.5185486981     2.3229858865
   25      H      -5.4916370093     0.4807732314     1.0426989262
   26      H      -2.5635378303    -2.5278357936     0.7416390126
   27      H      -4.7262775633    -3.8018933257     0.9103909215
   28      H      -4.9719998353    -2.5871837447     2.2022576808
   29      H      -6.3979026575    -2.7673087816    -0.4351327099
   30      H      -6.6996364492    -1.5530599226     0.8468015263
   31      H      -5.4952911406    -0.6637042478    -1.5394421783
   32      O       1.8373788992    -0.1544349654     0.7474176437
   33      C       1.4527601572    -2.5184829038    -1.5792131003
   34      C       5.5274487775    -0.5288709739     0.5235403725
   35      C       6.7640012487     0.3651835996     0.1236662829
   36      C       6.1469356412     1.8062781424     0.2725959173
   37      C       4.7038069597     1.4710257870     0.8255074686
   38      O       4.8995131026     0.2408234146     1.6237690029
   39      H       4.9704598783    -0.4441094042    -1.6379833220
   40      H       3.8342054597     1.6311776769    -1.2512111609
   41      H       0.9271248005    -2.5666676760    -0.6032172335
   42      H       5.7554173840    -1.5616444740     0.8521599836
   43      H       7.5953432232     0.2093727816     0.8295021210
   44      H       7.1211673928     0.1551833741    -0.8971803739
   45      H       6.7070038758     2.4155901743     0.9995102518
   46      H       6.1034857238     2.3501138219    -0.6847219399
   47      H       4.2382694650     2.2663406109     1.4396404540
   48      H       1.9320327328    -3.5000639133    -1.7706834370
   49      H       0.7233757103    -2.2986839932    -2.3806854305
   50      H      -2.6933325064     4.2386958632     0.5694444342
   51      H      -4.0351538392     4.1487962417    -0.6389661194
   52      H      -2.4594306100     3.3602321450    -0.9964433458
   53      H      -0.8809386028     1.4621581566    -1.7172365414
   54      H       0.0722928001     0.0848648070    -1.0724250166
   55      H      -0.2379791861     2.8888253049     0.1838701621
   56      H       0.0769805024     1.4302150131     1.2223299009
 ----------------------------------------------------------------

    9   -1510.2813957381      4.31E-09 Convergence criterion met
 Total energy in the final basis set = -1510.28139574
 Final energy is   -1510.28139573810
 **  OPTIMIZATION CONVERGED  **

                    Orbital Energies (a.u.)
 --------------------------------------------------------------

 Alpha MOs
 -- Occupied --
-18.941 -18.936 -18.933 -18.924 -18.888 -18.886 -18.884 -18.876
-18.875 -18.868 -10.109 -10.101 -10.099 -10.094 -10.072 -10.067
-10.061 -10.060 -10.060 -10.058 -10.057 -10.055 -10.038 -10.037
-10.037 -10.034 -10.021 -10.020 -10.020 -10.018  -1.018  -1.013
 -1.007  -1.001  -0.970  -0.969  -0.945  -0.937  -0.937  -0.929
 -0.765  -0.762  -0.729  -0.722  -0.711  -0.704  -0.694  -0.665
 -0.657  -0.621  -0.597  -0.586  -0.547  -0.544  -0.538  -0.536
 -0.513  -0.509  -0.482  -0.476  -0.465  -0.459  -0.452  -0.444
 -0.438  -0.431  -0.429  -0.414  -0.409  -0.407  -0.405  -0.392
 -0.390  -0.379  -0.373  -0.368  -0.364  -0.356  -0.355  -0.349
 -0.343  -0.341  -0.338  -0.333  -0.331  -0.327  -0.324  -0.311
 -0.310  -0.306  -0.302  -0.299  -0.297  -0.289  -0.282  -0.278
 -0.273  -0.262  -0.255  -0.248  -0.237  -0.234  -0.232  -0.187
 -0.179  -0.175  -0.168  -0.156  -0.154  -0.148  -0.146  -0.144
 -0.142

          Ground-State Mulliken Net Atomic Charges

     Atom                 Charge (a.u.)
  ----------------------------------------
      1 O                    -0.211972
      2 C                     0.216018
      3 C                    -0.079885
      4 C                    -0.078300
      5 C                     0.213418
      6 O                    -0.172319
      7 C                    -0.068862
      8 C                    -0.053122
      9 O                    -0.167589
     10 C                     0.220636
     11 C                    -0.077586
     12 C                    -0.078382
     13 C                     0.215891
     14 O                    -0.212773
     15 O                    -0.178706
     16 O                    -0.175888
     17 O                    -0.207270
     18 C                    -0.129313
     19 C                     0.025940
     20 C                    -0.143823
     21 C                    -0.143968
     22 C                     0.024712
     23 O                    -0.186363
     24 H                     0.086381
     25 H                     0.084411
     26 H                     0.083199
     27 H                     0.078432
     28 H                     0.074378
     29 H                     0.078227
     30 H                     0.073181
     31 H                     0.090068
     32 O                    -0.210154
     33 C                    -0.130156
     34 C                     0.024339
     35 C                    -0.143288
     36 C                    -0.144274
     37 C                     0.025508
     38 O                    -0.187947
     39 H                     0.083427
     40 H                     0.086579
     41 H                     0.091140
     42 H                     0.091705
     43 H                     0.078209
     44 H                     0.072986
     45 H                     0.078076
     46 H                     0.073403
     47 H                     0.083238
     48 H                     0.089016
     49 H                     0.088772
     50 H                     0.089969
     51 H                     0.088214
     52 H                     0.087114
     53 H                     0.087936
     54 H                     0.092050
     55 H                     0.082340
     56 H                     0.123022
  ----------------------------------------
  Sum of atomic charges =     0.000000

                    Cartesian Multipole Moments
 -----------------------------------------------------------------
    Charge (ESU x 10^10)
                 0.0000
    Dipole Moment (Debye)
         X      -0.9039      Y       1.7272      Z      -1.0848
       Tot       2.2309
    Quadrupole Moments (Debye-Ang)
        XX    -141.5025     XY       8.3787     YY    -153.8838
        XZ     -15.1601     YZ       1.1148     ZZ    -167.4445

 Total job time:  60.06s(wall), 2853.35s(cpu)
        *  Thank you very much for using Q-Chem.  Have a nice day.  *
