 Q-Chem 5.0, Q-Chem, Inc., Pleasanton, CA (2017)
 Q-Chem 5.0.1 for Intel X86 EM64T Linux

User input:
--------------------------------------------------------------
$molecule
0  1
O 3.5093509847 -2.7397136008 -0.1012712383
C 3.3902436844 -1.6467565491 -0.6932268389
C 4.4145989907 -0.4537461017 -0.6907153873
C 3.7918489969 0.9520154453 -0.3187173799
C 2.3226546213 0.8137460125 0.1980940649
O 1.6228568205 2.0373025005 -0.0459162477
C 0.1917493224 1.9007685429 0.3209985131
C -0.5513014951 0.9197671706 -0.6735321841
O -1.8373573931 0.3067384169 -0.2440794598
C -2.1400055669 0.2578395461 1.1483658461
C -3.5428153044 -0.4365782618 1.2646957173
C -4.6469486411 0.199064572 0.3209375181
C -4.1412247923 1.440034695 -0.497813788
O -4.1911818077 1.6155854232 -1.7326577455
O 2.3446743823 -1.3475306748 -1.6340301989
O -3.6349544768 2.4071455561 0.4361564032
O -1.4212977101 0.6132479608 2.1108800674
C -3.1570037468 3.6066393864 -0.2866735855
C -3.5024051408 -1.9233954902 0.6965648386
C -4.8194846723 -2.6702993322 1.1512862504
C -5.882086155 -2.0404452029 0.1743609401
C -4.9845077787 -1.0224875563 -0.6297879773
O -3.6906315862 -1.7341681396 -0.7581984738
H -3.8434502148 -0.4093661378 2.3264366689
H -5.5293582272 0.5099238663 0.9101510765
H -2.5594121728 -2.467450055 0.8998825758
H -4.7182019319 -3.7560189839 0.994665021
H -5.0554183738 -2.4873504502 2.2118876678
H -6.3060622871 -2.7987938036 -0.5030607275
H -6.7066608046 -1.5401239304 0.7068946738
H -5.3605831151 -0.7224985776 -1.6272871697
O 1.8279249184 -0.1835006886 0.7715469094
C 1.3521086539 -2.4455974927 -1.6439419172
C 5.513517346 -0.6183494081 0.4392384391
C 6.7546215675 0.2718781343 0.0447634339
C 6.1783597242 1.7145754176 0.3014977887
C 4.7464912005 1.3777151932 0.8818405036
O 4.9413657933 0.1005685884 1.6026782578
H 4.8786194575 -0.4109572663 -1.6934532503
H 3.8228300614 1.6710601714 -1.1555996819
H 0.8406749382 -2.5336711854 -0.663230457
H 5.7305514239 -1.6718886361 0.7028855388
H 7.6081237582 0.0559683576 0.7071706405
H 7.0687524872 0.1156975951 -0.9995566027
H 6.7759935279 2.2650735676 1.0451980128
H 6.11783453 2.3171995208 -0.6189822437
H 4.317592918 2.1457282163 1.5546554231
H 1.8209210152 -3.4211126942 -1.8855841414
H 0.6121397781 -2.1859005024 -2.4235047458
H -2.6910683944 4.2586220329 0.4749941623
H -3.9931108935 4.1486207126 -0.7744718028
H -2.4100787809 3.3461542464 -1.0635930823
H -0.7868927531 1.4377392948 -1.6269429671
H 0.1413594836 0.0812495884 -0.9058542311
H -0.2301773192 2.9213420962 0.2532086668
H 0.0385211384 1.5023664681 1.3496136661
$end

$rem
JOBTYPE                   OPT
METHOD                    B3LYP
DFT_D                     d3_op
BASIS                     STO-3G
GEOM_OPT_MAX_CYCLES       100
GEOM_OPT_TOL_GRADIENT     300
GEOM_OPT_TOL_DISPLACEMENT 1200
GEOM_OPT_TOL_ENERGY       100
SYMMETRY                  False
THRESH                    12
SCF_CONVERGENCE           8
MAX_SUB_FILE_NUM          128
MEM_STATIC                400
MEM_TOTAL                 4000
$end
--------------------------------------------------------------

   15   -1510.2804529194      8.81E-09 Convergence criterion met
 Total energy in the final basis set = -1510.28045292
   14   -1510.2814762790      3.40E-09 Convergence criterion met
 Total energy in the final basis set = -1510.28147628
   14   -1510.2820493605      2.89E-09 Convergence criterion met
 Total energy in the final basis set = -1510.28204936
   13   -1510.2828099906      6.00E-09 Convergence criterion met
 Total energy in the final basis set = -1510.28280999
   13   -1510.2837858458      3.32E-09 Convergence criterion met
 Total energy in the final basis set = -1510.28378585
   13   -1510.2846245652      7.81E-09 Convergence criterion met
 Total energy in the final basis set = -1510.28462457
   13   -1510.2852455560      9.16E-09 Convergence criterion met
 Total energy in the final basis set = -1510.28524556
   14   -1510.2860386287      4.48E-09 Convergence criterion met
   13   -1510.2923521192      3.68E-09 Convergence criterion met
 Total energy in the final basis set = -1510.29235212
   12   -1510.2924164583      6.03E-09 Convergence criterion met
 Total energy in the final basis set = -1510.29241646
   12   -1510.2923827347      6.38E-09 Convergence criterion met
 Total energy in the final basis set = -1510.29238273
   12   -1510.2924325491      5.91E-09 Convergence criterion met
 Total energy in the final basis set = -1510.29243255
   12   -1510.2924463969      2.84E-09 Convergence criterion met
 Total energy in the final basis set = -1510.29244640
   11   -1510.2924491654      6.79E-09 Convergence criterion met
 Total energy in the final basis set = -1510.29244917

             Standard Nuclear Orientation (Angstroms)
    I     Atom           X                Y                Z
 ----------------------------------------------------------------
    1      O      -3.8673779369    -2.0627985851    -1.7061011263
    2      C      -3.6129007738    -1.5150106181    -0.6117919968
    3      C      -4.5450415210    -0.5454500776     0.1977504264
    4      C      -3.8482197828     0.8177291418     0.6188932233
    5      C      -2.3618610295     0.9253778849     0.1428849305
    6      O      -1.5284739189     1.0594273471     1.3075811989
    7      C      -0.1039396713     1.1077346070     0.9021827665
    8      C       0.6386337090    -0.1284476590     1.5236031609
    9      O       2.0496793381    -0.2185884909     1.0720349646
   10      C       2.1459215602    -0.8358171486    -0.2140845440
   11      C       3.6576750208    -1.0662542263    -0.5450298709
   12      C       4.5616378171     0.2307709242    -0.4404271872
   13      C       3.7771986764     1.5626400226    -0.1701954890
   14      O       4.0191447213     2.4255159814     0.6991530355
   15      O      -2.4044945252    -1.6984920989     0.1307776580
   16      O       2.7374482161     1.6665435201    -1.1528969141
   17      O       1.1712866412    -1.1919035918    -0.9148389381
   18      C       2.0622535449     2.9806486042    -1.0550850528
   19      C       4.3411909628    -1.9780511456     0.5673457680
   20      C       5.7481616306    -2.4592094832     0.0316714032
   21      C       6.6110666710    -1.1550853729     0.2172646627
   22      C       5.5221181263    -0.1521084619     0.7622109792
   23      O       4.6784708243    -1.0070060286     1.6301906473
   24      H       3.7124694184    -1.5231251710    -1.5484556430
   25      H       5.1338046790     0.3685216114    -1.3769295830
   26      H       3.6900136814    -2.7806323408     0.9649056797
   27      H       6.1297645555    -3.2888756502     0.6475929471
   28      H       5.6992152847    -2.7920321128    -1.0175436400
   29      H       7.4057544331    -1.3019190366     0.9657899626
   30      H       7.0692106440    -0.8074977763    -0.7223737677
   31      H       5.9002025285     0.7214847808     1.3281771991
   32      O      -1.9309524827     0.9445437497    -1.0312440051
   33      C      -1.4618058974    -2.5743939355    -0.6100005114
   34      C      -5.7336860330    -0.0184175516    -0.7056285336
   35      C      -6.8399149117     0.6068801596     0.2300946191
   36      C      -6.1512988899     1.9573586995     0.6526061953
   37      C      -4.7831236318     1.8624638044    -0.1332419686
   38      O      -5.1460756753     1.1610598793    -1.3844944914
   39      H      -4.9136055798    -1.0844417269     1.0901729310
   40      H      -3.8697867297     0.9589271800     1.7134085088
   41      H      -0.5046081529    -2.0230454587    -0.7573765523
   42      H      -6.0877889847    -0.7565426793    -1.4517103992
   43      H      -7.7669299914     0.7866187541    -0.3374194547
   44      H      -7.0731475720    -0.0403662973     1.0908735203
   45      H      -6.7297665837     2.8302777555     0.3109819681
   46      H      -5.9997401498     2.0369371652     1.7409569199
   47      H      -4.2994982572     2.8325696617    -0.3588974710
   48      H      -1.9088584460    -2.8504309725    -1.5851228950
   49      H      -1.2832130523    -3.4876795543    -0.0089297231
   50      H       1.1274748826     2.8954618045    -1.6393788602
   51      H       2.6943767532     3.7835008993    -1.4875231461
   52      H       1.8298865721     3.2447967318    -0.0047334854
   53      H       0.6892231402    -0.0301392155     2.6264865568
   54      H       0.0770281250    -1.0505899609     1.2657550228
   55      H       0.3388303781     2.0534769911     1.2754295399
   56      H      -0.0588925604     1.0730313133    -0.2084509410
 ----------------------------------------------------------------

   10   -1510.2924499399      8.05E-09 Convergence criterion met
 Total energy in the final basis set = -1510.29244994
 Final energy is   -1510.29244993988
 **  OPTIMIZATION CONVERGED  **

                    Orbital Energies (a.u.)
 --------------------------------------------------------------

 Alpha MOs
 -- Occupied --
-18.942 -18.936 -18.930 -18.925 -18.891 -18.886 -18.885 -18.880
-18.873 -18.872 -10.110 -10.103 -10.098 -10.095 -10.073 -10.066
-10.065 -10.063 -10.060 -10.059 -10.055 -10.043 -10.041 -10.037
-10.035 -10.035 -10.023 -10.022 -10.019 -10.018  -1.021  -1.012
 -1.010  -1.002  -0.973  -0.968  -0.945  -0.940  -0.934  -0.929
 -0.768  -0.761  -0.730  -0.722  -0.712  -0.706  -0.695  -0.665
 -0.649  -0.617  -0.599  -0.583  -0.549  -0.543  -0.540  -0.535
 -0.516  -0.507  -0.487  -0.475  -0.468  -0.458  -0.449  -0.447
 -0.437  -0.433  -0.428  -0.416  -0.411  -0.409  -0.403  -0.399
 -0.394  -0.379  -0.377  -0.366  -0.363  -0.357  -0.355  -0.351
 -0.350  -0.336  -0.335  -0.330  -0.328  -0.326  -0.324  -0.313
 -0.308  -0.308  -0.303  -0.302  -0.295  -0.291  -0.284  -0.278
 -0.269  -0.256  -0.255  -0.244  -0.241  -0.237  -0.232  -0.190
 -0.181  -0.171  -0.165  -0.161  -0.158  -0.155  -0.150  -0.146
 -0.142

          Ground-State Mulliken Net Atomic Charges

     Atom                 Charge (a.u.)
  ----------------------------------------
      1 O                    -0.210573
      2 C                     0.214103
      3 C                    -0.077967
      4 C                    -0.078588
      5 C                     0.213855
      6 O                    -0.173317
      7 C                    -0.059687
      8 C                    -0.049993
      9 O                    -0.165770
     10 C                     0.218973
     11 C                    -0.077730
     12 C                    -0.078159
     13 C                     0.213871
     14 O                    -0.210360
     15 O                    -0.178329
     16 O                    -0.173207
     17 O                    -0.213154
     18 C                    -0.130055
     19 C                     0.026257
     20 C                    -0.144165
     21 C                    -0.143539
     22 C                     0.024497
     23 O                    -0.185539
     24 H                     0.087611
     25 H                     0.085558
     26 H                     0.082121
     27 H                     0.078697
     28 H                     0.074423
     29 H                     0.078828
     30 H                     0.073726
     31 H                     0.091283
     32 O                    -0.212932
     33 C                    -0.153843
     34 C                     0.024354
     35 C                    -0.144085
     36 C                    -0.143903
     37 C                     0.025729
     38 O                    -0.186187
     39 H                     0.084438
     40 H                     0.086308
     41 H                     0.110051
     42 H                     0.091261
     43 H                     0.078180
     44 H                     0.072877
     45 H                     0.077884
     46 H                     0.073243
     47 H                     0.082616
     48 H                     0.097707
     49 H                     0.074587
     50 H                     0.095191
     51 H                     0.086193
     52 H                     0.091463
     53 H                     0.092998
     54 H                     0.095207
     55 H                     0.081374
     56 H                     0.105619
  ----------------------------------------
  Sum of atomic charges =     0.000000

                    Cartesian Multipole Moments
 -----------------------------------------------------------------
    Charge (ESU x 10^10)
                 0.0000
    Dipole Moment (Debye)
         X       1.1768      Y      -0.0939      Z       1.5015
       Tot       1.9100
    Quadrupole Moments (Debye-Ang)
        XX    -143.7065     XY      -7.8808     YY    -153.9015
        XZ     -20.3610     YZ      -2.9834     ZZ    -169.2641

 Total job time:  89.41s(wall), 4259.19s(cpu)
        *  Thank you very much for using Q-Chem.  Have a nice day.  *
