 Q-Chem 5.0, Q-Chem, Inc., Pleasanton, CA (2017)
 Q-Chem 5.0.1 for Intel X86 EM64T Linux

User input:
--------------------------------------------------------------
$molecule
0  1
O -3.94934 -3.66094 2.70899
C -3.26408 -4.56952 2.26188
C -3.36658 -6.02376 2.66595
C -2.06624 -6.7307 3.08214
C -0.83817 -5.85818 3.21863
O 0.28719 -6.60724 3.02396
C 1.48858 -5.82884 3.02293
C 1.53753 -4.93938 1.78495
O 2.46266 -3.86073 1.99358
C 2.75653 -3.58686 3.28887
C 3.73293 -2.445 3.44194
C 5.0054 -2.5628 2.59033
C 4.95978 -3.5845 1.47195
O 5.20379 -3.35894 0.29546
O -2.4209 -4.3027 1.22964
O 4.8763 -4.88469 1.86782
O 1.84875 -3.45952 4.10486
C 4.96657 -5.96738 1.01755
C 3.1988 -1.07864 2.95712
C 3.94411 0.04215 3.67829
C 5.31749 -0.08241 3.04884
C 5.03502 -1.14743 1.9808
O 3.68374 -0.94762 1.64278
H 3.98541 -2.37025 4.5262
H 5.8996 -2.8016 3.20717
H 2.10103 -0.95968 3.08749
H 3.48346 0.9987 3.34126
H 3.92663 0.00215 4.78864
H 5.58016 0.89471 2.58625
H 6.1269 -0.41148 3.73612
H 5.7664 -1.05685 1.14801
O -0.84165 -4.76494 3.77498
C -2.20741 -3.04628 0.70326
C -4.2255 -6.22566 3.92772
C -4.72058 -7.67111 4.0047
C -3.44744 -8.38243 4.40776
C -2.48137 -7.1991 4.49327
O -3.28983 -6.15148 4.97278
H -3.82776 -6.53974 1.7944
H -1.8189 -7.61041 2.44441
H -1.80007 -2.36972 1.48481
H -5.08944 -5.52871 3.98924
H -5.44919 -7.75036 4.84279
H -5.19213 -8.03386 3.06598
H -3.58954 -8.80539 5.42763
H -3.10616 -9.18146 3.7148
H -1.60706 -7.46788 5.12726
H -3.15707 -2.63147 0.30293
H -1.47165 -3.11923 -0.1237
H 4.85245 -6.90129 1.60502
H 5.95786 -5.97814 0.51632
H 4.16255 -5.92407 0.25296
H 1.79545 -5.53494 0.88434
H 0.55964 -4.45504 1.58625
H 2.36487 -6.50722 2.94269
H 1.54638 -5.53895 4.08138
$end

$opt
CONSTRAINT
tors           1           2           3           4    -128.566
tors           3           4           5           6    -154.362
tors           4           5           6           7    +174.921
tors           5           6           7           8     -68.717
tors           6           7           8           9    +160.396
tors           7           8           9          10     -20.109
tors           8           9          10          11    +179.991
tors           9          10          11          12     -50.624
tors          11          12          13          14    +126.108
ENDCONSTRAINT
$end

$rem
JOBTYPE                   OPT
METHOD                    B3LYP
DFT_D                     d3_op
BASIS                     STO-3G
GEOM_OPT_MAX_CYCLES       100
GEOM_OPT_TOL_GRADIENT     300
GEOM_OPT_TOL_DISPLACEMENT 1200
GEOM_OPT_TOL_ENERGY       100
SYMMETRY                  False
THRESH                    12
SCF_CONVERGENCE           8
MAX_SUB_FILE_NUM          128
MEM_STATIC                400
MEM_TOTAL                 4000
$end
--------------------------------------------------------------

   16   -1510.0898670200      4.40E-09 Convergence criterion met
 Total energy in the final basis set = -1510.08986702
   14   -1510.1690902060      6.09E-09 Convergence criterion met
 Total energy in the final basis set = -1510.16909021
   14   -1510.2153485523      8.41E-09 Convergence criterion met
 Total energy in the final basis set = -1510.21534855
   14   -1510.2445208605      6.20E-09 Convergence criterion met
 Total energy in the final basis set = -1510.24452086
   14   -1510.2600942410      5.08E-09 Convergence criterion met
 Total energy in the final basis set = -1510.26009424
   13   -1510.2688022083      6.45E-09 Convergence criterion met
 Total energy in the final basis set = -1510.26880221
   13   -1510.2738866997      9.27E-09 Convergence criterion met
 Total energy in the final basis set = -1510.27388670
   13   -1510.2771492007      3.92E-09 Convergence criterion met
   10   -1510.2804304048      7.83E-09 Convergence criterion met
 Total energy in the final basis set = -1510.28043040
   10   -1510.2804730847      8.56E-09 Convergence criterion met
 Total energy in the final basis set = -1510.28047308
   10   -1510.2804906643      5.32E-09 Convergence criterion met
 Total energy in the final basis set = -1510.28049066
    9   -1510.2805073183      9.55E-09 Convergence criterion met
 Total energy in the final basis set = -1510.28050732
    9   -1510.2805123924      7.99E-09 Convergence criterion met
 Total energy in the final basis set = -1510.28051239
    9   -1510.2805139647      4.30E-09 Convergence criterion met
 Total energy in the final basis set = -1510.28051396

             Standard Nuclear Orientation (Angstroms)
    I     Atom           X                Y                Z
 ----------------------------------------------------------------
    1      O       3.5093509847    -2.7397136008    -0.1012712383
    2      C       3.3902436844    -1.6467565491    -0.6932268389
    3      C       4.4145989907    -0.4537461017    -0.6907153873
    4      C       3.7918489969     0.9520154453    -0.3187173799
    5      C       2.3226546213     0.8137460125     0.1980940649
    6      O       1.6228568205     2.0373025005    -0.0459162477
    7      C       0.1917493224     1.9007685429     0.3209985131
    8      C      -0.5513014951     0.9197671706    -0.6735321841
    9      O      -1.8373573931     0.3067384169    -0.2440794598
   10      C      -2.1400055669     0.2578395461     1.1483658461
   11      C      -3.5428153044    -0.4365782618     1.2646957173
   12      C      -4.6469486411     0.1990645720     0.3209375181
   13      C      -4.1412247923     1.4400346950    -0.4978137880
   14      O      -4.1911818077     1.6155854232    -1.7326577455
   15      O       2.3446743823    -1.3475306748    -1.6340301989
   16      O      -3.6349544768     2.4071455561     0.4361564032
   17      O      -1.4212977101     0.6132479608     2.1108800674
   18      C      -3.1570037468     3.6066393864    -0.2866735855
   19      C      -3.5024051408    -1.9233954902     0.6965648386
   20      C      -4.8194846723    -2.6702993322     1.1512862504
   21      C      -5.8820861550    -2.0404452029     0.1743609401
   22      C      -4.9845077787    -1.0224875563    -0.6297879773
   23      O      -3.6906315862    -1.7341681396    -0.7581984738
   24      H      -3.8434502148    -0.4093661378     2.3264366689
   25      H      -5.5293582272     0.5099238663     0.9101510765
   26      H      -2.5594121728    -2.4674500550     0.8998825758
   27      H      -4.7182019319    -3.7560189839     0.9946650210
   28      H      -5.0554183738    -2.4873504502     2.2118876678
   29      H      -6.3060622871    -2.7987938036    -0.5030607275
   30      H      -6.7066608046    -1.5401239304     0.7068946738
   31      H      -5.3605831151    -0.7224985776    -1.6272871697
   32      O       1.8279249184    -0.1835006886     0.7715469094
   33      C       1.3521086539    -2.4455974927    -1.6439419172
   34      C       5.5135173460    -0.6183494081     0.4392384391
   35      C       6.7546215675     0.2718781343     0.0447634339
   36      C       6.1783597242     1.7145754176     0.3014977887
   37      C       4.7464912005     1.3777151932     0.8818405036
   38      O       4.9413657933     0.1005685884     1.6026782578
   39      H       4.8786194575    -0.4109572663    -1.6934532503
   40      H       3.8228300614     1.6710601714    -1.1555996819
   41      H       0.8406749382    -2.5336711854    -0.6632304570
   42      H       5.7305514239    -1.6718886361     0.7028855388
   43      H       7.6081237582     0.0559683576     0.7071706405
   44      H       7.0687524872     0.1156975951    -0.9995566027
   45      H       6.7759935279     2.2650735676     1.0451980128
   46      H       6.1178345300     2.3171995208    -0.6189822437
   47      H       4.3175929180     2.1457282163     1.5546554231
   48      H       1.8209210152    -3.4211126942    -1.8855841414
   49      H       0.6121397781    -2.1859005024    -2.4235047458
   50      H      -2.6910683944     4.2586220329     0.4749941623
   51      H      -3.9931108935     4.1486207126    -0.7744718028
   52      H      -2.4100787809     3.3461542464    -1.0635930823
   53      H      -0.7868927531     1.4377392948    -1.6269429671
   54      H       0.1413594836     0.0812495884    -0.9058542311
   55      H      -0.2301773192     2.9213420962     0.2532086668
   56      H       0.0385211384     1.5023664681     1.3496136661
 ----------------------------------------------------------------

    9   -1510.2805145535      2.32E-09 Convergence criterion met
 Total energy in the final basis set = -1510.28051455
 Final energy is   -1510.28051455349
 **  OPTIMIZATION CONVERGED  **

                    Orbital Energies (a.u.)
 --------------------------------------------------------------

 Alpha MOs
 -- Occupied --
-18.941 -18.937 -18.934 -18.923 -18.888 -18.886 -18.883 -18.876
-18.876 -18.868 -10.109 -10.101 -10.101 -10.093 -10.072 -10.067
-10.061 -10.061 -10.060 -10.058 -10.057 -10.055 -10.039 -10.037
-10.037 -10.034 -10.021 -10.020 -10.020 -10.018  -1.018  -1.014
 -1.007  -1.001  -0.970  -0.969  -0.944  -0.938  -0.938  -0.928
 -0.765  -0.762  -0.729  -0.722  -0.711  -0.704  -0.694  -0.665
 -0.656  -0.621  -0.597  -0.586  -0.547  -0.544  -0.538  -0.536
 -0.513  -0.509  -0.483  -0.476  -0.465  -0.459  -0.453  -0.444
 -0.438  -0.431  -0.429  -0.415  -0.409  -0.407  -0.404  -0.391
 -0.390  -0.379  -0.373  -0.369  -0.364  -0.356  -0.354  -0.349
 -0.344  -0.342  -0.338  -0.332  -0.331  -0.327  -0.324  -0.311
 -0.310  -0.306  -0.302  -0.299  -0.297  -0.290  -0.282  -0.278
 -0.273  -0.262  -0.255  -0.248  -0.236  -0.234  -0.232  -0.189
 -0.179  -0.175  -0.168  -0.156  -0.154  -0.147  -0.146  -0.144
 -0.142

          Ground-State Mulliken Net Atomic Charges

     Atom                 Charge (a.u.)
  ----------------------------------------
      1 O                    -0.212327
      2 C                     0.215866
      3 C                    -0.079998
      4 C                    -0.078479
      5 C                     0.213865
      6 O                    -0.171807
      7 C                    -0.068184
      8 C                    -0.054569
      9 O                    -0.167755
     10 C                     0.221057
     11 C                    -0.077468
     12 C                    -0.078394
     13 C                     0.215858
     14 O                    -0.212504
     15 O                    -0.179323
     16 O                    -0.175619
     17 O                    -0.208626
     18 C                    -0.129327
     19 C                     0.025942
     20 C                    -0.143859
     21 C                    -0.143832
     22 C                     0.024604
     23 O                    -0.186347
     24 H                     0.086230
     25 H                     0.084435
     26 H                     0.083559
     27 H                     0.078487
     28 H                     0.074303
     29 H                     0.078215
     30 H                     0.073125
     31 H                     0.090073
     32 O                    -0.209927
     33 C                    -0.130315
     34 C                     0.024350
     35 C                    -0.143372
     36 C                    -0.144200
     37 C                     0.025531
     38 O                    -0.187965
     39 H                     0.083392
     40 H                     0.086441
     41 H                     0.091194
     42 H                     0.091648
     43 H                     0.078187
     44 H                     0.072966
     45 H                     0.078154
     46 H                     0.073421
     47 H                     0.083488
     48 H                     0.088730
     49 H                     0.089281
     50 H                     0.090172
     51 H                     0.088254
     52 H                     0.087414
     53 H                     0.086891
     54 H                     0.094889
     55 H                     0.082977
     56 H                     0.121199
  ----------------------------------------
  Sum of atomic charges =     0.000000

                    Cartesian Multipole Moments
 -----------------------------------------------------------------
    Charge (ESU x 10^10)
                 0.0000
    Dipole Moment (Debye)
         X      -0.9812      Y       1.8284      Z      -1.1514
       Tot       2.3731
    Quadrupole Moments (Debye-Ang)
        XX    -140.8821     XY       8.4457     YY    -154.5882
        XZ     -14.3947     YZ       0.7865     ZZ    -167.3256

 Total job time:  59.09s(wall), 2812.61s(cpu)
        *  Thank you very much for using Q-Chem.  Have a nice day.  *
