 Q-Chem 5.0, Q-Chem, Inc., Pleasanton, CA (2017)
 Q-Chem 5.0.1 for Intel X86 EM64T Linux

User input:
--------------------------------------------------------------
$molecule
0  1
O 3.6867639081 -2.7673437944 0.0419903437
C 3.5191206556 -1.6953867401 -0.5764187394
C 4.4946434696 -0.4640002851 -0.6132448103
C 3.7943070747 0.9442322478 -0.4532128607
C 2.319783618 0.7997226038 0.0498175515
O 1.5816337771 1.9691786371 -0.3210071288
C 0.1732599905 1.841567012 0.1256008974
C -0.6079870355 0.8673819714 -0.8453024887
O -1.8732869433 0.2452104314 -0.3686580498
C -2.0892941528 0.1494597777 1.0377938402
C -3.4867961436 -0.5401498756 1.2227112135
C -4.6714344648 0.1866314689 0.457118346
C -4.2154132627 1.4466622729 -0.3617777441
O -4.3810267063 1.6670789422 -1.5793483467
O 2.4770989684 -1.4770513676 -1.5429600954
O -3.5856910637 2.3651520034 0.5448944102
O -1.3111337579 0.4735511774 1.9646219794
C -3.1495391416 3.5752849447 -0.1873177364
C -3.5339455148 -1.9754713368 0.5356346482
C -4.7891100925 -2.7531768952 1.0984199156
C -5.9619867454 -2.0289887374 0.3380036427
C -5.1623578909 -0.9660702121 -0.5119253563
O -3.9088607021 -1.6741339142 -0.8630961562
H -3.6829331218 -0.6011316547 2.3072934863
H -5.4626630554 0.4967117804 1.1643974833
H -2.5787927057 -2.5346905838 0.5713185503
H -4.7306830263 -3.8198447006 0.829455646
H -4.8738089038 -2.6692764702 2.1936950222
H -6.5033808007 -2.7236120391 -0.32360072
H -6.6850672396 -1.5558408728 1.0214353166
H -5.665602299 -0.5976400932 -1.4269153685
O 1.8513426438 -0.1462666214 0.7224129366
C 1.523116321 -2.6077861292 -1.5157518057
C 5.5182319968 -0.4521095019 0.5952752495
C 6.7611977358 0.4168856269 0.161340504
C 6.1298644923 1.8595444829 0.1725596812
C 4.6768542789 1.5597245326 0.7207516551
O 4.8608097591 0.3967108586 1.617622809
H 5.0336681416 -0.5074731949 -1.5780088656
H 3.822311373 1.5529664652 -1.3732379411
H 0.9882272712 -2.6569419682 -0.5448086664
H 5.7412888662 -1.4563462923 1.0056064558
H 7.5709345078 0.3275743059 0.9031186787
H 7.1517710941 0.1278812859 -0.8275084528
H 6.6691287813 2.535345091 0.854919847
H 6.1015186336 2.317736662 -0.8291752589
H 4.1958461518 2.3980418969 1.2617740718
H 2.0309555831 -3.5784745674 -1.6882769085
H 0.7966748821 -2.4184641586 -2.3276053703
H -2.6140096696 4.2030268686 0.5484598679
H -4.0137317604 4.1390923638 -0.5945339354
H -2.4717014862 3.3224721677 -1.0275340697
H -0.8841275735 1.3905301627 -1.7846331181
H 0.0812055522 0.0351135353 -1.112357214
H -0.2523417908 2.8619076582 0.0851239093
H 0.0745201195 1.4280011156 1.154485368
$end

$rem
JOBTYPE                   OPT
METHOD                    B3LYP
DFT_D                     d3_op
BASIS                     STO-3G
GEOM_OPT_MAX_CYCLES       100
GEOM_OPT_TOL_GRADIENT     300
GEOM_OPT_TOL_DISPLACEMENT 1200
GEOM_OPT_TOL_ENERGY       100
SYMMETRY                  False
THRESH                    12
SCF_CONVERGENCE           8
MAX_SUB_FILE_NUM          128
MEM_STATIC                400
MEM_TOTAL                 4000
$end
--------------------------------------------------------------

   16   -1510.2803466127      5.60E-09 Convergence criterion met
 Total energy in the final basis set = -1510.28034661
   13   -1510.2814244628      2.88E-09 Convergence criterion met
 Total energy in the final basis set = -1510.28142446
   13   -1510.2819588001      6.38E-09 Convergence criterion met
 Total energy in the final basis set = -1510.28195880
   13   -1510.2829506274      3.57E-09 Convergence criterion met
 Total energy in the final basis set = -1510.28295063
   13   -1510.2838610602      3.67E-09 Convergence criterion met
 Total energy in the final basis set = -1510.28386106
   13   -1510.2845011928      3.38E-09 Convergence criterion met
 Total energy in the final basis set = -1510.28450119
   13   -1510.2853828172      7.12E-09 Convergence criterion met
 Total energy in the final basis set = -1510.28538282
   14   -1510.2862962805      8.68E-09 Convergence criterion met
   12   -1510.2923653615      8.20E-09 Convergence criterion met
 Total energy in the final basis set = -1510.29236536
   12   -1510.2924472137      4.77E-09 Convergence criterion met
 Total energy in the final basis set = -1510.29244721
   11   -1510.2924526023      8.93E-09 Convergence criterion met
 Total energy in the final basis set = -1510.29245260
   12   -1510.2924631223      2.25E-09 Convergence criterion met
 Total energy in the final basis set = -1510.29246312
   11   -1510.2924695445      2.39E-09 Convergence criterion met
 Total energy in the final basis set = -1510.29246954
    9   -1510.2924726570      6.76E-09 Convergence criterion met
 Total energy in the final basis set = -1510.29247266

             Standard Nuclear Orientation (Angstroms)
    I     Atom           X                Y                Z
 ----------------------------------------------------------------
    1      O      -3.8708092585    -2.0420070303    -1.7453135704
    2      C      -3.6193080229    -1.5067250205    -0.6441660312
    3      C      -4.5525426720    -0.5444503867     0.1727177483
    4      C      -3.8541566917     0.8116402546     0.6136140852
    5      C      -2.3659400847     0.9221533426     0.1440770704
    6      O      -1.5359646044     1.0399481779     1.3130598270
    7      C      -0.1101393434     1.0924722274     0.9127124314
    8      C       0.6307558125    -0.1514815677     1.5206890353
    9      O       2.0423547858    -0.2373827929     1.0695067795
   10      C       2.1383540661    -0.8362981808    -0.2253297168
   11      C       3.6494463971    -1.0652032752    -0.5598706736
   12      C       4.5561789373     0.2286671848    -0.4412148212
   13      C       3.7764880506     1.5584173640    -0.1480345900
   14      O       4.0246414270     2.4065912357     0.7339791446
   15      O      -2.4135234724    -1.6995223960     0.1002779450
   16      O       2.7333821778     1.6811416482    -1.1248808369
   17      O       1.1631610030    -1.1800488372    -0.9314620927
   18      C       2.0637440648     2.9961669297    -1.0038612540
   19      C       4.3329823728    -1.9919529555     0.5402607126
   20      C       5.7368198867    -2.4714577024    -0.0050901050
   21      C       6.6040119943    -1.1717766812     0.1916228100
   22      C       5.5202025625    -0.1721354575     0.7525410940
   23      O       4.6767019592    -1.0345510079     1.6132680760
   24      H       3.7023274434    -1.5099788114    -1.5688472776
   25      H       5.1246782711     0.3783328981    -1.3781158959
   26      H       3.6803158989    -2.7969288756     0.9304739293
   27      H       6.1180121576    -3.3086771880     0.6007837702
   28      H       5.6836370785    -2.7929061169    -1.0576184190
   29      H       7.4014743623    -1.3293380870     0.9350029075
   30      H       7.0591453521    -0.8148912372    -0.7460141261
   31      H       5.9030812031     0.6933515836     1.3276631380
   32      O      -1.9314408002     0.9552868847    -1.0284287452
   33      C      -1.4697021780    -2.5696882196    -0.6457692455
   34      C      -5.7359770684    -0.0033685116    -0.7292772863
   35      C      -6.8450551087     0.6123059039     0.2094672779
   36      C      -6.1551101368     1.9555308033     0.6527122734
   37      C      -4.7839608002     1.8679149644    -0.1287452756
   38      O      -5.1429682161     1.1835073178    -1.3903776680
   39      H      -4.9262309855    -1.0931999605     1.0570184238
   40      H      -3.8793236508     0.9391249998     1.7097310519
   41      H      -0.5124302997    -2.0170503446    -0.7878981858
   42      H      -6.0882024407    -0.7311693803    -1.4863113357
   43      H      -7.7690272982     0.8017292741    -0.3598429586
   44      H      -7.0835756659    -0.0455008378     1.0606956758
   45      H      -6.7302789083     2.8342599810     0.3205419078
   46      H      -6.0077067983     2.0202127277     1.7426030991
   47      H      -4.2974701450     2.8398730800    -0.3398045047
   48      H      -1.9154345018    -2.8387470966    -1.6234448772
   49      H      -1.2917216823    -3.4872587970    -0.0511059193
   50      H       1.1261036769     2.9234824361    -1.5852095016
   51      H       2.6970176512     3.8032605576    -1.4266163711
   52      H       1.8369858729     3.2449013647     0.0514703753
   53      H       0.6804585889    -0.0658259646     2.6246369386
   54      H       0.0688437311    -1.0701971383     1.2517653693
   55      H       0.3316718128     2.0333578854     1.2990466626
   56      H      -0.0620671161     1.0716942701    -0.1981616782
 ----------------------------------------------------------------

    9   -1510.2924727422      8.28E-09 Convergence criterion met
 Total energy in the final basis set = -1510.29247274
 Final energy is   -1510.29247274217
 **  OPTIMIZATION CONVERGED  **

                    Orbital Energies (a.u.)
 --------------------------------------------------------------

 Alpha MOs
 -- Occupied --
-18.942 -18.936 -18.930 -18.925 -18.891 -18.886 -18.885 -18.880
-18.873 -18.872 -10.110 -10.103 -10.097 -10.095 -10.073 -10.066
-10.065 -10.063 -10.060 -10.059 -10.055 -10.043 -10.041 -10.037
-10.035 -10.035 -10.023 -10.022 -10.019 -10.018  -1.021  -1.012
 -1.010  -1.002  -0.973  -0.968  -0.945  -0.940  -0.934  -0.930
 -0.768  -0.761  -0.730  -0.722  -0.712  -0.706  -0.695  -0.665
 -0.649  -0.617  -0.599  -0.583  -0.549  -0.543  -0.540  -0.535
 -0.516  -0.507  -0.487  -0.475  -0.468  -0.458  -0.449  -0.447
 -0.437  -0.433  -0.428  -0.416  -0.411  -0.409  -0.403  -0.399
 -0.394  -0.379  -0.377  -0.366  -0.363  -0.357  -0.355  -0.351
 -0.350  -0.336  -0.335  -0.330  -0.328  -0.326  -0.324  -0.313
 -0.308  -0.308  -0.303  -0.302  -0.295  -0.291  -0.284  -0.278
 -0.269  -0.256  -0.255  -0.244  -0.241  -0.237  -0.232  -0.190
 -0.181  -0.171  -0.165  -0.161  -0.158  -0.155  -0.150  -0.146
 -0.142

          Ground-State Mulliken Net Atomic Charges

     Atom                 Charge (a.u.)
  ----------------------------------------
      1 O                    -0.210570
      2 C                     0.214136
      3 C                    -0.077978
      4 C                    -0.078579
      5 C                     0.213858
      6 O                    -0.173343
      7 C                    -0.059714
      8 C                    -0.050006
      9 O                    -0.165770
     10 C                     0.218896
     11 C                    -0.077772
     12 C                    -0.078173
     13 C                     0.213872
     14 O                    -0.210348
     15 O                    -0.178271
     16 O                    -0.173149
     17 O                    -0.213180
     18 C                    -0.130041
     19 C                     0.026277
     20 C                    -0.144153
     21 C                    -0.143559
     22 C                     0.024481
     23 O                    -0.185554
     24 H                     0.087601
     25 H                     0.085571
     26 H                     0.082123
     27 H                     0.078690
     28 H                     0.074417
     29 H                     0.078827
     30 H                     0.073728
     31 H                     0.091302
     32 O                    -0.212921
     33 C                    -0.153761
     34 C                     0.024343
     35 C                    -0.144077
     36 C                    -0.143917
     37 C                     0.025759
     38 O                    -0.186190
     39 H                     0.084431
     40 H                     0.086289
     41 H                     0.110037
     42 H                     0.091268
     43 H                     0.078185
     44 H                     0.072884
     45 H                     0.077878
     46 H                     0.073239
     47 H                     0.082601
     48 H                     0.097706
     49 H                     0.074623
     50 H                     0.095157
     51 H                     0.086206
     52 H                     0.091493
     53 H                     0.092969
     54 H                     0.095177
     55 H                     0.081318
     56 H                     0.105687
  ----------------------------------------
  Sum of atomic charges =     0.000000

                    Cartesian Multipole Moments
 -----------------------------------------------------------------
    Charge (ESU x 10^10)
                 0.0000
    Dipole Moment (Debye)
         X       1.1591      Y      -0.1141      Z       1.4986
       Tot       1.8980
    Quadrupole Moments (Debye-Ang)
        XX    -143.7222     XY      -7.6390     YY    -153.7543
        XZ     -20.4641     YZ      -2.7581     ZZ    -169.4394

 Total job time:  92.02s(wall), 4385.37s(cpu)
        *  Thank you very much for using Q-Chem.  Have a nice day.  *
