 Q-Chem 5.0, Q-Chem, Inc., Pleasanton, CA (2017)
 Q-Chem 5.0.1 for Intel X86 EM64T Linux

User input:
--------------------------------------------------------------
$molecule
0  1
O -3.94934 -3.66094 2.70899
C -3.26408 -4.56952 2.26188
C -3.36658 -6.02376 2.66595
C -2.05027 -6.77868 2.91349
C -0.78508 -5.94967 2.90281
O 0.28916 -6.74606 2.62497
C 1.52559 -6.02637 2.57439
C 1.63261 -5.25696 1.26188
O 2.60436 -4.20688 1.38799
C 2.86375 -3.80163 2.65591
C 3.89204 -2.69759 2.72198
C 5.22416 -3.01117 2.02528
C 5.21297 -4.19632 1.08082
O 5.53692 -4.16662 -0.09763
O -2.48297 -4.31546 1.17823
O 5.0082 -5.41085 1.65965
O 1.93196 -3.56253 3.41828
C 5.06615 -6.61444 0.98817
C 3.48746 -1.39966 1.99187
C 4.24026 -0.21877 2.60055
C 5.65035 -0.50725 2.12396
C 5.39163 -1.71291 1.21052
O 4.08793 -1.50175 0.72323
H 4.06287 -2.47193 3.80138
H 6.0465 -3.18843 2.75298
H 2.39196 -1.20974 2.00219
H 3.86986 0.69584 2.08383
H 4.1292 -0.08625 3.69824
H 6.00891 0.37022 1.5415
H 6.37964 -0.76051 2.92379
H 6.19397 -1.79114 0.44448
O -0.69581 -4.84885 3.43641
C -2.2998 -3.06609 0.62419
C -4.07042 -6.21019 4.02212
C -4.6031 -7.63865 4.14856
C -3.31595 -8.39821 4.38552
C -2.30517 -7.24991 4.36106
O -3.01109 -6.1809 4.94438
H -3.94495 -6.51456 1.85163
H -1.91293 -7.65598 2.24034
H -1.8481 -2.38004 1.37233
H -4.8945 -5.48451 4.19546
H -5.22501 -7.70278 5.06978
H -5.19955 -7.97378 3.27272
H -3.34659 -8.82916 5.41146
H -3.09086 -9.19932 3.64885
H -1.36979 -7.556 4.88058
H -3.27065 -2.65534 0.27366
H -1.61279 -3.15051 -0.24264
H 4.85353 -7.4383 1.69972
H 6.07971 -6.76482 0.55905
H 4.3085 -6.6376 0.17649
H 1.85757 -5.9333 0.41032
H 0.67121 -4.74844 1.03691
H 2.36212 -6.75636 2.5419
H 1.63214 -5.65443 3.60596
$end

$opt
CONSTRAINT
tors           1           2           3           4    -135.948
tors           3           4           5           6    -157.091
tors           4           5           6           7    +178.982
tors           5           6           7           8     -76.636
tors           6           7           8           9    +160.396
tors           7           8           9          10     -22.014
tors           8           9          10          11    +179.991
tors           9          10          11          12     -54.626
tors          11          12          13          14    +123.944
ENDCONSTRAINT
$end

$rem
JOBTYPE                   OPT
METHOD                    B3LYP
DFT_D                     d3_op
BASIS                     STO-3G
GEOM_OPT_MAX_CYCLES       100
GEOM_OPT_TOL_GRADIENT     300
GEOM_OPT_TOL_DISPLACEMENT 1200
GEOM_OPT_TOL_ENERGY       100
SYMMETRY                  False
THRESH                    12
SCF_CONVERGENCE           8
MAX_SUB_FILE_NUM          128
MEM_STATIC                400
MEM_TOTAL                 4000
$end
--------------------------------------------------------------

   16   -1510.0940509082      3.97E-09 Convergence criterion met
 Total energy in the final basis set = -1510.09405091
   14   -1510.1721486793      9.05E-09 Convergence criterion met
 Total energy in the final basis set = -1510.17214868
   14   -1510.2174069122      7.48E-09 Convergence criterion met
 Total energy in the final basis set = -1510.21740691
   15   -1510.2459240717      2.37E-09 Convergence criterion met
 Total energy in the final basis set = -1510.24592407
   14   -1510.2609912506      4.88E-09 Convergence criterion met
 Total energy in the final basis set = -1510.26099125
   13   -1510.2695389515      9.53E-09 Convergence criterion met
 Total energy in the final basis set = -1510.26953895
   13   -1510.2745473486      7.99E-09 Convergence criterion met
 Total energy in the final basis set = -1510.27454735
   13   -1510.2775114559      3.85E-09 Convergence criterion met
   11   -1510.2803807988      5.24E-09 Convergence criterion met
 Total energy in the final basis set = -1510.28038080
   10   -1510.2804153538      7.10E-09 Convergence criterion met
 Total energy in the final basis set = -1510.28041535
   10   -1510.2804325427      6.38E-09 Convergence criterion met
 Total energy in the final basis set = -1510.28043254
   10   -1510.2804431104      7.12E-09 Convergence criterion met
 Total energy in the final basis set = -1510.28044311
    9   -1510.2804469285      8.25E-09 Convergence criterion met
 Total energy in the final basis set = -1510.28044693
    9   -1510.2804483056      3.62E-09 Convergence criterion met
 Total energy in the final basis set = -1510.28044831

             Standard Nuclear Orientation (Angstroms)
    I     Atom           X                Y                Z
 ----------------------------------------------------------------
    1      O       3.6867639081    -2.7673437944     0.0419903437
    2      C       3.5191206556    -1.6953867401    -0.5764187394
    3      C       4.4946434696    -0.4640002851    -0.6132448103
    4      C       3.7943070747     0.9442322478    -0.4532128607
    5      C       2.3197836180     0.7997226038     0.0498175515
    6      O       1.5816337771     1.9691786371    -0.3210071288
    7      C       0.1732599905     1.8415670120     0.1256008974
    8      C      -0.6079870355     0.8673819714    -0.8453024887
    9      O      -1.8732869433     0.2452104314    -0.3686580498
   10      C      -2.0892941528     0.1494597777     1.0377938402
   11      C      -3.4867961436    -0.5401498756     1.2227112135
   12      C      -4.6714344648     0.1866314689     0.4571183460
   13      C      -4.2154132627     1.4466622729    -0.3617777441
   14      O      -4.3810267063     1.6670789422    -1.5793483467
   15      O       2.4770989684    -1.4770513676    -1.5429600954
   16      O      -3.5856910637     2.3651520034     0.5448944102
   17      O      -1.3111337579     0.4735511774     1.9646219794
   18      C      -3.1495391416     3.5752849447    -0.1873177364
   19      C      -3.5339455148    -1.9754713368     0.5356346482
   20      C      -4.7891100925    -2.7531768952     1.0984199156
   21      C      -5.9619867454    -2.0289887374     0.3380036427
   22      C      -5.1623578909    -0.9660702121    -0.5119253563
   23      O      -3.9088607021    -1.6741339142    -0.8630961562
   24      H      -3.6829331218    -0.6011316547     2.3072934863
   25      H      -5.4626630554     0.4967117804     1.1643974833
   26      H      -2.5787927057    -2.5346905838     0.5713185503
   27      H      -4.7306830263    -3.8198447006     0.8294556460
   28      H      -4.8738089038    -2.6692764702     2.1936950222
   29      H      -6.5033808007    -2.7236120391    -0.3236007200
   30      H      -6.6850672396    -1.5558408728     1.0214353166
   31      H      -5.6656022990    -0.5976400932    -1.4269153685
   32      O       1.8513426438    -0.1462666214     0.7224129366
   33      C       1.5231163210    -2.6077861292    -1.5157518057
   34      C       5.5182319968    -0.4521095019     0.5952752495
   35      C       6.7611977358     0.4168856269     0.1613405040
   36      C       6.1298644923     1.8595444829     0.1725596812
   37      C       4.6768542789     1.5597245326     0.7207516551
   38      O       4.8608097591     0.3967108586     1.6176228090
   39      H       5.0336681416    -0.5074731949    -1.5780088656
   40      H       3.8223113730     1.5529664652    -1.3732379411
   41      H       0.9882272712    -2.6569419682    -0.5448086664
   42      H       5.7412888662    -1.4563462923     1.0056064558
   43      H       7.5709345078     0.3275743059     0.9031186787
   44      H       7.1517710941     0.1278812859    -0.8275084528
   45      H       6.6691287813     2.5353450910     0.8549198470
   46      H       6.1015186336     2.3177366620    -0.8291752589
   47      H       4.1958461518     2.3980418969     1.2617740718
   48      H       2.0309555831    -3.5784745674    -1.6882769085
   49      H       0.7966748821    -2.4184641586    -2.3276053703
   50      H      -2.6140096696     4.2030268686     0.5484598679
   51      H      -4.0137317604     4.1390923638    -0.5945339354
   52      H      -2.4717014862     3.3224721677    -1.0275340697
   53      H      -0.8841275735     1.3905301627    -1.7846331181
   54      H       0.0812055522     0.0351135353    -1.1123572140
   55      H      -0.2523417908     2.8619076582     0.0851239093
   56      H       0.0745201195     1.4280011156     1.1544853680
 ----------------------------------------------------------------

    9   -1510.2804492095      2.51E-09 Convergence criterion met
 Total energy in the final basis set = -1510.28044921
 Final energy is   -1510.28044920951
 **  OPTIMIZATION CONVERGED  **

                    Orbital Energies (a.u.)
 --------------------------------------------------------------

 Alpha MOs
 -- Occupied --
-18.940 -18.935 -18.935 -18.924 -18.888 -18.885 -18.883 -18.877
-18.875 -18.868 -10.108 -10.101 -10.099 -10.094 -10.072 -10.068
-10.061 -10.060 -10.059 -10.058 -10.058 -10.055 -10.039 -10.037
-10.037 -10.034 -10.021 -10.020 -10.020 -10.018  -1.018  -1.013
 -1.007  -1.001  -0.970  -0.968  -0.944  -0.938  -0.937  -0.928
 -0.765  -0.762  -0.728  -0.722  -0.711  -0.704  -0.694  -0.666
 -0.657  -0.620  -0.597  -0.586  -0.547  -0.544  -0.538  -0.536
 -0.513  -0.509  -0.482  -0.476  -0.465  -0.459  -0.453  -0.444
 -0.438  -0.430  -0.429  -0.415  -0.409  -0.407  -0.405  -0.391
 -0.390  -0.379  -0.373  -0.369  -0.364  -0.356  -0.355  -0.350
 -0.343  -0.341  -0.338  -0.332  -0.331  -0.327  -0.324  -0.311
 -0.310  -0.306  -0.303  -0.299  -0.296  -0.289  -0.282  -0.278
 -0.273  -0.262  -0.255  -0.248  -0.236  -0.234  -0.232  -0.187
 -0.180  -0.175  -0.168  -0.157  -0.154  -0.147  -0.147  -0.144
 -0.142

          Ground-State Mulliken Net Atomic Charges

     Atom                 Charge (a.u.)
  ----------------------------------------
      1 O                    -0.212929
      2 C                     0.216362
      3 C                    -0.079795
      4 C                    -0.078010
      5 C                     0.214163
      6 O                    -0.172756
      7 C                    -0.068944
      8 C                    -0.053363
      9 O                    -0.168315
     10 C                     0.220211
     11 C                    -0.077907
     12 C                    -0.078258
     13 C                     0.215109
     14 O                    -0.211310
     15 O                    -0.178532
     16 O                    -0.174834
     17 O                    -0.207443
     18 C                    -0.129203
     19 C                     0.026206
     20 C                    -0.143731
     21 C                    -0.144188
     22 C                     0.024757
     23 O                    -0.186193
     24 H                     0.086021
     25 H                     0.084820
     26 H                     0.083152
     27 H                     0.078326
     28 H                     0.074413
     29 H                     0.078219
     30 H                     0.073158
     31 H                     0.090021
     32 O                    -0.209924
     33 C                    -0.130006
     34 C                     0.024178
     35 C                    -0.142947
     36 C                    -0.144452
     37 C                     0.025299
     38 O                    -0.188415
     39 H                     0.083346
     40 H                     0.086716
     41 H                     0.090594
     42 H                     0.091819
     43 H                     0.078214
     44 H                     0.073000
     45 H                     0.078100
     46 H                     0.073339
     47 H                     0.083277
     48 H                     0.089273
     49 H                     0.088409
     50 H                     0.090364
     51 H                     0.088777
     52 H                     0.087467
     53 H                     0.087528
     54 H                     0.091293
     55 H                     0.082182
     56 H                     0.123342
  ----------------------------------------
  Sum of atomic charges =     0.000000

                    Cartesian Multipole Moments
 -----------------------------------------------------------------
    Charge (ESU x 10^10)
                 0.0000
    Dipole Moment (Debye)
         X      -0.8423      Y       1.6091      Z      -1.0990
       Tot       2.1228
    Quadrupole Moments (Debye-Ang)
        XX    -142.2423     XY       8.1308     YY    -153.6449
        XZ     -15.8473     YZ       0.6940     ZZ    -167.4543

 Total job time:  59.25s(wall), 2818.78s(cpu)
        *  Thank you very much for using Q-Chem.  Have a nice day.  *
