 Q-Chem 5.0, Q-Chem, Inc., Pleasanton, CA (2017)
 Q-Chem 5.0.1 for Intel X86 EM64T Linux

User input:
--------------------------------------------------------------
$molecule
0  1
O -3.94934 -3.66094 2.70899
C -3.26408 -4.56952 2.26188
C -3.36658 -6.02376 2.66595
C -2.06091 -6.74108 3.04613
C -0.8232 -5.8779 3.15145
O 0.29138 -6.6362 2.93209
C 1.507 -5.88324 2.99968
C 1.61056 -4.94368 1.80275
O 2.55437 -3.89765 2.0819
C 2.74733 -3.62168 3.39558
C 3.74928 -2.51493 3.62329
C 5.10856 -2.72147 2.93921
C 5.1517 -3.78826 1.86366
O 5.52324 -3.61845 0.71141
O -2.4328 -4.30518 1.21928
O 4.95711 -5.06555 2.29171
O 1.78001 -3.49983 4.14101
C 5.07125 -6.18244 1.49001
C 3.33903 -1.14928 3.03332
C 4.04581 -0.03282 3.79865
C 5.47632 -0.23855 3.34042
C 5.27314 -1.33471 2.28586
O 3.9811 -1.0927 1.78235
H 3.8783 -2.4117 4.72668
H 5.91126 -2.96807 3.66862
H 2.2398 -0.98209 3.02844
H 3.67178 0.92825 3.37775
H 3.8972 -0.02953 4.89989
H 5.83404 0.70694 2.87582
H 6.18509 -0.56994 4.13009
H 6.10068 -1.30881 1.54345
O -0.80876 -4.78979 3.71773
C -2.22485 -3.05004 0.68765
C -4.19407 -6.22324 3.94874
C -4.69723 -7.66542 4.03424
C -3.41916 -8.3871 4.4021
C -2.44263 -7.21102 4.46613
O -3.23101 -6.15913 4.96943
H -3.85201 -6.53443 1.80449
H -1.83699 -7.61985 2.39852
H -1.80857 -2.37187 1.46306
H -5.05096 -5.52024 4.03471
H -5.40447 -7.74217 4.89067
H -5.19548 -8.02186 3.10696
H -3.53788 -8.81225 5.42405
H -3.10169 -9.18633 3.69816
H -1.55407 -7.48788 5.07638
H -3.1788 -2.63577 0.29708
H -1.49848 -3.12515 -0.14736
H 4.85492 -7.08729 2.09389
H 6.1034 -6.2602 1.08668
H 4.34462 -6.12872 0.65183
H 1.87031 -5.49757 0.87616
H 0.64727 -4.42759 1.61105
H 2.37018 -6.57678 2.91652
H 1.55188 -5.61251 4.06561
$end

$opt
CONSTRAINT
tors           1           2           3           4    -130.152
tors           3           4           5           6    -154.660
tors           4           5           6           7    +179.299
tors           5           6           7           8     -69.932
tors           6           7           8           9    +160.675
tors           7           8           9          10     -24.612
tors           8           9          10          11    +179.991
tors           9          10          11          12     -53.467
tors          11          12          13          14    +124.696
ENDCONSTRAINT
$end

$rem
JOBTYPE                   OPT
METHOD                    B3LYP
DFT_D                     d3_op
BASIS                     STO-3G
GEOM_OPT_MAX_CYCLES       100
GEOM_OPT_TOL_GRADIENT     300
GEOM_OPT_TOL_DISPLACEMENT 1200
GEOM_OPT_TOL_ENERGY       100
SYMMETRY                  False
THRESH                    12
SCF_CONVERGENCE           8
MAX_SUB_FILE_NUM          128
MEM_STATIC                400
MEM_TOTAL                 4000
$end
--------------------------------------------------------------

   16   -1510.0984489406      3.73E-09 Convergence criterion met
 Total energy in the final basis set = -1510.09844894
   14   -1510.1761584064      5.84E-09 Convergence criterion met
 Total energy in the final basis set = -1510.17615841
   14   -1510.2209565734      8.47E-09 Convergence criterion met
 Total energy in the final basis set = -1510.22095657
   15   -1510.2486325492      2.45E-09 Convergence criterion met
 Total energy in the final basis set = -1510.24863255
   13   -1510.2631187340      7.66E-09 Convergence criterion met
 Total energy in the final basis set = -1510.26311873
   13   -1510.2711237428      9.06E-09 Convergence criterion met
 Total energy in the final basis set = -1510.27112374
   13   -1510.2757207541      8.08E-09 Convergence criterion met
 Total energy in the final basis set = -1510.27572075
   13   -1510.2785190901      3.57E-09 Convergence criterion met
   12   -1510.2809938117      3.74E-09 Convergence criterion met
 Total energy in the final basis set = -1510.28099381
   10   -1510.2810454966      8.33E-09 Convergence criterion met
 Total energy in the final basis set = -1510.28104550
   10   -1510.2810697470      8.64E-09 Convergence criterion met
 Total energy in the final basis set = -1510.28106975
   10   -1510.2810909823      7.16E-09 Convergence criterion met
 Total energy in the final basis set = -1510.28109098
   10   -1510.2810970499      4.58E-09 Convergence criterion met
 Total energy in the final basis set = -1510.28109705
    9   -1510.2811003177      6.61E-09 Convergence criterion met
 Total energy in the final basis set = -1510.28110032

             Standard Nuclear Orientation (Angstroms)
    I     Atom           X                Y                Z
 ----------------------------------------------------------------
    1      O       3.6351208867    -2.7447393408    -0.0503297998
    2      C       3.5128301834    -1.6662875031    -0.6678403642
    3      C       4.4964030824    -0.4408105289    -0.6349179231
    4      C       3.8047205894     0.9553182503    -0.3611470299
    5      C       2.3105533962     0.7870390586     0.0696176659
    6      O       1.5927117359     1.9787524815    -0.2632955942
    7      C       0.1638976016     1.8508852793     0.1157013472
    8      C      -0.5777016202     0.8119124225    -0.8191534645
    9      O      -1.8603015270     0.2250166811    -0.3439050581
   10      C      -2.0972199661     0.1784494401     1.0614079001
   11      C      -3.5080534740    -0.4825723944     1.2494548522
   12      C      -4.6648192082     0.2195818236     0.4217501303
   13      C      -4.1805898049     1.4455997163    -0.4314539693
   14      O      -4.3215476874     1.6256853827    -1.6587598394
   15      O       2.5132068430    -1.4188132353    -1.6708105234
   16      O      -3.5649014081     2.3917012154     0.4563638154
   17      O      -1.3266839713     0.5240096582     1.9873131298
   18      C      -3.1143805412     3.5773969653    -0.3061166231
   19      C      -3.5545903379    -1.9473819158     0.6266572704
   20      C      -4.8347705505    -2.6869194948     1.1840729218
   21      C      -5.9760739805    -1.9859769067     0.3564342490
   22      C      -5.1393074129    -0.9681456349    -0.5120619177
   23      O      -3.8843638961    -1.7040070441    -0.7948092871
   24      H      -3.7284857530    -0.4899300952     2.3310154490
   25      H      -5.4725366367     0.5628710456     1.0942980031
   26      H      -2.6078282774    -2.5151298839     0.7149770505
   27      H      -4.7796469188    -3.7649340540     0.9640734912
   28      H      -4.9520140805    -2.5540857525     2.2715222936
   29      H      -6.5027629500    -2.7038521873    -0.2920713331
   30      H      -6.7156495180    -1.4789306565     0.9965081586
   31      H      -5.6105584072    -0.6331737984    -1.4564690957
   32      O       1.8141137766    -0.1982085098     0.6617737183
   33      C       1.5518031706    -2.5431531003    -1.7072223089
   34      C       5.5185148109    -0.5285965397     0.5735656637
   35      C       6.7562084733     0.3859097656     0.2274923834
   36      C       6.1194917757     1.8173633220     0.3858830311
   37      C       4.6623210485     1.4565012161     0.8822325486
   38      O       4.8457333499     0.2147639129     1.6653572694
   39      H       5.0291479590    -0.4172930115    -1.6035850280
   40      H       3.8680091993     1.6440421508    -1.2211684032
   41      H       0.9952976663    -2.6267844624    -0.7508770301
   42      H       5.7480796515    -1.5641832320     0.8921083181
   43      H       7.5690051104     0.2249622134     0.9534730416
   44      H       7.1440296777     0.1993439006    -0.7866453990
   45      H       6.6480689028     2.4155384558     1.1449448471
   46      H       6.1036432828     2.3821175810    -0.5600946947
   47      H       4.1671597923     2.2356306796     1.4940049198
   48      H       2.0571360994    -3.5101013371    -1.9063663706
   49      H       0.8449690918    -2.3180463362    -2.5272076323
   50      H      -2.5745566993     4.2189857193     0.4144635409
   51      H      -3.9719812253     4.1391322298    -0.7299731672
   52      H      -2.4374937402     3.2957211458    -1.1379177957
   53      H      -0.8237567811     1.2720401184    -1.7988596098
   54      H       0.1188507865    -0.0347553070    -1.0046058413
   55      H      -0.2669433525     2.8628783980     0.0003970778
   56      H       0.0232731876     1.4947758659     1.1620695191
 ----------------------------------------------------------------

    9   -1510.2810938941      2.66E-09 Convergence criterion met
 Total energy in the final basis set = -1510.28109389
 Final energy is   -1510.28109389415
 **  OPTIMIZATION CONVERGED  **

                    Orbital Energies (a.u.)
 --------------------------------------------------------------

 Alpha MOs
 -- Occupied --
-18.940 -18.936 -18.934 -18.923 -18.888 -18.885 -18.883 -18.877
-18.875 -18.868 -10.109 -10.101 -10.100 -10.093 -10.071 -10.068
-10.061 -10.060 -10.059 -10.058 -10.057 -10.055 -10.039 -10.037
-10.037 -10.033 -10.021 -10.020 -10.020 -10.018  -1.018  -1.013
 -1.007  -1.001  -0.970  -0.968  -0.944  -0.938  -0.937  -0.928
 -0.765  -0.761  -0.729  -0.722  -0.711  -0.704  -0.694  -0.666
 -0.657  -0.621  -0.597  -0.586  -0.547  -0.544  -0.538  -0.536
 -0.513  -0.509  -0.483  -0.476  -0.465  -0.459  -0.452  -0.444
 -0.438  -0.431  -0.429  -0.415  -0.409  -0.407  -0.405  -0.390
 -0.390  -0.379  -0.373  -0.369  -0.364  -0.356  -0.354  -0.350
 -0.344  -0.342  -0.338  -0.332  -0.331  -0.327  -0.324  -0.311
 -0.310  -0.306  -0.302  -0.299  -0.296  -0.289  -0.282  -0.278
 -0.273  -0.262  -0.255  -0.248  -0.236  -0.234  -0.232  -0.189
 -0.180  -0.175  -0.168  -0.157  -0.154  -0.147  -0.146  -0.144
 -0.142

          Ground-State Mulliken Net Atomic Charges

     Atom                 Charge (a.u.)
  ----------------------------------------
      1 O                    -0.212414
      2 C                     0.215988
      3 C                    -0.079905
      4 C                    -0.078331
      5 C                     0.213980
      6 O                    -0.171913
      7 C                    -0.069254
      8 C                    -0.054416
      9 O                    -0.167706
     10 C                     0.220644
     11 C                    -0.077815
     12 C                    -0.078278
     13 C                     0.215253
     14 O                    -0.211570
     15 O                    -0.178781
     16 O                    -0.175097
     17 O                    -0.207746
     18 C                    -0.129267
     19 C                     0.026127
     20 C                    -0.143754
     21 C                    -0.144154
     22 C                     0.024707
     23 O                    -0.186119
     24 H                     0.086166
     25 H                     0.084745
     26 H                     0.083519
     27 H                     0.078438
     28 H                     0.074369
     29 H                     0.078261
     30 H                     0.073148
     31 H                     0.090027
     32 O                    -0.210508
     33 C                    -0.130062
     34 C                     0.024305
     35 C                    -0.143341
     36 C                    -0.144235
     37 C                     0.025509
     38 O                    -0.187973
     39 H                     0.083321
     40 H                     0.086500
     41 H                     0.091030
     42 H                     0.091667
     43 H                     0.078169
     44 H                     0.072962
     45 H                     0.078084
     46 H                     0.073405
     47 H                     0.083400
     48 H                     0.088776
     49 H                     0.088523
     50 H                     0.090249
     51 H                     0.088533
     52 H                     0.087815
     53 H                     0.087496
     54 H                     0.093865
     55 H                     0.082479
     56 H                     0.121176
  ----------------------------------------
  Sum of atomic charges =     0.000000

                    Cartesian Multipole Moments
 -----------------------------------------------------------------
    Charge (ESU x 10^10)
                 0.0000
    Dipole Moment (Debye)
         X      -0.8445      Y       1.7857      Z      -1.0481
       Tot       2.2362
    Quadrupole Moments (Debye-Ang)
        XX    -141.4255     XY       8.1032     YY    -154.1705
        XZ     -15.1249     YZ       0.8140     ZZ    -167.0579

 Total job time:  56.98s(wall), 2711.00s(cpu)
        *  Thank you very much for using Q-Chem.  Have a nice day.  *
