 Q-Chem 5.0, Q-Chem, Inc., Pleasanton, CA (2017)
 Q-Chem 5.0.1 for Intel X86 EM64T Linux

User input:
--------------------------------------------------------------
$molecule
0  1
O 3.6351208867 -2.7447393408 -0.0503297998
C 3.5128301834 -1.6662875031 -0.6678403642
C 4.4964030824 -0.4408105289 -0.6349179231
C 3.8047205894 0.9553182503 -0.3611470299
C 2.3105533962 0.7870390586 0.0696176659
O 1.5927117359 1.9787524815 -0.2632955942
C 0.1638976016 1.8508852793 0.1157013472
C -0.5777016202 0.8119124225 -0.8191534645
O -1.860301527 0.2250166811 -0.3439050581
C -2.0972199661 0.1784494401 1.0614079001
C -3.508053474 -0.4825723944 1.2494548522
C -4.6648192082 0.2195818236 0.4217501303
C -4.1805898049 1.4455997163 -0.4314539693
O -4.3215476874 1.6256853827 -1.6587598394
O 2.513206843 -1.4188132353 -1.6708105234
O -3.5649014081 2.3917012154 0.4563638154
O -1.3266839713 0.5240096582 1.9873131298
C -3.1143805412 3.5773969653 -0.3061166231
C -3.5545903379 -1.9473819158 0.6266572704
C -4.8347705505 -2.6869194948 1.1840729218
C -5.9760739805 -1.9859769067 0.356434249
C -5.1393074129 -0.9681456349 -0.5120619177
O -3.8843638961 -1.7040070441 -0.7948092871
H -3.728485753 -0.4899300952 2.331015449
H -5.4725366367 0.5628710456 1.0942980031
H -2.6078282774 -2.5151298839 0.7149770505
H -4.7796469188 -3.764934054 0.9640734912
H -4.9520140805 -2.5540857525 2.2715222936
H -6.50276295 -2.7038521873 -0.2920713331
H -6.715649518 -1.4789306565 0.9965081586
H -5.6105584072 -0.6331737984 -1.4564690957
O 1.8141137766 -0.1982085098 0.6617737183
C 1.5518031706 -2.5431531003 -1.7072223089
C 5.5185148109 -0.5285965397 0.5735656637
C 6.7562084733 0.3859097656 0.2274923834
C 6.1194917757 1.817363322 0.3858830311
C 4.6623210485 1.4565012161 0.8822325486
O 4.8457333499 0.2147639129 1.6653572694
H 5.029147959 -0.4172930115 -1.603585028
H 3.8680091993 1.6440421508 -1.2211684032
H 0.9952976663 -2.6267844624 -0.7508770301
H 5.7480796515 -1.564183232 0.8921083181
H 7.5690051104 0.2249622134 0.9534730416
H 7.1440296777 0.1993439006 -0.786645399
H 6.6480689028 2.4155384558 1.1449448471
H 6.1036432828 2.382117581 -0.5600946947
H 4.1671597923 2.2356306796 1.4940049198
H 2.0571360994 -3.5101013371 -1.9063663706
H 0.8449690918 -2.3180463362 -2.5272076323
H -2.5745566993 4.2189857193 0.4144635409
H -3.9719812253 4.1391322298 -0.7299731672
H -2.4374937402 3.2957211458 -1.1379177957
H -0.8237567811 1.2720401184 -1.7988596098
H 0.1188507865 -0.034755307 -1.0046058413
H -0.2669433525 2.862878398 0.0003970778
H 0.0232731876 1.4947758659 1.1620695191
$end

$rem
JOBTYPE                   OPT
METHOD                    B3LYP
DFT_D                     d3_op
BASIS                     STO-3G
GEOM_OPT_MAX_CYCLES       100
GEOM_OPT_TOL_GRADIENT     300
GEOM_OPT_TOL_DISPLACEMENT 1200
GEOM_OPT_TOL_ENERGY       100
SYMMETRY                  False
THRESH                    12
SCF_CONVERGENCE           8
MAX_SUB_FILE_NUM          128
MEM_STATIC                400
MEM_TOTAL                 4000
$end
--------------------------------------------------------------

   16   -1510.2810836866      6.24E-09 Convergence criterion met
 Total energy in the final basis set = -1510.28108369
   13   -1510.2821098086      9.78E-09 Convergence criterion met
 Total energy in the final basis set = -1510.28210981
   13   -1510.2824518923      9.08E-09 Convergence criterion met
 Total energy in the final basis set = -1510.28245189
   13   -1510.2833030617      2.41E-09 Convergence criterion met
 Total energy in the final basis set = -1510.28330306
   13   -1510.2841176884      3.95E-09 Convergence criterion met
 Total energy in the final basis set = -1510.28411769
   13   -1510.2847759264      5.47E-09 Convergence criterion met
 Total energy in the final basis set = -1510.28477593
   13   -1510.2856139580      8.87E-09 Convergence criterion met
 Total energy in the final basis set = -1510.28561396
   13   -1510.2865168420      4.80E-09 Convergence criterion met
   12   -1510.2923118783      9.81E-09 Convergence criterion met
 Total energy in the final basis set = -1510.29231188
   13   -1510.2923287643      3.09E-09 Convergence criterion met
 Total energy in the final basis set = -1510.29232876
   12   -1510.2924363258      3.64E-09 Convergence criterion met
 Total energy in the final basis set = -1510.29243633
   12   -1510.2924411033      3.51E-09 Convergence criterion met
 Total energy in the final basis set = -1510.29244110
   11   -1510.2924529070      8.46E-09 Convergence criterion met
 Total energy in the final basis set = -1510.29245291
   11   -1510.2924580558      5.87E-09 Convergence criterion met
 Total energy in the final basis set = -1510.29245806

             Standard Nuclear Orientation (Angstroms)
    I     Atom           X                Y                Z
 ----------------------------------------------------------------
    1      O      -3.8736882690    -2.0444012888    -1.7274161634
    2      C      -3.6206091215    -1.5002154104    -0.6309783448
    3      C      -4.5517852226    -0.5293336094     0.1780822475
    4      C      -3.8517278084     0.8308068472     0.6037527199
    5      C      -2.3641027732     0.9349594038     0.1309872064
    6      O      -1.5325889223     1.0638516104     1.2976496343
    7      C      -0.1070112212     1.1102012159     0.8955573052
    8      C       0.6320835276    -0.1287116444     1.5158868316
    9      O       2.0432082158    -0.2217122408     1.0649996962
   10      C       2.1378131549    -0.8357987825    -0.2227946292
   11      C       3.6486396414    -1.0711903988    -0.5543193989
   12      C       4.5575490624     0.2223074248    -0.4486008151
   13      C       3.7791086691     1.5567852486    -0.1741302477
   14      O       4.0282944341     2.4179269371     0.6949159301
   15      O      -2.4146479674    -1.6887760493     0.1143773617
   16      O       2.7354539067     1.6656271261    -1.1520583514
   17      O       1.1619191636    -1.1863030502    -0.9246351806
   18      C       2.0673917743     2.9831046806    -1.0509673760
   19      C       4.3294616960    -1.9870828517     0.5564076058
   20      C       5.7338463925    -2.4735121241     0.0187114508
   21      C       6.6022109568    -1.1730038761     0.2041966487
   22      C       5.5181859816    -0.1663103318     0.7520377792
   23      O       4.6720110290    -1.0187467464     1.6200125150
   24      H       3.7013717342    -1.5268699666    -1.5583998702
   25      H       5.1288416107     0.3596243969    -1.3857008818
   26      H       3.6753779585    -2.7874064669     0.9537537340
   27      H       6.1127902646    -3.3051214447     0.6336558899
   28      H       5.6823841375    -2.8054417118    -1.0306668984
   29      H       7.3976183712    -1.3238145012     0.9511701654
   30      H       7.0600598429    -0.8262477162    -0.7358897514
   31      H       5.9006467435     0.7049663288     1.3186470489
   32      O      -1.9309324064     0.9549036969    -1.0423112268
   33      C      -1.4729414096    -2.5675117304    -0.6244775881
   34      C      -5.7365834438     0.0032207865    -0.7270834285
   35      C      -6.8433693343     0.6295514543     0.2072545269
   36      C      -6.1516572775     1.9768194168     0.6349763395
   37      C      -4.7819630235     1.8799729169    -0.1480254119
   38      O      -5.1439851072     1.1826310902    -1.4017656429
   39      H      -4.9240235680    -1.0689920200     1.0685727549
   40      H      -3.8751281448     0.9696669835     1.6985243057
   41      H      -0.5145739648    -2.0182641879    -0.7724709121
   42      H      -6.0909385347    -0.7321515413    -1.4757542464
   43      H      -7.7682746256     0.8136121782    -0.3623170274
   44      H      -7.0809315223    -0.0190865589     1.0657942430
   45      H      -6.7267273659     2.8523737950     0.2943835503
   46      H      -6.0023268243     2.0530561888     1.7238773424
   47      H      -4.2950940116     2.8492578503    -0.3702159450
   48      H      -1.9200536943    -2.8445528083    -1.5992657105
   49      H      -1.2963317391    -3.4799918069    -0.0216511460
   50      H       1.1304495244     2.9030493363    -1.6324920892
   51      H       2.7022064737     3.7832679244    -1.4844457690
   52      H       1.8393967139     3.2473908677     0.0003074489
   53      H       0.6822859936    -0.0319794217     2.6189050553
   54      H       0.0684855461    -1.0491625436     1.2564607012
   55      H       0.3366962346     2.0543398661     1.2716950064
   56      H      -0.0598440571     1.0776601639    -0.2150583750
 ----------------------------------------------------------------

   11   -1510.2924576085      3.34E-09 Convergence criterion met
 Total energy in the final basis set = -1510.29245761
 Final energy is   -1510.29245760846
 **  OPTIMIZATION CONVERGED  **

                    Orbital Energies (a.u.)
 --------------------------------------------------------------

 Alpha MOs
 -- Occupied --
-18.942 -18.936 -18.930 -18.925 -18.891 -18.886 -18.885 -18.880
-18.873 -18.872 -10.110 -10.103 -10.097 -10.095 -10.073 -10.066
-10.065 -10.063 -10.060 -10.059 -10.055 -10.043 -10.041 -10.037
-10.035 -10.035 -10.023 -10.022 -10.019 -10.018  -1.021  -1.012
 -1.010  -1.002  -0.973  -0.968  -0.945  -0.940  -0.934  -0.929
 -0.768  -0.761  -0.730  -0.722  -0.712  -0.706  -0.695  -0.665
 -0.649  -0.617  -0.599  -0.583  -0.549  -0.543  -0.540  -0.535
 -0.516  -0.507  -0.487  -0.475  -0.468  -0.458  -0.449  -0.447
 -0.437  -0.433  -0.428  -0.416  -0.411  -0.409  -0.403  -0.399
 -0.394  -0.379  -0.377  -0.366  -0.363  -0.357  -0.355  -0.351
 -0.350  -0.336  -0.335  -0.330  -0.328  -0.326  -0.324  -0.313
 -0.308  -0.308  -0.303  -0.302  -0.295  -0.291  -0.284  -0.278
 -0.269  -0.256  -0.255  -0.244  -0.241  -0.237  -0.232  -0.190
 -0.181  -0.171  -0.165  -0.161  -0.158  -0.155  -0.150  -0.146
 -0.142

          Ground-State Mulliken Net Atomic Charges

     Atom                 Charge (a.u.)
  ----------------------------------------
      1 O                    -0.210565
      2 C                     0.214089
      3 C                    -0.077968
      4 C                    -0.078583
      5 C                     0.213837
      6 O                    -0.173342
      7 C                    -0.059681
      8 C                    -0.049990
      9 O                    -0.165805
     10 C                     0.218979
     11 C                    -0.077756
     12 C                    -0.078167
     13 C                     0.213899
     14 O                    -0.210346
     15 O                    -0.178302
     16 O                    -0.173155
     17 O                    -0.213205
     18 C                    -0.130034
     19 C                     0.026267
     20 C                    -0.144163
     21 C                    -0.143547
     22 C                     0.024486
     23 O                    -0.185550
     24 H                     0.087599
     25 H                     0.085562
     26 H                     0.082120
     27 H                     0.078693
     28 H                     0.074419
     29 H                     0.078826
     30 H                     0.073727
     31 H                     0.091293
     32 O                    -0.212901
     33 C                    -0.153814
     34 C                     0.024354
     35 C                    -0.144081
     36 C                    -0.143908
     37 C                     0.025737
     38 O                    -0.186178
     39 H                     0.084431
     40 H                     0.086303
     41 H                     0.110059
     42 H                     0.091261
     43 H                     0.078179
     44 H                     0.072879
     45 H                     0.077877
     46 H                     0.073238
     47 H                     0.082607
     48 H                     0.097682
     49 H                     0.074604
     50 H                     0.095193
     51 H                     0.086220
     52 H                     0.091471
     53 H                     0.092962
     54 H                     0.095197
     55 H                     0.081346
     56 H                     0.105646
  ----------------------------------------
  Sum of atomic charges =     0.000000

                    Cartesian Multipole Moments
 -----------------------------------------------------------------
    Charge (ESU x 10^10)
                 0.0000
    Dipole Moment (Debye)
         X       1.1682      Y      -0.1028      Z       1.5023
       Tot       1.9059
    Quadrupole Moments (Debye-Ang)
        XX    -143.7540     XY      -7.8683     YY    -153.8172
        XZ     -20.3912     YZ      -2.8844     ZZ    -169.3491

 Total job time:  88.80s(wall), 4229.71s(cpu)
        *  Thank you very much for using Q-Chem.  Have a nice day.  *
