 Q-Chem 5.0, Q-Chem, Inc., Pleasanton, CA (2017)
 Q-Chem 5.0.1 for Intel X86 EM64T Linux

User input:
--------------------------------------------------------------
$molecule
0  1
O 3.7561864633 -2.7299063837 0.2234699074
C 3.5629433515 -1.7168291389 -0.4801251572
C 4.5154952577 -0.4775899959 -0.6477885048
C 3.8050263258 0.9226167365 -0.4502377344
C 2.367324059 0.7654485108 0.1445979287
O 1.5703042438 1.886322345 -0.2564985523
C 0.1829836429 1.7203051727 0.2409552551
C -0.6098022687 0.8032595964 -0.7716308072
O -1.9138737059 0.2255796561 -0.3492813475
C -2.1508681738 0.0729886318 1.050519145
C -3.5846878218 -0.5502263111 1.1902285047
C -4.7112516903 0.2342035423 0.3979075428
C -4.1994832579 1.5227825445 -0.3384284635
O -4.3812485421 1.8385983919 -1.53250045
O 2.4723549085 -1.5704749461 -1.4054490056
O -3.5240461254 2.3522132376 0.6199884833
O -1.361454641 0.303531274 1.9942765835
C -3.0548463477 3.5944769656 -0.0337710955
C -3.6648947424 -1.9694671347 0.4730984122
C -4.9847131757 -2.6969132612 0.9504467198
C -6.0787209612 -1.917530144 0.1288146822
C -5.1862742052 -0.8666705269 -0.6383806416
O -3.9461974687 -1.6209218577 -0.9365442239
H -3.8144790727 -0.6215412623 2.2673956696
H -5.5312986847 0.5295166893 1.0784979303
H -2.7409003499 -2.5751892076 0.5483829934
H -4.9556975339 -3.7633594585 0.6759181515
H -5.131480299 -2.6169118501 2.0395397446
H -6.5943585332 -2.5794691347 -0.5848380033
H -6.831786925 -1.4350062402 0.7721165059
H -5.6168916558 -0.4477838745 -1.568824695
O 1.9623369201 -0.1592609548 0.884256611
C 1.5195737449 -2.6906029526 -1.2389137913
C 5.6418945816 -0.4209652692 0.4649040774
C 6.8173602061 0.4774185281 -0.082113292
C 6.1539486635 1.903913647 -0.0192834597
C 4.7595575714 1.5690213583 0.6467530432
O 5.0486464332 0.4191528388 1.5328241941
H 4.9600338415 -0.5368185155 -1.6586238713
H 3.760614269 1.5190237556 -1.3777824479
H 1.0550759937 -2.6740660656 -0.2313628055
H 5.9285683914 -1.4131437956 0.8647894545
H 7.6917856295 0.4124989959 0.5847859549
H 7.1255765483 0.1929589938 -1.100887077
H 6.7309643734 2.5936072543 0.6168217991
H 6.0334233379 2.3592134369 -1.0153924762
H 4.3004324633 2.3982348897 1.2196007034
H 2.0108778842 -3.6741187804 -1.3848457211
H 0.7382634207 -2.5485186674 -2.0084092342
H -2.5223953749 4.1695086729 0.7460130344
H -3.9018015958 4.195580726 -0.4231727644
H -2.365364998 3.3784926698 -0.8749306331
H -0.8327134452 1.3605456014 -1.7053902217
H 0.0573511136 -0.0479047245 -1.0370775899
H -0.256576135 2.7348883811 0.2835678867
H 0.1346212374 1.2412121538 1.2426173506
$end

$rem
JOBTYPE                   OPT
METHOD                    B3LYP
DFT_D                     d3_op
BASIS                     STO-3G
GEOM_OPT_MAX_CYCLES       100
GEOM_OPT_TOL_GRADIENT     300
GEOM_OPT_TOL_DISPLACEMENT 1200
GEOM_OPT_TOL_ENERGY       100
SYMMETRY                  False
THRESH                    12
SCF_CONVERGENCE           8
MAX_SUB_FILE_NUM          128
MEM_STATIC                400
MEM_TOTAL                 4000
$end
--------------------------------------------------------------

   16   -1510.2815608139      5.36E-09 Convergence criterion met
 Total energy in the final basis set = -1510.28156081
   13   -1510.2824007296      4.20E-09 Convergence criterion met
 Total energy in the final basis set = -1510.28240073
   13   -1510.2830989387      5.62E-09 Convergence criterion met
 Total energy in the final basis set = -1510.28309894
   13   -1510.2841271743      3.85E-09 Convergence criterion met
 Total energy in the final basis set = -1510.28412717
   13   -1510.2851762489      5.37E-09 Convergence criterion met
 Total energy in the final basis set = -1510.28517625
   13   -1510.2861126703      7.82E-09 Convergence criterion met
 Total energy in the final basis set = -1510.28611267
   13   -1510.2866550008      4.28E-09 Convergence criterion met
 Total energy in the final basis set = -1510.28665500
   13   -1510.2871504297      3.59E-09 Convergence criterion met
   11   -1510.2987960292      9.23E-09 Convergence criterion met
 Total energy in the final basis set = -1510.29879603
   11   -1510.2988055997      6.71E-09 Convergence criterion met
 Total energy in the final basis set = -1510.29880560
   11   -1510.2988123555      7.09E-09 Convergence criterion met
 Total energy in the final basis set = -1510.29881236
   10   -1510.2988251826      6.20E-09 Convergence criterion met
 Total energy in the final basis set = -1510.29882518
   10   -1510.2988416983      8.27E-09 Convergence criterion met
 Total energy in the final basis set = -1510.29884170
   10   -1510.2988486512      7.43E-09 Convergence criterion met
 Total energy in the final basis set = -1510.29884865

             Standard Nuclear Orientation (Angstroms)
    I     Atom           X                Y                Z
 ----------------------------------------------------------------
    1      O       3.2245129251     0.6603861312    -2.2773211465
    2      C       3.1038723006     0.7184350498    -1.0349429062
    3      C       4.1275537075     0.1487782000     0.0180965741
    4      C       3.5522536902    -0.9160119196     1.0473152436
    5      C       2.0261608346    -1.1664910772     0.8541294053
    6      O       1.3686352754    -0.9871361442     2.1121510085
    7      C      -0.1016467977    -0.9204176869     1.9186999686
    8      C      -0.4708015292     0.5432295828     1.4907214575
    9      O      -1.8738951296     0.5145479554     1.0152789674
   10      C      -2.1956012937     1.6723623982     0.2455616179
   11      C      -3.6960069806     1.5537323818    -0.1813981952
   12      C      -4.0546389256     0.1385955209    -0.8002938537
   13      C      -2.8156000962    -0.8101381927    -0.9964647747
   14      O      -2.6759584155    -1.9767056559    -0.5715358806
   15      O       2.0287044655     1.3969235283    -0.3684069493
   16      O      -1.8799346488    -0.1271724799    -1.8348428809
   17      O      -1.4062021793     2.6127578308    -0.0025832412
   18      C      -0.7401343308    -1.0139929420    -2.1741728195
   19      C      -4.6525151907     1.5565130329     1.0914702728
   20      C      -6.1450557501     1.7319941677     0.5997226747
   21      C      -6.4619109202     0.2888361653     0.0548762268
   22      C      -5.0720550108    -0.4248495541     0.2751539967
   23      O      -4.5944351927     0.1533040302     1.5538277881
   24      H      -3.9211731229     2.3817920604    -0.8755736326
   25      H      -4.5423111028     0.2643968210    -1.7846217462
   26      H      -4.3393143832     2.2461003807     1.8994363406
   27      H      -6.7990003985     1.9987167455     1.4452342994
   28      H      -6.2370529180     2.5097002304    -0.1753182352
   29      H      -7.2469521114    -0.2031501681     0.6509348153
   30      H      -6.7689150599     0.2895021179    -1.0032407616
   31      H      -5.0939292841    -1.5304843484     0.3351189895
   32      O       1.4507413459    -1.4710245030    -0.2154462106
   33      C       1.1836584136     2.1006871746    -1.3695595765
   34      C       5.2297544556    -0.7159242895    -0.7223384752
   35      C       6.4547936236    -0.9176235896     0.2516350250
   36      C       5.8757825662    -1.9861417994     1.2521142830
   37      C       4.4236312696    -2.1942423691     0.6669727402
   38      O       4.6111472032    -2.0610834621    -0.7930434799
   39      H       4.5690855434     1.0053665811     0.5604506660
   40      H       3.7234991234    -0.6023031949     2.0915651015
   41      H       0.2493709627     2.3980901504    -0.8422754365
   42      H       5.4691549925    -0.3507873396    -1.7398819619
   43      H       7.3248764194    -1.3099903102    -0.2982158172
   44      H       6.7460908639     0.0198603094     0.7518530818
   45      H       6.4440127870    -2.9290071090     1.2108514528
   46      H       5.8560205051    -1.6292940589     2.2942494161
   47      H       3.9480342342    -3.1636160535     0.9124815244
   48      H       0.9430651888     1.4388194698    -2.2236465141
   49      H       1.7068149099     2.9980215058    -1.7565324195
   50      H      -0.0263928306    -1.1331508939    -1.3257742554
   51      H      -0.2225233401    -0.5294316027    -3.0222662932
   52      H      -1.0950717767    -2.0166798172    -2.4842679619
   53      H      -0.3692082837     1.2401372039     2.3503121171
   54      H       0.2348149927     0.8693867992     0.6949743387
   55      H      -0.5637912229    -1.1877948083     2.8888253082
   56      H      -0.4388338328    -1.6315884319     1.1336617170
 ----------------------------------------------------------------

    9   -1510.2988486148      5.35E-09 Convergence criterion met
 Total energy in the final basis set = -1510.29884861
 Final energy is   -1510.29884861484
 **  OPTIMIZATION CONVERGED  **

                    Orbital Energies (a.u.)
 --------------------------------------------------------------

 Alpha MOs
 -- Occupied --
-18.943 -18.942 -18.929 -18.922 -18.889 -18.888 -18.887 -18.884
-18.875 -18.866 -10.111 -10.109 -10.098 -10.094 -10.075 -10.071
-10.063 -10.062 -10.058 -10.057 -10.042 -10.041 -10.040 -10.039
-10.039 -10.035 -10.022 -10.021 -10.021 -10.020  -1.023  -1.018
 -1.006  -1.001  -0.972  -0.970  -0.948  -0.943  -0.932  -0.928
 -0.766  -0.764  -0.730  -0.724  -0.712  -0.706  -0.698  -0.653
 -0.649  -0.618  -0.598  -0.582  -0.547  -0.546  -0.538  -0.537
 -0.518  -0.509  -0.486  -0.477  -0.462  -0.461  -0.454  -0.447
 -0.436  -0.432  -0.430  -0.414  -0.409  -0.407  -0.401  -0.399
 -0.393  -0.379  -0.373  -0.368  -0.361  -0.359  -0.356  -0.352
 -0.341  -0.336  -0.334  -0.332  -0.330  -0.328  -0.325  -0.312
 -0.310  -0.306  -0.305  -0.299  -0.295  -0.289  -0.285  -0.279
 -0.271  -0.258  -0.255  -0.245  -0.243  -0.236  -0.234  -0.187
 -0.181  -0.174  -0.171  -0.161  -0.161  -0.151  -0.146  -0.146
 -0.144

          Ground-State Mulliken Net Atomic Charges

     Atom                 Charge (a.u.)
  ----------------------------------------
      1 O                    -0.208532
      2 C                     0.211113
      3 C                    -0.078485
      4 C                    -0.079728
      5 C                     0.217877
      6 O                    -0.168494
      7 C                    -0.050378
      8 C                    -0.054877
      9 O                    -0.166402
     10 C                     0.221005
     11 C                    -0.077979
     12 C                    -0.078387
     13 C                     0.213341
     14 O                    -0.216988
     15 O                    -0.180449
     16 O                    -0.180055
     17 O                    -0.215987
     18 C                    -0.146001
     19 C                     0.025809
     20 C                    -0.144036
     21 C                    -0.143545
     22 C                     0.024379
     23 O                    -0.186779
     24 H                     0.086543
     25 H                     0.083913
     26 H                     0.081528
     27 H                     0.078026
     28 H                     0.073955
     29 H                     0.078082
     30 H                     0.073497
     31 H                     0.090865
     32 O                    -0.212644
     33 C                    -0.146874
     34 C                     0.024696
     35 C                    -0.144404
     36 C                    -0.143500
     37 C                     0.026410
     38 O                    -0.185769
     39 H                     0.084777
     40 H                     0.087710
     41 H                     0.111161
     42 H                     0.092232
     43 H                     0.078899
     44 H                     0.073391
     45 H                     0.078882
     46 H                     0.073932
     47 H                     0.084014
     48 H                     0.088867
     49 H                     0.079494
     50 H                     0.108812
     51 H                     0.083515
     52 H                     0.084901
     53 H                     0.085219
     54 H                     0.103762
     55 H                     0.094852
     56 H                     0.104830
  ----------------------------------------
  Sum of atomic charges =     0.000000

                    Cartesian Multipole Moments
 -----------------------------------------------------------------
    Charge (ESU x 10^10)
                 0.0000
    Dipole Moment (Debye)
         X      -0.1547      Y       1.5082      Z       1.7006
       Tot       2.2783
    Quadrupole Moments (Debye-Ang)
        XX    -138.0067     XY      -4.4292     YY    -163.6653
        XZ      12.9016     YZ      -1.6014     ZZ    -162.1184

 Total job time:  199.55s(wall), 9519.93s(cpu)
        *  Thank you very much for using Q-Chem.  Have a nice day.  *
