 Q-Chem 5.0, Q-Chem, Inc., Pleasanton, CA (2017)
 Q-Chem 5.0.1 for Intel X86 EM64T Linux

User input:
--------------------------------------------------------------
$molecule
0  1
O -3.94934 -3.66094 2.70899
C -3.26408 -4.56952 2.26188
C -3.36658 -6.02376 2.66595
C -2.06091 -6.74108 3.04613
C -0.8232 -5.8779 3.15145
O 0.28985 -6.63108 2.90805
C 1.50096 -5.86807 2.9254
C 1.72166 -5.20145 1.57151
O 2.7346 -4.1894 1.68362
C 2.91094 -3.67604 2.92641
C 3.98794 -2.61869 2.97887
C 5.33571 -3.0369 2.37316
C 5.31266 -4.27765 1.50327
O 5.77797 -4.36163 0.37588
O -2.43306 -4.30537 1.21894
O 4.99829 -5.43674 2.14516
O 1.93603 -3.34747 3.59556
C 5.06371 -6.68984 1.57132
C 3.6837 -1.35623 2.14439
C 4.45959 -0.17151 2.7155
C 5.87699 -0.55402 2.33711
C 5.60794 -1.80418 1.48878
O 4.34263 -1.56844 0.91915
H 4.10886 -2.32675 4.04877
H 6.10737 -3.20816 3.1557
H 2.59956 -1.1172 2.08288
H 4.16077 0.72133 2.12031
H 4.29836 0.04054 3.79432
H 6.30826 0.2666 1.722
H 6.54977 -0.78793 3.19059
H 6.44373 -1.96763 0.77376
O -0.8048 -4.77607 3.69026
C -2.22493 -3.05038 0.68707
C -4.19483 -6.22095 3.94832
C -4.69584 -7.6637 4.03777
C -3.41746 -8.38143 4.41151
C -2.44239 -7.20386 4.46904
O -3.23202 -6.15119 4.96852
H -3.8514 -6.53444 1.80421
H -1.83751 -7.62645 2.40734
H -1.80843 -2.37211 1.46226
H -5.05291 -5.51905 4.03142
H -5.40574 -7.73994 4.89201
H -5.18996 -8.02325 3.10948
H -3.53622 -8.79876 5.4367
H -3.09928 -9.18615 3.71418
H -1.55376 -7.47729 5.08082
H -3.17887 -2.63597 0.29662
H -1.49873 -3.12579 -0.14808
H 4.74688 -7.44812 2.31617
H 6.10529 -6.91255 1.25583
H 4.38654 -6.74514 0.69282
H 1.96926 -5.9454 0.78519
H 0.79104 -4.6782 1.26351
H 2.35179 -6.57486 3.02516
H 1.5114 -5.40749 3.92702
$end

$opt
CONSTRAINT
tors           1           2           3           4    -130.152
tors           3           4           5           6    -153.562
tors           4           5           6           7    +177.129
tors           5           6           7           8     -83.314
tors           6           7           8           9    +165.843
tors           7           8           9          10     -23.948
tors           8           9          10          11    +179.991
tors           9          10          11          12     -51.959
tors          11          12          13          14    +129.226
ENDCONSTRAINT
$end

$rem
JOBTYPE                   OPT
METHOD                    B3LYP
DFT_D                     d3_op
BASIS                     STO-3G
GEOM_OPT_MAX_CYCLES       100
GEOM_OPT_TOL_GRADIENT     300
GEOM_OPT_TOL_DISPLACEMENT 1200
GEOM_OPT_TOL_ENERGY       100
SYMMETRY                  False
THRESH                    12
SCF_CONVERGENCE           8
MAX_SUB_FILE_NUM          128
MEM_STATIC                400
MEM_TOTAL                 4000
$end
--------------------------------------------------------------

   16   -1510.0996100071      3.81E-09 Convergence criterion met
 Total energy in the final basis set = -1510.09961001
   14   -1510.1766917334      6.00E-09 Convergence criterion met
 Total energy in the final basis set = -1510.17669173
   14   -1510.2209094498      8.11E-09 Convergence criterion met
 Total energy in the final basis set = -1510.22090945
   14   -1510.2485032812      9.80E-09 Convergence criterion met
 Total energy in the final basis set = -1510.24850328
   13   -1510.2630277410      9.01E-09 Convergence criterion met
 Total energy in the final basis set = -1510.26302774
   13   -1510.2711347303      8.53E-09 Convergence criterion met
 Total energy in the final basis set = -1510.27113473
   14   -1510.2758511370      3.69E-09 Convergence criterion met
 Total energy in the final basis set = -1510.27585114
   13   -1510.2787268719      3.49E-09 Convergence criterion met
   11   -1510.2816585775      4.84E-09 Convergence criterion met
 Total energy in the final basis set = -1510.28165858
   11   -1510.2816990568      5.47E-09 Convergence criterion met
 Total energy in the final basis set = -1510.28169906
    9   -1510.2817145597      9.16E-09 Convergence criterion met
 Total energy in the final basis set = -1510.28171456
   10   -1510.2817262485      8.94E-09 Convergence criterion met
 Total energy in the final basis set = -1510.28172625
    9   -1510.2817289981      5.93E-09 Convergence criterion met
 Total energy in the final basis set = -1510.28172900
    9   -1510.2817305607      4.58E-09 Convergence criterion met
 Total energy in the final basis set = -1510.28173056

             Standard Nuclear Orientation (Angstroms)
    I     Atom           X                Y                Z
 ----------------------------------------------------------------
    1      O       3.7561864633    -2.7299063837     0.2234699074
    2      C       3.5629433515    -1.7168291389    -0.4801251572
    3      C       4.5154952577    -0.4775899959    -0.6477885048
    4      C       3.8050263258     0.9226167365    -0.4502377344
    5      C       2.3673240590     0.7654485108     0.1445979287
    6      O       1.5703042438     1.8863223450    -0.2564985523
    7      C       0.1829836429     1.7203051727     0.2409552551
    8      C      -0.6098022687     0.8032595964    -0.7716308072
    9      O      -1.9138737059     0.2255796561    -0.3492813475
   10      C      -2.1508681738     0.0729886318     1.0505191450
   11      C      -3.5846878218    -0.5502263111     1.1902285047
   12      C      -4.7112516903     0.2342035423     0.3979075428
   13      C      -4.1994832579     1.5227825445    -0.3384284635
   14      O      -4.3812485421     1.8385983919    -1.5325004500
   15      O       2.4723549085    -1.5704749461    -1.4054490056
   16      O      -3.5240461254     2.3522132376     0.6199884833
   17      O      -1.3614546410     0.3035312740     1.9942765835
   18      C      -3.0548463477     3.5944769656    -0.0337710955
   19      C      -3.6648947424    -1.9694671347     0.4730984122
   20      C      -4.9847131757    -2.6969132612     0.9504467198
   21      C      -6.0787209612    -1.9175301440     0.1288146822
   22      C      -5.1862742052    -0.8666705269    -0.6383806416
   23      O      -3.9461974687    -1.6209218577    -0.9365442239
   24      H      -3.8144790727    -0.6215412623     2.2673956696
   25      H      -5.5312986847     0.5295166893     1.0784979303
   26      H      -2.7409003499    -2.5751892076     0.5483829934
   27      H      -4.9556975339    -3.7633594585     0.6759181515
   28      H      -5.1314802990    -2.6169118501     2.0395397446
   29      H      -6.5943585332    -2.5794691347    -0.5848380033
   30      H      -6.8317869250    -1.4350062402     0.7721165059
   31      H      -5.6168916558    -0.4477838745    -1.5688246950
   32      O       1.9623369201    -0.1592609548     0.8842566110
   33      C       1.5195737449    -2.6906029526    -1.2389137913
   34      C       5.6418945816    -0.4209652692     0.4649040774
   35      C       6.8173602061     0.4774185281    -0.0821132920
   36      C       6.1539486635     1.9039136470    -0.0192834597
   37      C       4.7595575714     1.5690213583     0.6467530432
   38      O       5.0486464332     0.4191528388     1.5328241941
   39      H       4.9600338415    -0.5368185155    -1.6586238713
   40      H       3.7606142690     1.5190237556    -1.3777824479
   41      H       1.0550759937    -2.6740660656    -0.2313628055
   42      H       5.9285683914    -1.4131437956     0.8647894545
   43      H       7.6917856295     0.4124989959     0.5847859549
   44      H       7.1255765483     0.1929589938    -1.1008870770
   45      H       6.7309643734     2.5936072543     0.6168217991
   46      H       6.0334233379     2.3592134369    -1.0153924762
   47      H       4.3004324633     2.3982348897     1.2196007034
   48      H       2.0108778842    -3.6741187804    -1.3848457211
   49      H       0.7382634207    -2.5485186674    -2.0084092342
   50      H      -2.5223953749     4.1695086729     0.7460130344
   51      H      -3.9018015958     4.1955807260    -0.4231727644
   52      H      -2.3653649980     3.3784926698    -0.8749306331
   53      H      -0.8327134452     1.3605456014    -1.7053902217
   54      H       0.0573511136    -0.0479047245    -1.0370775899
   55      H      -0.2565761350     2.7348883811     0.2835678867
   56      H       0.1346212374     1.2412121538     1.2426173506
 ----------------------------------------------------------------

    9   -1510.2817308953      2.60E-09 Convergence criterion met
 Total energy in the final basis set = -1510.28173090
 Final energy is   -1510.28173089532
 **  OPTIMIZATION CONVERGED  **

                    Orbital Energies (a.u.)
 --------------------------------------------------------------

 Alpha MOs
 -- Occupied --
-18.939 -18.935 -18.935 -18.924 -18.888 -18.886 -18.882 -18.877
-18.876 -18.869 -10.107 -10.102 -10.100 -10.094 -10.072 -10.068
-10.061 -10.061 -10.060 -10.058 -10.058 -10.056 -10.039 -10.038
-10.037 -10.034 -10.021 -10.020 -10.020 -10.018  -1.018  -1.014
 -1.007  -1.001  -0.970  -0.969  -0.943  -0.938  -0.937  -0.929
 -0.765  -0.762  -0.729  -0.722  -0.711  -0.705  -0.694  -0.666
 -0.657  -0.620  -0.598  -0.586  -0.547  -0.544  -0.538  -0.536
 -0.513  -0.509  -0.482  -0.477  -0.465  -0.460  -0.453  -0.445
 -0.437  -0.431  -0.430  -0.415  -0.409  -0.407  -0.405  -0.393
 -0.390  -0.379  -0.373  -0.370  -0.364  -0.356  -0.355  -0.350
 -0.343  -0.341  -0.337  -0.333  -0.331  -0.327  -0.325  -0.311
 -0.310  -0.306  -0.303  -0.298  -0.298  -0.290  -0.281  -0.279
 -0.273  -0.262  -0.256  -0.249  -0.238  -0.235  -0.232  -0.186
 -0.180  -0.174  -0.169  -0.157  -0.155  -0.148  -0.147  -0.144
 -0.142

          Ground-State Mulliken Net Atomic Charges

     Atom                 Charge (a.u.)
  ----------------------------------------
      1 O                    -0.211452
      2 C                     0.216132
      3 C                    -0.079744
      4 C                    -0.078115
      5 C                     0.213523
      6 O                    -0.173003
      7 C                    -0.067125
      8 C                    -0.052900
      9 O                    -0.168703
     10 C                     0.219212
     11 C                    -0.077874
     12 C                    -0.078331
     13 C                     0.215698
     14 O                    -0.212085
     15 O                    -0.178872
     16 O                    -0.174650
     17 O                    -0.208490
     18 C                    -0.129150
     19 C                     0.026008
     20 C                    -0.143900
     21 C                    -0.143956
     22 C                     0.024695
     23 O                    -0.186413
     24 H                     0.086086
     25 H                     0.084646
     26 H                     0.082613
     27 H                     0.078235
     28 H                     0.074290
     29 H                     0.078300
     30 H                     0.073208
     31 H                     0.090415
     32 O                    -0.209238
     33 C                    -0.130349
     34 C                     0.024285
     35 C                    -0.143187
     36 C                    -0.144336
     37 C                     0.025334
     38 O                    -0.187859
     39 H                     0.083450
     40 H                     0.086671
     41 H                     0.091446
     42 H                     0.091669
     43 H                     0.078275
     44 H                     0.073066
     45 H                     0.078125
     46 H                     0.073423
     47 H                     0.083096
     48 H                     0.088902
     49 H                     0.088211
     50 H                     0.090402
     51 H                     0.089400
     52 H                     0.087216
     53 H                     0.088141
     54 H                     0.089248
     55 H                     0.082715
     56 H                     0.123595
  ----------------------------------------
  Sum of atomic charges =     0.000000

                    Cartesian Multipole Moments
 -----------------------------------------------------------------
    Charge (ESU x 10^10)
                 0.0000
    Dipole Moment (Debye)
         X      -1.0028      Y       1.5653      Z      -1.2283
       Tot       2.2281
    Quadrupole Moments (Debye-Ang)
        XX    -142.8880     XY       8.7880     YY    -153.1928
        XZ     -16.9434     YZ       1.7863     ZZ    -168.2932

 Total job time:  60.11s(wall), 2855.37s(cpu)
        *  Thank you very much for using Q-Chem.  Have a nice day.  *
