 Q-Chem 5.0, Q-Chem, Inc., Pleasanton, CA (2017)
 Q-Chem 5.0.1 for Intel X86 EM64T Linux

User input:
--------------------------------------------------------------
$molecule
0  1
O 3.7395665905 -2.6739792981 0.3655248802
C 3.5875506691 -1.7244330846 -0.4304669743
C 4.5303753532 -0.4805658638 -0.6263322409
C 3.8062553715 0.9161646726 -0.4505836392
C 2.3530581879 0.7491268074 0.1003665367
O 1.5777016624 1.8977735527 -0.2566854461
C 0.1761454037 1.7249191233 0.1988657483
C -0.5827149354 0.7521063545 -0.7890385949
O -1.8902776468 0.180714466 -0.3674868094
C -2.155576697 0.0922955048 1.0324246246
C -3.5858594245 -0.5391310328 1.1750427622
C -4.7282834939 0.2522053751 0.4118615639
C -4.2249352086 1.5283443947 -0.3512869986
O -4.4409481791 1.8360502187 -1.541753343
O 2.571042663 -1.6720319814 -1.4464739652
O -3.4966841509 2.3517301086 0.5724007465
O -1.387714125 0.3723760489 1.9811024072
C -3.0336194836 3.5813648695 -0.1095270327
C -3.6771767866 -1.951711489 0.4471829434
C -4.9764440551 -2.6913321408 0.9604238466
C -6.1007441838 -1.9053644706 0.187593079
C -5.2392322229 -0.8487906171 -0.6068924543
O -4.0063777939 -1.5958774797 -0.9503867442
H -3.8026857362 -0.6217657615 2.2541987634
H -5.5250708298 0.5615374878 1.1135822295
H -2.7469652502 -2.5509657406 0.4883441555
H -4.9532488283 -3.7537694345 0.6702068982
H -5.0857212748 -2.6266546936 2.0548506505
H -6.6442957463 -2.561692049 -0.5103903867
H -6.8285980074 -1.4275701462 0.8627558849
H -5.7039151669 -0.4295083833 -1.5206289287
O 1.9179333377 -0.2136844634 0.7723096041
C 1.6196236562 -2.7897944538 -1.259788451
C 5.6505129146 -0.3955041855 0.4903283266
C 6.8122984896 0.5222736039 -0.0543140099
C 6.1279519269 1.9387632992 0.0101377322
C 4.7324843412 1.5792434904 0.6605495309
O 5.0336455938 0.436631532 1.551253214
H 4.9753791499 -0.5534920621 -1.635681078
H 3.7819209642 1.507193267 -1.3824989512
H 1.068181575 -2.6895763284 -0.3020256625
H 5.9537422227 -1.379355994 0.8982476075
H 7.6877935272 0.4694353665 0.6121918936
H 7.1243655222 0.243914618 -1.073592559
H 6.6885659835 2.6323639586 0.6565829607
H 6.0109807777 2.3986505961 -0.9842436184
H 4.2508647497 2.4003049359 1.2267421482
H 2.132388653 -3.7731412428 -1.2694094142
H 0.9072882715 -2.7338881115 -2.1036536168
H -2.4562312212 4.1503233047 0.642199924
H -3.886012009 4.1962905004 -0.4638922297
H -2.3872450425 3.3471823971 -0.9796139228
H -0.7923294538 1.2659977843 -1.7504721625
H 0.0959813881 -0.1040437195 -1.0031716809
H -0.2751389205 2.7346877561 0.1810720692
H 0.0970369986 1.2939035959 1.2208897398
$end

$rem
JOBTYPE                   OPT
METHOD                    B3LYP
DFT_D                     d3_op
BASIS                     STO-3G
GEOM_OPT_MAX_CYCLES       100
GEOM_OPT_TOL_GRADIENT     300
GEOM_OPT_TOL_DISPLACEMENT 1200
GEOM_OPT_TOL_ENERGY       100
SYMMETRY                  False
THRESH                    12
SCF_CONVERGENCE           8
MAX_SUB_FILE_NUM          128
MEM_STATIC                400
MEM_TOTAL                 4000
$end
--------------------------------------------------------------

   16   -1510.2817543388      5.44E-09 Convergence criterion met
 Total energy in the final basis set = -1510.28175434
   13   -1510.2823655277      4.28E-09 Convergence criterion met
 Total energy in the final basis set = -1510.28236553
   13   -1510.2832274643      6.57E-09 Convergence criterion met
 Total energy in the final basis set = -1510.28322746
   13   -1510.2842483224      2.34E-09 Convergence criterion met
 Total energy in the final basis set = -1510.28424832
   13   -1510.2850611177      7.23E-09 Convergence criterion met
 Total energy in the final basis set = -1510.28506112
   13   -1510.2858935856      5.49E-09 Convergence criterion met
 Total energy in the final basis set = -1510.28589359
   13   -1510.2867368360      3.44E-09 Convergence criterion met
 Total energy in the final basis set = -1510.28673684
   13   -1510.2873780761      9.39E-09 Convergence criterion met
   13   -1510.2923744778      2.78E-09 Convergence criterion met
 Total energy in the final basis set = -1510.29237448
   12   -1510.2923942756      5.25E-09 Convergence criterion met
 Total energy in the final basis set = -1510.29239428
   11   -1510.2924171580      8.14E-09 Convergence criterion met
 Total energy in the final basis set = -1510.29241716
   11   -1510.2924307988      9.86E-09 Convergence criterion met
 Total energy in the final basis set = -1510.29243080
   10   -1510.2924497545      6.96E-09 Convergence criterion met
 Total energy in the final basis set = -1510.29244975
    9   -1510.2924513766      7.65E-09 Convergence criterion met
 Total energy in the final basis set = -1510.29245138

             Standard Nuclear Orientation (Angstroms)
    I     Atom           X                Y                Z
 ----------------------------------------------------------------
    1      O      -3.9234047194     2.1016147136     1.6204309923
    2      C      -3.6381463526     1.5329861639     0.5445519628
    3      C      -4.5493521146     0.5533001893    -0.2772072773
    4      C      -3.8410728575    -0.8133056472    -0.6672866168
    5      C      -2.3653424548    -0.9161598021    -0.1581795355
    6      O      -1.5089071977    -1.0459555919    -1.3066369414
    7      C      -0.0922951744    -1.0923749956    -0.8754316487
    8      C       0.6611558394     0.1386346162    -1.4934618083
    9      O       2.0671965666     0.2229489427    -1.0269142650
   10      C       2.1589014828     0.8599967199     0.2499301582
   11      C       3.6723637628     1.0747708416     0.5844137718
   12      C       4.5574954796    -0.2361582592     0.4934037702
   13      C       3.7525784339    -1.5589519154     0.2402732373
   14      O       3.9777081136    -2.4336889318    -0.6217762746
   15      O      -2.4036808023     1.6919515544    -0.1601644328
   16      O       2.7162524766    -1.6389628654     1.2289470363
   17      O       1.1830157458     1.2390488850     0.9365698909
   18      C       2.0254779980    -2.9464053424     1.1502233377
   19      C       4.3692948406     1.9638769473    -0.5383036088
   20      C       5.7847492401     2.4276102773    -0.0096016590
   21      C       6.6271019757     1.1087371189    -0.1852998918
   22      C       5.5207282130     0.1174605620    -0.7162205348
   23      O       4.6890677588     0.9765321879    -1.5915768822
   24      H       3.7321740325     1.5416425378     1.5828662262
   25      H       5.1297779340    -0.3718491773     1.4301304017
   26      H       3.7305041719     2.7725521143    -0.9434497625
   27      H       6.1780837165     3.2459105895    -0.6332846178
   28      H       5.7428330342     2.7699133413     1.0368420847
   29      H       7.4209528464     1.2356687422    -0.9384081222
   30      H       7.0837388444     0.7633585849     0.7558885605
   31      H       5.8828946513    -0.7685605422    -1.2733264419
   32      O      -1.9584520667    -0.9405019062     1.0242902218
   33      C      -1.4774730304     2.5736274556     0.5942974353
   34      C      -5.7601510789     0.0327887046     0.6005933636
   35      C      -6.8404666837    -0.6039080966    -0.3574549788
   36      C      -6.1400246221    -1.9580555574    -0.7471460602
   37      C      -4.7922913114    -1.8523196450     0.0718158006
   38      O      -5.1884635058    -1.1386910149     1.3063240181
   39      H      -4.8968403774     1.0820720391    -1.1841062241
   40      H      -3.8370324737    -0.9648173338    -1.7606860393
   41      H      -0.5180680581     2.0292204008     0.7528424523
   42      H      -6.1353288861     0.7776184070     1.3293958863
   43      H      -7.7822290161    -0.7784883899     0.1869108425
   44      H      -7.0511838286     0.0339990369    -1.2309508556
   45      H      -6.7260063467    -2.8279643849    -0.4106251848
   46      H      -5.9609599234    -2.0495928172    -1.8303971801
   47      H      -4.3126440964    -2.8190003486     0.3196496953
   48      H      -1.9391922076     2.8461216466     1.5634622910
   49      H      -1.2968155099     3.4898552802    -0.0018892911
   50      H       1.0832897016    -2.8375480508     1.7185251479
   51      H       2.6414997151    -3.7467011972     1.6098986533
   52      H       1.8060340511    -3.2311968804     0.1025488987
   53      H       0.7229357286     0.0345289738    -2.5953171375
   54      H       0.1011318381     1.0644779085    -1.2463371857
   55      H       0.3569294913    -2.0406194183    -1.2348048927
   56      H      -0.0657729084    -1.0514206943     0.2354887924
 ----------------------------------------------------------------

    9   -1510.2924529300      3.70E-09 Convergence criterion met
 Total energy in the final basis set = -1510.29245293
 Final energy is   -1510.29245292998
 **  OPTIMIZATION CONVERGED  **

                    Orbital Energies (a.u.)
 --------------------------------------------------------------

 Alpha MOs
 -- Occupied --
-18.942 -18.936 -18.929 -18.925 -18.891 -18.886 -18.885 -18.880
-18.872 -18.872 -10.110 -10.103 -10.097 -10.095 -10.073 -10.065
-10.065 -10.064 -10.060 -10.059 -10.055 -10.043 -10.041 -10.037
-10.035 -10.035 -10.024 -10.022 -10.019 -10.018  -1.021  -1.012
 -1.010  -1.002  -0.973  -0.968  -0.945  -0.940  -0.934  -0.930
 -0.768  -0.762  -0.730  -0.722  -0.712  -0.706  -0.695  -0.665
 -0.649  -0.617  -0.599  -0.583  -0.548  -0.543  -0.540  -0.535
 -0.516  -0.507  -0.488  -0.475  -0.468  -0.458  -0.449  -0.447
 -0.437  -0.433  -0.428  -0.416  -0.411  -0.409  -0.403  -0.399
 -0.394  -0.379  -0.378  -0.366  -0.363  -0.357  -0.356  -0.351
 -0.349  -0.336  -0.335  -0.330  -0.328  -0.326  -0.324  -0.313
 -0.308  -0.308  -0.303  -0.302  -0.295  -0.291  -0.285  -0.278
 -0.269  -0.256  -0.255  -0.244  -0.241  -0.237  -0.232  -0.190
 -0.180  -0.172  -0.166  -0.161  -0.158  -0.155  -0.150  -0.146
 -0.142

          Ground-State Mulliken Net Atomic Charges

     Atom                 Charge (a.u.)
  ----------------------------------------
      1 O                    -0.210424
      2 C                     0.214078
      3 C                    -0.077914
      4 C                    -0.078631
      5 C                     0.214150
      6 O                    -0.173487
      7 C                    -0.059456
      8 C                    -0.049934
      9 O                    -0.165914
     10 C                     0.219005
     11 C                    -0.077649
     12 C                    -0.078131
     13 C                     0.213889
     14 O                    -0.210630
     15 O                    -0.178073
     16 O                    -0.173401
     17 O                    -0.213112
     18 C                    -0.130313
     19 C                     0.026264
     20 C                    -0.144175
     21 C                    -0.143522
     22 C                     0.024561
     23 O                    -0.185428
     24 H                     0.087584
     25 H                     0.085514
     26 H                     0.082100
     27 H                     0.078709
     28 H                     0.074414
     29 H                     0.078811
     30 H                     0.073717
     31 H                     0.091309
     32 O                    -0.213516
     33 C                    -0.153460
     34 C                     0.024302
     35 C                    -0.144076
     36 C                    -0.143881
     37 C                     0.025635
     38 O                    -0.186240
     39 H                     0.084450
     40 H                     0.086301
     41 H                     0.110156
     42 H                     0.091191
     43 H                     0.078182
     44 H                     0.072852
     45 H                     0.077883
     46 H                     0.073237
     47 H                     0.082719
     48 H                     0.097730
     49 H                     0.074724
     50 H                     0.095192
     51 H                     0.085963
     52 H                     0.091825
     53 H                     0.093092
     54 H                     0.095203
     55 H                     0.081506
     56 H                     0.105117
  ----------------------------------------
  Sum of atomic charges =     0.000000

                    Cartesian Multipole Moments
 -----------------------------------------------------------------
    Charge (ESU x 10^10)
                 0.0000
    Dipole Moment (Debye)
         X       1.2570      Y       0.0842      Z      -1.4993
       Tot       1.9584
    Quadrupole Moments (Debye-Ang)
        XX    -144.1031     XY       8.0557     YY    -154.1938
        XZ      20.5788     YZ      -3.1381     ZZ    -168.5956

 Total job time:  94.22s(wall), 4490.87s(cpu)
        *  Thank you very much for using Q-Chem.  Have a nice day.  *
