 Q-Chem 5.0, Q-Chem, Inc., Pleasanton, CA (2017)
 Q-Chem 5.0.1 for Intel X86 EM64T Linux

User input:
--------------------------------------------------------------
$molecule
0  1
O -3.94934 -3.66094 2.70899
C -3.26408 -4.56952 2.26188
C -3.36658 -6.02376 2.66595
C -2.08631 -6.70193 3.18059
C -0.88947 -5.80371 3.40165
O 0.25951 -6.54022 3.34861
C 1.44352 -5.74719 3.4845
C 1.74947 -5.0305 2.17344
O 2.7216 -3.9969 2.39599
C 2.78651 -3.52072 3.66413
C 3.82581 -2.43823 3.83365
C 5.24936 -2.83677 3.41775
C 5.36527 -4.09374 2.57913
O 5.97549 -4.1881 1.524
O -2.38682 -4.29581 1.26046
O 4.97349 -5.24578 3.18905
O 1.75258 -3.23185 4.25869
C 5.12089 -6.50521 2.64503
C 3.60789 -1.19385 2.94835
C 4.28248 0.01397 3.59476
C 5.74371 -0.34417 3.40593
C 5.60931 -1.61261 2.55274
O 4.42312 -1.41096 1.82166
H 3.8096 -2.13205 4.90663
H 5.91446 -2.97781 4.29809
H 2.53609 -0.97904 2.74487
H 4.04544 0.89285 2.95284
H 3.98076 0.23604 4.64093
H 6.2336 0.47556 2.83511
H 6.30724 -0.54955 4.34189
H 6.53287 -1.76963 1.9537
O -0.9623 -4.68941 3.90938
C -2.15741 -3.03586 0.74954
C -4.30707 -6.23393 3.86788
C -4.78213 -7.68711 3.92027
C -3.5274 -8.37464 4.41209
C -2.59124 -7.17359 4.56051
O -3.44906 -6.13833 4.97589
H -3.76311 -6.55406 1.7715
H -1.77334 -7.57592 2.56441
H -1.77741 -2.36366 1.54842
H -5.18533 -5.5522 3.86464
H -5.56328 -7.7728 4.70899
H -5.18497 -8.06404 2.95552
H -3.73241 -8.80033 5.42003
H -3.12346 -9.16663 3.74521
H -1.75925 -7.42413 5.25595
H -3.09385 -2.61966 0.32048
H -1.39454 -3.1027 -0.05299
H 4.71705 -7.2574 3.353
H 6.1959 -6.7231 2.46902
H 4.56169 -6.57652 1.68796
H 2.08788 -5.74582 1.39427
H 0.83678 -4.52312 1.79471
H 2.30384 -6.42935 3.64764
H 1.33135 -5.30213 4.48581
$end

$opt
CONSTRAINT
tors           1           2           3           4    -124.186
tors           3           4           5           6    -156.819
tors           4           5           6           7    +177.129
tors           5           6           7           8     -77.498
tors           6           7           8           9    +165.843
tors           7           8           9          10     -23.948
tors           8           9          10          11    +179.991
tors           9          10          11          12     -56.230
tors          11          12          13          14    +129.226
ENDCONSTRAINT
$end

$rem
JOBTYPE                   OPT
METHOD                    B3LYP
DFT_D                     d3_op
BASIS                     STO-3G
GEOM_OPT_MAX_CYCLES       100
GEOM_OPT_TOL_GRADIENT     300
GEOM_OPT_TOL_DISPLACEMENT 1200
GEOM_OPT_TOL_ENERGY       100
SYMMETRY                  False
THRESH                    12
SCF_CONVERGENCE           8
MAX_SUB_FILE_NUM          128
MEM_STATIC                400
MEM_TOTAL                 4000
$end
--------------------------------------------------------------

   16   -1510.1000122185      3.53E-09 Convergence criterion met
 Total energy in the final basis set = -1510.10001222
   14   -1510.1772374547      4.62E-09 Convergence criterion met
 Total energy in the final basis set = -1510.17723745
   14   -1510.2215526499      8.56E-09 Convergence criterion met
 Total energy in the final basis set = -1510.22155265
   15   -1510.2491482010      2.95E-09 Convergence criterion met
 Total energy in the final basis set = -1510.24914820
   14   -1510.2636901644      4.67E-09 Convergence criterion met
 Total energy in the final basis set = -1510.26369016
   13   -1510.2718632124      9.96E-09 Convergence criterion met
 Total energy in the final basis set = -1510.27186321
   13   -1510.2766154535      7.99E-09 Convergence criterion met
 Total energy in the final basis set = -1510.27661545
   13   -1510.2792576551      4.19E-09 Convergence criterion met
   10   -1510.2818354249      6.61E-09 Convergence criterion met
 Total energy in the final basis set = -1510.28183542
   10   -1510.2818440415      8.07E-09 Convergence criterion met
 Total energy in the final basis set = -1510.28184404
    9   -1510.2818473853      8.79E-09 Convergence criterion met
 Total energy in the final basis set = -1510.28184739
    9   -1510.2818498084      4.58E-09 Convergence criterion met
 Total energy in the final basis set = -1510.28184981
    9   -1510.2818513861      3.82E-09 Convergence criterion met
 Total energy in the final basis set = -1510.28185139
    9   -1510.2818524754      3.41E-09 Convergence criterion met
 Total energy in the final basis set = -1510.28185248

             Standard Nuclear Orientation (Angstroms)
    I     Atom           X                Y                Z
 ----------------------------------------------------------------
    1      O       3.7395665905    -2.6739792981     0.3655248802
    2      C       3.5875506691    -1.7244330846    -0.4304669743
    3      C       4.5303753532    -0.4805658638    -0.6263322409
    4      C       3.8062553715     0.9161646726    -0.4505836392
    5      C       2.3530581879     0.7491268074     0.1003665367
    6      O       1.5777016624     1.8977735527    -0.2566854461
    7      C       0.1761454037     1.7249191233     0.1988657483
    8      C      -0.5827149354     0.7521063545    -0.7890385949
    9      O      -1.8902776468     0.1807144660    -0.3674868094
   10      C      -2.1555766970     0.0922955048     1.0324246246
   11      C      -3.5858594245    -0.5391310328     1.1750427622
   12      C      -4.7282834939     0.2522053751     0.4118615639
   13      C      -4.2249352086     1.5283443947    -0.3512869986
   14      O      -4.4409481791     1.8360502187    -1.5417533430
   15      O       2.5710426630    -1.6720319814    -1.4464739652
   16      O      -3.4966841509     2.3517301086     0.5724007465
   17      O      -1.3877141250     0.3723760489     1.9811024072
   18      C      -3.0336194836     3.5813648695    -0.1095270327
   19      C      -3.6771767866    -1.9517114890     0.4471829434
   20      C      -4.9764440551    -2.6913321408     0.9604238466
   21      C      -6.1007441838    -1.9053644706     0.1875930790
   22      C      -5.2392322229    -0.8487906171    -0.6068924543
   23      O      -4.0063777939    -1.5958774797    -0.9503867442
   24      H      -3.8026857362    -0.6217657615     2.2541987634
   25      H      -5.5250708298     0.5615374878     1.1135822295
   26      H      -2.7469652502    -2.5509657406     0.4883441555
   27      H      -4.9532488283    -3.7537694345     0.6702068982
   28      H      -5.0857212748    -2.6266546936     2.0548506505
   29      H      -6.6442957463    -2.5616920490    -0.5103903867
   30      H      -6.8285980074    -1.4275701462     0.8627558849
   31      H      -5.7039151669    -0.4295083833    -1.5206289287
   32      O       1.9179333377    -0.2136844634     0.7723096041
   33      C       1.6196236562    -2.7897944538    -1.2597884510
   34      C       5.6505129146    -0.3955041855     0.4903283266
   35      C       6.8122984896     0.5222736039    -0.0543140099
   36      C       6.1279519269     1.9387632992     0.0101377322
   37      C       4.7324843412     1.5792434904     0.6605495309
   38      O       5.0336455938     0.4366315320     1.5512532140
   39      H       4.9753791499    -0.5534920621    -1.6356810780
   40      H       3.7819209642     1.5071932670    -1.3824989512
   41      H       1.0681815750    -2.6895763284    -0.3020256625
   42      H       5.9537422227    -1.3793559940     0.8982476075
   43      H       7.6877935272     0.4694353665     0.6121918936
   44      H       7.1243655222     0.2439146180    -1.0735925590
   45      H       6.6885659835     2.6323639586     0.6565829607
   46      H       6.0109807777     2.3986505961    -0.9842436184
   47      H       4.2508647497     2.4003049359     1.2267421482
   48      H       2.1323886530    -3.7731412428    -1.2694094142
   49      H       0.9072882715    -2.7338881115    -2.1036536168
   50      H      -2.4562312212     4.1503233047     0.6421999240
   51      H      -3.8860120090     4.1962905004    -0.4638922297
   52      H      -2.3872450425     3.3471823971    -0.9796139228
   53      H      -0.7923294538     1.2659977843    -1.7504721625
   54      H       0.0959813881    -0.1040437195    -1.0031716809
   55      H      -0.2751389205     2.7346877561     0.1810720692
   56      H       0.0970369986     1.2939035959     1.2208897398
 ----------------------------------------------------------------

    9   -1510.2818534285      2.45E-09 Convergence criterion met
 Total energy in the final basis set = -1510.28185343
 Final energy is   -1510.28185342848
 **  OPTIMIZATION CONVERGED  **

                    Orbital Energies (a.u.)
 --------------------------------------------------------------

 Alpha MOs
 -- Occupied --
-18.938 -18.938 -18.937 -18.921 -18.888 -18.886 -18.881 -18.879
-18.879 -18.866 -10.107 -10.102 -10.101 -10.092 -10.072 -10.069
-10.062 -10.061 -10.060 -10.058 -10.056 -10.055 -10.040 -10.038
-10.037 -10.033 -10.021 -10.020 -10.020 -10.018  -1.018  -1.015
 -1.007  -0.999  -0.970  -0.969  -0.943  -0.939  -0.938  -0.927
 -0.765  -0.762  -0.729  -0.722  -0.712  -0.705  -0.694  -0.667
 -0.656  -0.621  -0.598  -0.586  -0.547  -0.544  -0.538  -0.536
 -0.513  -0.509  -0.482  -0.477  -0.466  -0.459  -0.453  -0.444
 -0.437  -0.431  -0.429  -0.416  -0.410  -0.406  -0.404  -0.392
 -0.391  -0.379  -0.373  -0.371  -0.364  -0.356  -0.353  -0.351
 -0.343  -0.341  -0.338  -0.333  -0.332  -0.327  -0.325  -0.311
 -0.310  -0.306  -0.302  -0.299  -0.298  -0.291  -0.281  -0.278
 -0.273  -0.262  -0.256  -0.247  -0.238  -0.235  -0.232  -0.188
 -0.181  -0.174  -0.167  -0.158  -0.156  -0.148  -0.145  -0.144
 -0.142

          Ground-State Mulliken Net Atomic Charges

     Atom                 Charge (a.u.)
  ----------------------------------------
      1 O                    -0.212419
      2 C                     0.216201
      3 C                    -0.080144
      4 C                    -0.078268
      5 C                     0.213638
      6 O                    -0.171994
      7 C                    -0.066949
      8 C                    -0.053417
      9 O                    -0.168776
     10 C                     0.219467
     11 C                    -0.078032
     12 C                    -0.078290
     13 C                     0.215141
     14 O                    -0.210852
     15 O                    -0.179823
     16 O                    -0.173727
     17 O                    -0.209166
     18 C                    -0.129109
     19 C                     0.026220
     20 C                    -0.143836
     21 C                    -0.144089
     22 C                     0.024603
     23 O                    -0.186193
     24 H                     0.085874
     25 H                     0.084998
     26 H                     0.083030
     27 H                     0.078252
     28 H                     0.074281
     29 H                     0.078339
     30 H                     0.073190
     31 H                     0.090353
     32 O                    -0.208275
     33 C                    -0.130376
     34 C                     0.024322
     35 C                    -0.143414
     36 C                    -0.144150
     37 C                     0.025395
     38 O                    -0.188000
     39 H                     0.083318
     40 H                     0.086607
     41 H                     0.090596
     42 H                     0.091367
     43 H                     0.078202
     44 H                     0.073081
     45 H                     0.078135
     46 H                     0.073408
     47 H                     0.083369
     48 H                     0.088601
     49 H                     0.087397
     50 H                     0.090707
     51 H                     0.089721
     52 H                     0.087887
     53 H                     0.087666
     54 H                     0.090198
     55 H                     0.083160
     56 H                     0.122574
  ----------------------------------------
  Sum of atomic charges =     0.000000

                    Cartesian Multipole Moments
 -----------------------------------------------------------------
    Charge (ESU x 10^10)
                 0.0000
    Dipole Moment (Debye)
         X      -0.9909      Y       1.6176      Z      -1.2305
       Tot       2.2611
    Quadrupole Moments (Debye-Ang)
        XX    -142.9719     XY       8.4381     YY    -152.8852
        XZ     -17.1302     YZ       1.5891     ZZ    -168.4950

 Total job time:  64.58s(wall), 3068.97s(cpu)
        *  Thank you very much for using Q-Chem.  Have a nice day.  *
