 Q-Chem 5.0, Q-Chem, Inc., Pleasanton, CA (2017)
 Q-Chem 5.0.1 for Intel X86 EM64T Linux

User input:
--------------------------------------------------------------
$molecule
0  1
O 3.6823813968 -2.698486552 0.2044022367
C 3.547500187 -1.702443233 -0.5361567379
C 4.5099494953 -0.4637133338 -0.650626218
C 3.8084087453 0.9323636602 -0.3978275597
C 2.3469171528 0.7578763003 0.1287919774
O 1.5880805125 1.9293869742 -0.1860844523
C 0.1783221985 1.7563215793 0.2442330684
C -0.5707755973 0.768023609 -0.73578461
O -1.8846368287 0.209449371 -0.3164246544
C -2.1664594884 0.1475512716 1.0814912371
C -3.6004531237 -0.47606381 1.2178829875
C -4.7130579681 0.2614427061 0.3628573
C -4.1881988543 1.5075947399 -0.4342000109
O -4.3476333318 1.7571766894 -1.6470491933
O 2.5331430661 -1.5749380694 -1.546779979
O -3.5273631896 2.3877227237 0.488203752
O -1.4093728141 0.4427084266 2.0342264014
C -3.0457689795 3.5918333556 -0.2250054457
C -3.6595054866 -1.9307934908 0.573180119
C -4.9823052639 -2.6434721775 1.0634623752
C -6.067120965 -1.9100781493 0.1887770545
C -5.16754516 -0.8960455861 -0.6187006792
O -3.9190507058 -1.6577027108 -0.8572924857
H -3.8544290369 -0.4922340766 2.2919053066
H -5.5447366102 0.5936793768 1.0115464155
H -2.7329357933 -2.5252404389 0.6942193277
H -4.9424576263 -3.7211967426 0.838860124
H -5.1474633937 -2.5146181773 2.1452417019
H -6.5707262531 -2.6090347078 -0.4976120803
H -6.8303149065 -1.39924793 0.7973098917
H -5.5856231797 -0.5301071304 -1.5767371382
O 1.8951871895 -0.2280118533 0.7549011661
C 1.5735048226 -2.6959130961 -1.4361953531
C 5.6153209233 -0.4690628796 0.484701103
C 6.8040172063 0.4546416026 0.0126303425
C 6.1447792754 1.8781572637 0.1472678998
C 4.7342337748 1.5102015426 0.7600454688
O 5.0003393942 0.3113346856 1.5849090935
H 4.9679760372 -0.4840161009 -1.6565530594
H 3.8033737391 1.5793689655 -1.2920959378
H 1.0458101537 -2.6777020095 -0.4603154146
H 5.8920409535 -1.4820601605 0.836408598
H 7.6669367307 0.3463051523 0.6888037009
H 7.1281683948 0.2285055692 -1.0157795327
H 6.7092914271 2.5244022983 0.8379328878
H 6.04954997 2.3941293285 -0.8216002414
H 4.261999473 2.3070585821 1.3670737468
H 2.074623697 -3.6791549092 -1.5471109568
H 0.8424960479 -2.5582418729 -2.254325978
H -2.5144705101 4.2025184332 0.5279879633
H -3.8863447414 4.1776855906 -0.6499351268
H -2.3527743435 3.3284882646 -1.0497268437
H -0.7691042092 1.2650428847 -1.7084247656
H 0.1057993894 -0.0945908976 -0.9263157011
H -0.273548751 2.765342445 0.2060358436
H 0.0827110329 1.3423638808 1.2721732451
$end

$rem
JOBTYPE                   OPT
METHOD                    B3LYP
DFT_D                     d3_op
BASIS                     STO-3G
GEOM_OPT_MAX_CYCLES       100
GEOM_OPT_TOL_GRADIENT     300
GEOM_OPT_TOL_DISPLACEMENT 1200
GEOM_OPT_TOL_ENERGY       100
SYMMETRY                  False
THRESH                    12
SCF_CONVERGENCE           8
MAX_SUB_FILE_NUM          128
MEM_STATIC                400
MEM_TOTAL                 4000
$end
--------------------------------------------------------------

   16   -1510.2817990211      5.65E-09 Convergence criterion met
 Total energy in the final basis set = -1510.28179902
   14   -1510.2824848962      2.80E-09 Convergence criterion met
 Total energy in the final basis set = -1510.28248490
   13   -1510.2832733154      8.30E-09 Convergence criterion met
 Total energy in the final basis set = -1510.28327332
   13   -1510.2841387939      4.14E-09 Convergence criterion met
 Total energy in the final basis set = -1510.28413879
   13   -1510.2853056399      4.18E-09 Convergence criterion met
 Total energy in the final basis set = -1510.28530564
   13   -1510.2862843007      5.07E-09 Convergence criterion met
 Total energy in the final basis set = -1510.28628430
   13   -1510.2868923569      5.23E-09 Convergence criterion met
 Total energy in the final basis set = -1510.28689236
   13   -1510.2872674931      3.88E-09 Convergence criterion met
    9   -1510.2988786336      4.96E-09 Convergence criterion met
 Total energy in the final basis set = -1510.29887863
    9   -1510.2988786851      7.24E-09 Convergence criterion met
 Total energy in the final basis set = -1510.29887869
   10   -1510.2988729703      4.27E-09 Convergence criterion met
 Total energy in the final basis set = -1510.29887297
   10   -1510.2988715479      6.12E-09 Convergence criterion met
 Total energy in the final basis set = -1510.29887155
    9   -1510.2988698894      9.53E-09 Convergence criterion met
 Total energy in the final basis set = -1510.29886989
   10   -1510.2988674210      7.58E-09 Convergence criterion met
 Total energy in the final basis set = -1510.29886742

             Standard Nuclear Orientation (Angstroms)
    I     Atom           X                Y                Z
 ----------------------------------------------------------------
    1      O       3.2180247905     0.6024553673    -2.3121276068
    2      C       3.1032812638     0.6876132132    -1.0707820875
    3      C       4.1321851634     0.1445743670    -0.0090096598
    4      C       3.5629795153    -0.9101952799     1.0339377512
    5      C       2.0368552057    -1.1663515493     0.8477176783
    6      O       1.3829801663    -0.9764394968     2.1061528576
    7      C      -0.0876801544    -0.9084984960     1.9165258075
    8      C      -0.4553021806     0.5546790887     1.4850929534
    9      O      -1.8606607859     0.5285451540     1.0163181511
   10      C      -2.1809904661     1.6813708861     0.2384813629
   11      C      -3.6831766165     1.5645852692    -0.1820426131
   12      C      -4.0538479042     0.1430866347    -0.7798363974
   13      C      -2.8249739577    -0.8220406672    -0.9604387042
   14      O      -2.6933546050    -1.9782447792    -0.5054338507
   15      O       2.0286595476     1.3775522765    -0.4154938647
   16      O      -1.8906240078    -0.1730595677    -1.8267562649
   17      O      -1.3889204307     2.6165044924    -0.0204613281
   18      C      -0.7658378278    -1.0832853416    -2.1545030538
   19      C      -4.6358037345     1.5919898319     1.0936002355
   20      C      -6.1279595815     1.7750515358     0.6038070039
   21      C      -6.4589198013     0.3285634566     0.0767094985
   22      C      -5.0755894023    -0.3956481199     0.3040996742
   23      O      -4.5892813300     0.1945422861     1.5739038296
   24      H      -3.9060897767     2.3841322958    -0.8869668310
   25      H      -4.5398414219     0.2585322385    -1.7662453671
   26      H      -4.3140771924     2.2889947706     1.8918224449
   27      H      -6.7771621688     2.0570121647     1.4480315081
   28      H      -6.2155092742     2.5446090403    -0.1798088741
   29      H      -7.2479764770    -0.1487958712     0.6792779934
   30      H      -6.7667900575     0.3193866897    -0.9811183021
   31      H      -5.1081114402    -1.5000955809     0.3789188590
   32      O       1.4586570682    -1.4811505056    -0.2173967453
   33      C       1.1661126282     2.0365587359    -1.4316968938
   34      C       5.2404150071    -0.7230575119    -0.7366595982
   35      C       6.4644636324    -0.9085675579     0.2418584698
   36      C       5.8893652292    -1.9705372030     1.2515273496
   37      C       4.4385535307    -2.1897958915     0.6673253864
   38      O       4.6274989529    -2.0714237572    -0.7937229524
   39      H       4.5659530802     1.0126002823     0.5212095943
   40      H       3.7356869971    -0.5836995980     2.0740106320
   41      H       0.2574121390     2.3862823540    -0.8925587923
   42      H       5.4806203502    -0.3686435474    -1.7577948207
   43      H       7.3378218081    -1.3014476317    -0.3024062447
   44      H       6.7497234994     0.0352560361     0.7335631710
   45      H       6.4614091454    -2.9114057815     1.2186432921
   46      H       5.8675641583    -1.6047551399     2.2905079047
   47      H       3.9659437279    -3.1581346834     0.9224984418
   48      H       0.8781584386     1.3266926617    -2.2308830103
   49      H       1.6928519171     2.8945310759    -1.8953635424
   50      H      -0.0360498154    -1.1760452684    -1.3164741511
   51      H      -0.2613341986    -0.6368952282    -3.0309838093
   52      H      -1.1359230534    -2.0936971999    -2.4179964208
   53      H      -0.3484317854     1.2537653814     2.3422862871
   54      H       0.2472529392     0.8772745617     0.6850571309
   55      H      -0.5476487958    -1.1718482940     2.8887942028
   56      H      -0.4283534078    -1.6217019631     1.1348560573
 ----------------------------------------------------------------

    9   -1510.2988670807      3.25E-09 Convergence criterion met
 Total energy in the final basis set = -1510.29886708
 Final energy is   -1510.29886708074
 **  OPTIMIZATION CONVERGED  **

                    Orbital Energies (a.u.)
 --------------------------------------------------------------

 Alpha MOs
 -- Occupied --
-18.943 -18.942 -18.929 -18.922 -18.889 -18.888 -18.887 -18.884
-18.874 -18.866 -10.111 -10.109 -10.097 -10.094 -10.075 -10.071
-10.063 -10.062 -10.058 -10.057 -10.042 -10.042 -10.040 -10.039
-10.039 -10.035 -10.022 -10.021 -10.021 -10.020  -1.023  -1.018
 -1.006  -1.001  -0.972  -0.970  -0.948  -0.943  -0.932  -0.928
 -0.766  -0.764  -0.730  -0.724  -0.712  -0.706  -0.698  -0.653
 -0.649  -0.618  -0.599  -0.582  -0.547  -0.546  -0.538  -0.537
 -0.518  -0.509  -0.486  -0.477  -0.462  -0.461  -0.454  -0.447
 -0.436  -0.432  -0.430  -0.414  -0.409  -0.407  -0.401  -0.399
 -0.394  -0.379  -0.372  -0.368  -0.360  -0.359  -0.356  -0.352
 -0.341  -0.336  -0.334  -0.332  -0.330  -0.328  -0.325  -0.312
 -0.310  -0.306  -0.305  -0.299  -0.295  -0.289  -0.284  -0.279
 -0.271  -0.258  -0.255  -0.246  -0.243  -0.236  -0.234  -0.187
 -0.181  -0.174  -0.171  -0.161  -0.160  -0.151  -0.146  -0.146
 -0.144

          Ground-State Mulliken Net Atomic Charges

     Atom                 Charge (a.u.)
  ----------------------------------------
      1 O                    -0.208408
      2 C                     0.211094
      3 C                    -0.078540
      4 C                    -0.079764
      5 C                     0.217881
      6 O                    -0.168533
      7 C                    -0.050417
      8 C                    -0.054838
      9 O                    -0.166352
     10 C                     0.220638
     11 C                    -0.078060
     12 C                    -0.078373
     13 C                     0.213350
     14 O                    -0.217289
     15 O                    -0.180336
     16 O                    -0.180132
     17 O                    -0.215934
     18 C                    -0.146240
     19 C                     0.025864
     20 C                    -0.144023
     21 C                    -0.143595
     22 C                     0.024412
     23 O                    -0.186783
     24 H                     0.086504
     25 H                     0.083892
     26 H                     0.081530
     27 H                     0.078034
     28 H                     0.073968
     29 H                     0.078090
     30 H                     0.073499
     31 H                     0.090877
     32 O                    -0.212656
     33 C                    -0.146225
     34 C                     0.024792
     35 C                    -0.144444
     36 C                    -0.143464
     37 C                     0.026394
     38 O                    -0.185765
     39 H                     0.084836
     40 H                     0.087701
     41 H                     0.110826
     42 H                     0.092159
     43 H                     0.078910
     44 H                     0.073423
     45 H                     0.078891
     46 H                     0.073950
     47 H                     0.084022
     48 H                     0.088527
     49 H                     0.080174
     50 H                     0.108637
     51 H                     0.083447
     52 H                     0.085100
     53 H                     0.085219
     54 H                     0.103741
     55 H                     0.094922
     56 H                     0.104863
  ----------------------------------------
  Sum of atomic charges =     0.000000

                    Cartesian Multipole Moments
 -----------------------------------------------------------------
    Charge (ESU x 10^10)
                 0.0000
    Dipole Moment (Debye)
         X      -0.1476      Y       1.5244      Z       1.6658
       Tot       2.2629
    Quadrupole Moments (Debye-Ang)
        XX    -138.0890     XY      -4.3185     YY    -163.6449
        XZ      12.9975     YZ      -1.5890     ZZ    -162.2593

 Total job time:  215.80s(wall), 10300.02s(cpu)
        *  Thank you very much for using Q-Chem.  Have a nice day.  *
