 Q-Chem 5.0, Q-Chem, Inc., Pleasanton, CA (2017)
 Q-Chem 5.0.1 for Intel X86 EM64T Linux

User input:
--------------------------------------------------------------
$molecule
0  1
O -3.94934 -3.66094 2.70899
C -3.26408 -4.56952 2.26188
C -3.36658 -6.02376 2.66595
C -2.08631 -6.70193 3.18059
C -0.88947 -5.80371 3.40165
O 0.26073 -6.53636 3.32628
C 1.44411 -5.74216 3.46085
C 1.68696 -4.9406 2.18622
O 2.66224 -3.91511 2.43131
C 2.78123 -3.52038 3.72328
C 3.82096 -2.44214 3.91568
C 5.208 -2.77109 3.34455
C 5.26449 -3.93465 2.3752
O 5.78437 -3.91101 1.26897
O -2.38611 -4.29565 1.26116
O 4.95086 -5.15093 2.90071
O 1.77445 -3.27689 4.38111
C 5.07841 -6.34866 2.22767
C 3.51713 -1.12162 3.17662
C 4.22932 0.03026 3.88208
C 5.67372 -0.28057 3.54188
C 5.48266 -1.46105 2.58017
O 4.23829 -1.21146 1.97143
H 3.88556 -2.24005 5.01104
H 5.94691 -2.98697 4.14742
H 2.43015 -0.90733 3.08274
H 3.93094 0.96245 3.35037
H 4.01221 0.14482 4.96585
H 6.1071 0.60046 3.0187
H 6.31368 -0.56756 4.40436
H 6.3552 -1.54091 1.89547
O -0.96024 -4.69707 3.92634
C -2.15577 -3.03552 0.75114
C -4.30734 -6.23394 3.86763
C -4.78213 -7.68721 3.9201
C -3.5275 -8.37434 4.4127
C -2.59148 -7.17312 4.56069
O -3.44954 -6.13793 4.97574
H -3.7628 -6.55396 1.77131
H -1.77408 -7.57705 2.56557
H -1.77582 -2.36405 1.55066
H -5.1857 -5.55235 3.86404
H -5.56373 -7.77308 4.70837
H -5.18426 -8.06428 2.95511
H -3.7327 -8.79924 5.42094
H -3.12347 -9.16691 3.74657
H -1.75949 -7.42334 5.25626
H -3.09174 -2.61855 0.3218
H -1.39244 -3.10228 -0.05097
H 4.74744 -7.17499 2.88935
H 6.13974 -6.51916 1.94736
H 4.44588 -6.34472 1.3148
H 1.99861 -5.60439 1.35246
H 0.75972 -4.4176 1.8706
H 2.3175 -6.42147 3.55508
H 1.35293 -5.35259 4.48627
$end

$opt
CONSTRAINT
tors           1           2           3           4    -124.186
tors           3           4           5           6    -155.807
tors           4           5           6           7    +177.129
tors           5           6           7           8     -74.042
tors           6           7           8           9    +165.925
tors           7           8           9          10     -23.948
tors           8           9          10          11    +179.991
tors           9          10          11          12     -53.085
tors          11          12          13          14    +129.226
ENDCONSTRAINT
$end

$rem
JOBTYPE                   OPT
METHOD                    B3LYP
DFT_D                     d3_op
BASIS                     STO-3G
GEOM_OPT_MAX_CYCLES       100
GEOM_OPT_TOL_GRADIENT     300
GEOM_OPT_TOL_DISPLACEMENT 1200
GEOM_OPT_TOL_ENERGY       100
SYMMETRY                  False
THRESH                    12
SCF_CONVERGENCE           8
MAX_SUB_FILE_NUM          128
MEM_STATIC                400
MEM_TOTAL                 4000
$end
--------------------------------------------------------------

   16   -1510.0995867879      3.76E-09 Convergence criterion met
 Total energy in the final basis set = -1510.09958679
   14   -1510.1769510201      6.79E-09 Convergence criterion met
 Total energy in the final basis set = -1510.17695102
   14   -1510.2213681864      8.46E-09 Convergence criterion met
 Total energy in the final basis set = -1510.22136819
   15   -1510.2489835958      3.12E-09 Convergence criterion met
 Total energy in the final basis set = -1510.24898360
   13   -1510.2634560017      9.21E-09 Convergence criterion met
 Total energy in the final basis set = -1510.26345600
   13   -1510.2715580134      9.79E-09 Convergence criterion met
 Total energy in the final basis set = -1510.27155801
   13   -1510.2762774674      9.05E-09 Convergence criterion met
 Total energy in the final basis set = -1510.27627747
   13   -1510.2791069230      4.04E-09 Convergence criterion met
   12   -1510.2817704313      4.99E-09 Convergence criterion met
 Total energy in the final basis set = -1510.28177043
   10   -1510.2818333326      9.78E-09 Convergence criterion met
 Total energy in the final basis set = -1510.28183333
   10   -1510.2818640780      6.91E-09 Convergence criterion met
 Total energy in the final basis set = -1510.28186408
   10   -1510.2818762872      6.31E-09 Convergence criterion met
 Total energy in the final basis set = -1510.28187629
    9   -1510.2818838348      9.35E-09 Convergence criterion met
 Total energy in the final basis set = -1510.28188383
    9   -1510.2818867794      6.51E-09 Convergence criterion met
 Total energy in the final basis set = -1510.28188678

             Standard Nuclear Orientation (Angstroms)
    I     Atom           X                Y                Z
 ----------------------------------------------------------------
    1      O       3.6823813968    -2.6984865520     0.2044022367
    2      C       3.5475001870    -1.7024432330    -0.5361567379
    3      C       4.5099494953    -0.4637133338    -0.6506262180
    4      C       3.8084087453     0.9323636602    -0.3978275597
    5      C       2.3469171528     0.7578763003     0.1287919774
    6      O       1.5880805125     1.9293869742    -0.1860844523
    7      C       0.1783221985     1.7563215793     0.2442330684
    8      C      -0.5707755973     0.7680236090    -0.7357846100
    9      O      -1.8846368287     0.2094493710    -0.3164246544
   10      C      -2.1664594884     0.1475512716     1.0814912371
   11      C      -3.6004531237    -0.4760638100     1.2178829875
   12      C      -4.7130579681     0.2614427061     0.3628573000
   13      C      -4.1881988543     1.5075947399    -0.4342000109
   14      O      -4.3476333318     1.7571766894    -1.6470491933
   15      O       2.5331430661    -1.5749380694    -1.5467799790
   16      O      -3.5273631896     2.3877227237     0.4882037520
   17      O      -1.4093728141     0.4427084266     2.0342264014
   18      C      -3.0457689795     3.5918333556    -0.2250054457
   19      C      -3.6595054866    -1.9307934908     0.5731801190
   20      C      -4.9823052639    -2.6434721775     1.0634623752
   21      C      -6.0671209650    -1.9100781493     0.1887770545
   22      C      -5.1675451600    -0.8960455861    -0.6187006792
   23      O      -3.9190507058    -1.6577027108    -0.8572924857
   24      H      -3.8544290369    -0.4922340766     2.2919053066
   25      H      -5.5447366102     0.5936793768     1.0115464155
   26      H      -2.7329357933    -2.5252404389     0.6942193277
   27      H      -4.9424576263    -3.7211967426     0.8388601240
   28      H      -5.1474633937    -2.5146181773     2.1452417019
   29      H      -6.5707262531    -2.6090347078    -0.4976120803
   30      H      -6.8303149065    -1.3992479300     0.7973098917
   31      H      -5.5856231797    -0.5301071304    -1.5767371382
   32      O       1.8951871895    -0.2280118533     0.7549011661
   33      C       1.5735048226    -2.6959130961    -1.4361953531
   34      C       5.6153209233    -0.4690628796     0.4847011030
   35      C       6.8040172063     0.4546416026     0.0126303425
   36      C       6.1447792754     1.8781572637     0.1472678998
   37      C       4.7342337748     1.5102015426     0.7600454688
   38      O       5.0003393942     0.3113346856     1.5849090935
   39      H       4.9679760372    -0.4840161009    -1.6565530594
   40      H       3.8033737391     1.5793689655    -1.2920959378
   41      H       1.0458101537    -2.6777020095    -0.4603154146
   42      H       5.8920409535    -1.4820601605     0.8364085980
   43      H       7.6669367307     0.3463051523     0.6888037009
   44      H       7.1281683948     0.2285055692    -1.0157795327
   45      H       6.7092914271     2.5244022983     0.8379328878
   46      H       6.0495499700     2.3941293285    -0.8216002414
   47      H       4.2619994730     2.3070585821     1.3670737468
   48      H       2.0746236970    -3.6791549092    -1.5471109568
   49      H       0.8424960479    -2.5582418729    -2.2543259780
   50      H      -2.5144705101     4.2025184332     0.5279879633
   51      H      -3.8863447414     4.1776855906    -0.6499351268
   52      H      -2.3527743435     3.3284882646    -1.0497268437
   53      H      -0.7691042092     1.2650428847    -1.7084247656
   54      H       0.1057993894    -0.0945908976    -0.9263157011
   55      H      -0.2735487510     2.7653424450     0.2060358436
   56      H       0.0827110329     1.3423638808     1.2721732451
 ----------------------------------------------------------------

    9   -1510.2818881290      3.56E-09 Convergence criterion met
 Total energy in the final basis set = -1510.28188813
 Final energy is   -1510.28188812897
 **  OPTIMIZATION CONVERGED  **

                    Orbital Energies (a.u.)
 --------------------------------------------------------------

 Alpha MOs
 -- Occupied --
-18.939 -18.938 -18.936 -18.922 -18.888 -18.886 -18.882 -18.878
-18.878 -18.866 -10.108 -10.102 -10.101 -10.092 -10.072 -10.068
-10.062 -10.061 -10.060 -10.058 -10.056 -10.055 -10.039 -10.038
-10.038 -10.033 -10.021 -10.020 -10.020 -10.018  -1.018  -1.015
 -1.007  -1.000  -0.970  -0.969  -0.943  -0.939  -0.938  -0.927
 -0.765  -0.762  -0.729  -0.722  -0.712  -0.705  -0.694  -0.666
 -0.656  -0.621  -0.598  -0.586  -0.547  -0.544  -0.538  -0.536
 -0.513  -0.509  -0.483  -0.476  -0.465  -0.459  -0.453  -0.444
 -0.438  -0.431  -0.429  -0.415  -0.410  -0.406  -0.404  -0.392
 -0.390  -0.379  -0.373  -0.370  -0.364  -0.356  -0.353  -0.350
 -0.343  -0.341  -0.338  -0.332  -0.332  -0.327  -0.325  -0.311
 -0.310  -0.306  -0.302  -0.299  -0.297  -0.290  -0.281  -0.279
 -0.273  -0.262  -0.256  -0.247  -0.237  -0.235  -0.232  -0.189
 -0.180  -0.174  -0.168  -0.157  -0.155  -0.147  -0.145  -0.144
 -0.142

          Ground-State Mulliken Net Atomic Charges

     Atom                 Charge (a.u.)
  ----------------------------------------
      1 O                    -0.212342
      2 C                     0.215954
      3 C                    -0.080176
      4 C                    -0.078334
      5 C                     0.213649
      6 O                    -0.171656
      7 C                    -0.066888
      8 C                    -0.053883
      9 O                    -0.168220
     10 C                     0.219849
     11 C                    -0.077853
     12 C                    -0.078366
     13 C                     0.215537
     14 O                    -0.211633
     15 O                    -0.179572
     16 O                    -0.174519
     17 O                    -0.209177
     18 C                    -0.129157
     19 C                     0.026083
     20 C                    -0.143863
     21 C                    -0.144016
     22 C                     0.024657
     23 O                    -0.186291
     24 H                     0.086082
     25 H                     0.084772
     26 H                     0.083171
     27 H                     0.078357
     28 H                     0.074275
     29 H                     0.078342
     30 H                     0.073179
     31 H                     0.090294
     32 O                    -0.208930
     33 C                    -0.130215
     34 C                     0.024435
     35 C                    -0.143420
     36 C                    -0.144173
     37 C                     0.025511
     38 O                    -0.187992
     39 H                     0.083352
     40 H                     0.086578
     41 H                     0.091148
     42 H                     0.091508
     43 H                     0.078199
     44 H                     0.073016
     45 H                     0.078105
     46 H                     0.073388
     47 H                     0.083393
     48 H                     0.088142
     49 H                     0.088025
     50 H                     0.090423
     51 H                     0.089420
     52 H                     0.087557
     53 H                     0.087551
     54 H                     0.091875
     55 H                     0.083321
     56 H                     0.121524
  ----------------------------------------
  Sum of atomic charges =     0.000000

                    Cartesian Multipole Moments
 -----------------------------------------------------------------
    Charge (ESU x 10^10)
                 0.0000
    Dipole Moment (Debye)
         X      -0.9837      Y       1.7409      Z      -1.1910
       Tot       2.3274
    Quadrupole Moments (Debye-Ang)
        XX    -142.0115     XY       8.4332     YY    -153.5560
        XZ     -16.1704     YZ       1.4160     ZZ    -168.0888

 Total job time:  56.41s(wall), 2683.56s(cpu)
        *  Thank you very much for using Q-Chem.  Have a nice day.  *
