 Q-Chem 5.0, Q-Chem, Inc., Pleasanton, CA (2017)
 Q-Chem 5.0.1 for Intel X86 EM64T Linux

User input:
--------------------------------------------------------------
$molecule
0  1
O -2.4986598652 -2.6714215466 -1.920181377
C -2.3144328906 -1.6191027488 -1.2648969677
C -3.376209702 -1.2322606929 -0.1168136737
C -3.5744020809 0.212620158 0.5199532299
C -2.4544414714 1.2905659591 0.8675329177
O -1.4876234541 1.0239183395 1.9004649246
C -1.153048677 -0.3890588025 2.1406791136
C -0.0097779607 -0.8552508911 1.1351210268
O 0.141871576 0.2406563651 0.165256181
C 1.4522624774 0.5811724484 -0.3102370325
C 2.6100499728 -0.5075629919 -0.3884212962
C 3.9616118552 0.096001426 -0.9409504371
C 4.4737456548 1.4250922305 -0.2433644323
O 5.6516106673 1.8440378545 -0.3054311221
O -1.2488637236 -0.7364506096 -1.6365591965
O 3.5022233679 1.9650015739 0.65168026
O 1.5252469004 1.6711570041 -0.9195336507
C 4.0760517565 3.1140023238 1.3878984025
C 3.1914570468 -1.4361441301 0.7961941454
C 3.4556023402 -2.8374789469 0.1213513391
C 4.6248931774 -2.4503285188 -0.8631848575
C 4.9758609279 -0.9867197475 -0.3810035791
O 4.5681782926 -0.9601705891 1.0498370211
H 2.2211555574 -1.1998625324 -1.1613009195
H 3.9636645206 0.2062167344 -2.0402503309
H 2.6377858652 -1.4620949448 1.7513476207
H 3.793667528 -3.5663362596 0.875997071
H 2.5706906027 -3.2419550755 -0.3957533971
H 5.4939728363 -3.1168393798 -0.7487213761
H 4.3073104234 -2.4652351776 -1.9183590504
H 6.0374435896 -0.6900045388 -0.4857778236
O -2.4940986919 2.4592093904 0.4247913544
C -1.8139790227 0.5474449512 -2.1398634503
C -4.7529259184 -1.2827603337 -0.9335111852
C -6.0195131151 -1.1808789356 0.0043518331
C -6.1002287876 0.3694715467 0.2689506524
C -4.739554039 0.8266161576 -0.3712283059
O -4.7035210587 0.0356514944 -1.6260457135
H -3.3259304467 -2.0109424316 0.6654870539
H -4.0116026571 0.0058964749 1.5176585848
H -1.4877819824 0.6587681516 -3.1936955874
H -4.7800575536 -2.109200554 -1.6704573893
H -6.9149256682 -1.5544817295 -0.5165902815
H -5.886246922 -1.7617165412 0.9315386786
H -6.9490779155 0.824745289 -0.2664976716
H -6.1745761235 0.6233897937 1.3384852726
H -4.6174081444 1.9080644884 -0.5783378794
H -1.4000188994 1.3849606969 -1.5457172374
H -2.9286319862 0.5420782834 -2.0991056227
H 3.2753809562 3.4687050209 2.0626446926
H 4.3718928375 3.9324898554 0.7008123798
H 4.9628686857 2.8137715913 1.9829106884
H 0.9122124311 -1.0442552428 1.7083748098
H -0.3021810915 -1.7916641174 0.610992998
H -2.0337125419 -1.0571379201 2.0759976238
H -0.7684440125 -0.4236034903 3.1802576078
$end

$rem
JOBTYPE                   OPT
METHOD                    B3LYP
DFT_D                     d3_op
BASIS                     STO-3G
GEOM_OPT_MAX_CYCLES       100
GEOM_OPT_TOL_GRADIENT     300
GEOM_OPT_TOL_DISPLACEMENT 1200
GEOM_OPT_TOL_ENERGY       100
SYMMETRY                  False
THRESH                    12
SCF_CONVERGENCE           8
MAX_SUB_FILE_NUM          128
MEM_STATIC                400
MEM_TOTAL                 4000
$end
--------------------------------------------------------------

   16   -1510.1959799762      5.17E-09 Convergence criterion met
 Total energy in the final basis set = -1510.19597998
   13   -1510.2001001052      3.69E-09 Convergence criterion met
 Total energy in the final basis set = -1510.20010011
   14   -1510.2047546536      3.98E-09 Convergence criterion met
 Total energy in the final basis set = -1510.20475465
   13   -1510.2084323899      7.77E-09 Convergence criterion met
 Total energy in the final basis set = -1510.20843239
   13   -1510.2127856134      9.37E-09 Convergence criterion met
 Total energy in the final basis set = -1510.21278561
   14   -1510.2174352825      6.94E-09 Convergence criterion met
 Total energy in the final basis set = -1510.21743528
   14   -1510.2226492790      8.34E-09 Convergence criterion met
 Total energy in the final basis set = -1510.22264928
   15   -1510.2144869313      3.38E-09 Convergence criterion met
   11   -1510.2680646970      7.89E-09 Convergence criterion met
 Total energy in the final basis set = -1510.26806470
   11   -1510.2680762046      7.75E-09 Convergence criterion met
 Total energy in the final basis set = -1510.26807620
   11   -1510.2680647518      5.87E-09 Convergence criterion met
 Total energy in the final basis set = -1510.26806475
   10   -1510.2680851592      8.47E-09 Convergence criterion met
 Total energy in the final basis set = -1510.26808516
   11   -1510.2680923356      4.83E-09 Convergence criterion met
 Total energy in the final basis set = -1510.26809234
   10   -1510.2680951851      8.26E-09 Convergence criterion met
 Total energy in the final basis set = -1510.26809519

             Standard Nuclear Orientation (Angstroms)
    I     Atom           X                Y                Z
 ----------------------------------------------------------------
    1      O      -0.9188264170    -2.0710931145     1.4064614371
    2      C      -1.4391169229    -1.5275604555     0.3956702078
    3      C      -2.9545762514    -1.0550377704     0.4474053108
    4      C      -3.1813805594     0.5205486072     0.3640515807
    5      C      -1.8866376210     1.3574631462    -0.0017005502
    6      O      -0.7817562376     1.3640819384     0.9132087729
    7      C      -1.0888306341     1.0633924495     2.3291939624
    8      C       0.2643963527     0.6211559076     3.0050058238
    9      O       1.3498537804     1.5860185415     2.7459838031
   10      C       2.0070050826     1.4491466499     1.4645741311
   11      C       1.8997679011     0.0843469530     0.6995595517
   12      C       2.5842186408     0.1012225504    -0.7264200170
   13      C       3.4057851683     1.4029983324    -1.0556221885
   14      O       3.0439974372     2.3279119266    -1.8158487418
   15      O      -0.5533770713    -1.2449311700    -0.6778476790
   16      O       4.7092978666     1.3071745878    -0.4644351500
   17      O       2.6973794194     2.4236121972     1.0905554331
   18      C       5.4627553033     2.5513105353    -0.7293262575
   19      C       2.6943238340    -1.1069130812     1.4130718732
   20      C       2.0546468964    -2.4561886925     0.9123273867
   21      C       2.5503658156    -2.4661268895    -0.5807924424
   22      C       3.4931963950    -1.1909937153    -0.6134355114
   23      O       4.0229899527    -1.0968166413     0.7660939674
   24      H       0.8381016447    -0.1763068846     0.5601704602
   25      H       1.8156505315    -0.0043019718    -1.5115648451
   26      H       2.8032292362    -1.0036176267     2.5103756573
   27      H       2.4719493535    -3.3041163958     1.4783983817
   28      H       0.9504596930    -2.4492784318     1.0138550486
   29      H       3.1176589914    -3.3794182226    -0.8206043172
   30      H       1.7127361419    -2.3682736938    -1.2908878135
   31      H       4.3244176107    -1.2348183135    -1.3433420381
   32      O      -1.7365833958     1.9503360759    -1.0914385024
   33      C      -1.1269836891    -0.9486639991    -2.0148329965
   34      C      -3.9455843119    -1.5615597587    -0.6871359947
   35      C      -5.4233635611    -1.4202142703    -0.1562168757
   36      C      -5.6430700094     0.1377525863    -0.2542349093
   37      C      -4.2460305248     0.6121064255    -0.8064601952
   38      O      -3.8668705675    -0.4975066600    -1.7198674679
   39      H      -3.3014024574    -1.4294144903     1.4275270687
   40      H      -3.6150860384     0.8990712231     1.3060070801
   41      H      -1.0200729749    -1.8581949228    -2.6403610209
   42      H      -3.6887037651    -2.5455620830    -1.1248919718
   43      H      -6.1179030280    -1.9667643864    -0.8138042735
   44      H      -5.5340257816    -1.8029178741     0.8709103992
   45      H      -6.4430172064     0.3863936877    -0.9695085414
   46      H      -5.8814691174     0.5979495026     0.7177200746
   47      H      -4.2312012954     1.5745567726    -1.3538789294
   48      H      -0.5033490829    -0.1438546647    -2.4476233222
   49      H      -2.2021534780    -0.6332759743    -1.9878571095
   50      H       6.4694020008     2.3979488659    -0.2987701754
   51      H       4.9792614693     3.4230533548    -0.2424202450
   52      H       5.5496816339     2.7574695646    -1.8160689413
   53      H       0.1180976945     0.6230928238     4.1051855913
   54      H       0.5051696786    -0.4140982153     2.6899342942
   55      H      -1.8234329696     0.2429232249     2.4540552432
   56      H      -1.4836469135     1.9785711735     2.8229857500
 ----------------------------------------------------------------

   10   -1510.2680946222      4.85E-09 Convergence criterion met
 Total energy in the final basis set = -1510.26809462
 Final energy is   -1510.26809462222
 **  OPTIMIZATION CONVERGED  **

                    Orbital Energies (a.u.)
 --------------------------------------------------------------

 Alpha MOs
 -- Occupied --
-18.954 -18.950 -18.937 -18.926 -18.903 -18.898 -18.894 -18.873
-18.871 -18.839 -10.125 -10.121 -10.093 -10.093 -10.090 -10.089
-10.081 -10.072 -10.066 -10.064 -10.050 -10.048 -10.046 -10.043
-10.042 -10.038 -10.016 -10.015 -10.000  -9.990  -1.031  -1.022
 -1.009  -0.999  -0.980  -0.957  -0.953  -0.953  -0.930  -0.905
 -0.792  -0.747  -0.743  -0.733  -0.723  -0.701  -0.688  -0.665
 -0.636  -0.627  -0.607  -0.581  -0.580  -0.566  -0.538  -0.528
 -0.521  -0.508  -0.501  -0.487  -0.475  -0.469  -0.464  -0.451
 -0.440  -0.431  -0.429  -0.422  -0.413  -0.408  -0.399  -0.398
 -0.393  -0.388  -0.385  -0.380  -0.373  -0.372  -0.362  -0.350
 -0.342  -0.341  -0.337  -0.331  -0.326  -0.322  -0.322  -0.315
 -0.313  -0.312  -0.309  -0.304  -0.293  -0.288  -0.280  -0.275
 -0.264  -0.259  -0.256  -0.253  -0.238  -0.225  -0.218  -0.194
 -0.189  -0.178  -0.173  -0.168  -0.162  -0.146  -0.141  -0.126
 -0.121

          Ground-State Mulliken Net Atomic Charges

     Atom                 Charge (a.u.)
  ----------------------------------------
      1 O                    -0.209409
      2 C                     0.206028
      3 C                    -0.087818
      4 C                    -0.089271
      5 C                     0.209003
      6 O                    -0.171646
      7 C                    -0.051010
      8 C                    -0.047851
      9 O                    -0.171776
     10 C                     0.218414
     11 C                    -0.092168
     12 C                    -0.078305
     13 C                     0.213292
     14 O                    -0.224308
     15 O                    -0.169046
     16 O                    -0.169222
     17 O                    -0.193410
     18 C                    -0.127272
     19 C                     0.020271
     20 C                    -0.156797
     21 C                    -0.145859
     22 C                     0.025977
     23 O                    -0.187777
     24 H                     0.096185
     25 H                     0.080887
     26 H                     0.075317
     27 H                     0.067813
     28 H                     0.091293
     29 H                     0.070975
     30 H                     0.072838
     31 H                     0.081241
     32 O                    -0.189343
     33 C                    -0.157396
     34 C                     0.024390
     35 C                    -0.142087
     36 C                    -0.142788
     37 C                     0.027139
     38 O                    -0.179900
     39 H                     0.089701
     40 H                     0.085332
     41 H                     0.077997
     42 H                     0.091240
     43 H                     0.085273
     44 H                     0.079342
     45 H                     0.085456
     46 H                     0.078460
     47 H                     0.101070
     48 H                     0.092633
     49 H                     0.119143
     50 H                     0.084700
     51 H                     0.091334
     52 H                     0.083214
     53 H                     0.091369
     54 H                     0.095999
     55 H                     0.084328
     56 H                     0.086803
  ----------------------------------------
  Sum of atomic charges =    -0.000000

                    Cartesian Multipole Moments
 -----------------------------------------------------------------
    Charge (ESU x 10^10)
                -0.0000
    Dipole Moment (Debye)
         X      -7.7583      Y      -3.0638      Z       1.4535
       Tot       8.4670
    Quadrupole Moments (Debye-Ang)
        XX    -147.4777     XY      -1.3385     YY    -169.4176
        XZ      -9.4298     YZ       6.1771     ZZ    -159.0808

 Total job time:  180.39s(wall), 8601.86s(cpu)
        *  Thank you very much for using Q-Chem.  Have a nice day.  *
