 Q-Chem 5.0, Q-Chem, Inc., Pleasanton, CA (2017)
 Q-Chem 5.0.1 for Intel X86 EM64T Linux

User input:
--------------------------------------------------------------
$molecule
0  1
O -3.94934 -3.66094 2.70899
C -3.26408 -4.56952 2.26188
C -3.36658 -6.02376 2.66595
C -2.1637 -6.92746 2.34928
C -0.92277 -6.23941 1.8251
O -1.17308 -5.70685 0.59257
C -2.54592 -5.34868 0.40213
C -2.80503 -3.94937 0.95069
O -1.66078 -3.49374 1.6896
C -1.36353 -2.17782 1.55129
C -2.57601 -1.32918 1.25067
C -2.29133 0.17074 1.08486
C -0.83724 0.5495 0.88774
O -0.437 1.60649 0.42174
O -2.1595 -4.32642 3.33258
O 0.17993 -0.35234 0.86086
O -0.61465 -1.80071 2.44167
C 1.53254 -0.0686 0.77067
C -3.26387 -1.32565 -0.25429
C -4.73688 -0.92528 -0.10928
C -4.59047 0.54763 0.15748
C -3.08963 0.69429 -0.08475
O -2.75576 -0.26235 -1.01149
H -3.35457 -1.46689 2.0287
H -2.57463 0.71221 2.01491
H -3.28065 -2.17895 -0.94807
H -5.20851 -1.04038 -1.11359
H -5.33821 -1.49454 0.63139
H -5.18555 1.11095 -0.59566
H -4.85724 0.87567 1.18559
H -2.82963 1.74134 -0.35581
O 0.20753 -6.38235 2.26388
C -1.10264 -4.36114 4.24786
C -3.61187 -6.39985 4.15985
C -4.28858 -7.76912 4.26984
C -3.12974 -8.68457 3.90882
C -2.00831 -7.6576 3.70997
O -2.33666 -6.68876 4.67029
H -4.30057 -6.37143 2.16669
H -2.40775 -7.70668 1.58988
H -1.50716 -4.19508 5.26692
H -4.19858 -5.62822 4.70399
H -4.54397 -7.93169 5.34221
H -5.20601 -7.89108 3.65592
H -2.8941 -9.31236 4.7982
H -3.29117 -9.33749 3.02517
H -1.0147 -8.14275 3.82098
H -0.36471 -3.56965 4.03723
H -0.54447 -5.30915 4.25088
H 2.10694 -1.01633 0.8129
H 1.8408 0.5678 1.62898
H 1.76231 0.45013 -0.18348
H -2.35363 -3.59232 0.00903
H -3.76522 -3.45129 0.50105
H -3.31293 -6.15596 0.32324
H -2.64423 -5.34198 -0.72299
$end

$opt
CONSTRAINT
tors           1           2           3           4    -161.053
tors           3           4           5           6     -66.316
tors           4           5           6           7     +28.421
tors           5           6           7           8     +85.263
tors           6           7           8           9      -9.474
tors           7           8           9          10    +142.105
tors           8           9          10          11     +28.421
tors           9          10          11          12    -180.000
tors          11          12          13          14    +161.053
ENDCONSTRAINT
$end

$rem
JOBTYPE                   OPT
METHOD                    B3LYP
DFT_D                     d3_op
BASIS                     STO-3G
GEOM_OPT_MAX_CYCLES       100
GEOM_OPT_TOL_GRADIENT     300
GEOM_OPT_TOL_DISPLACEMENT 1200
GEOM_OPT_TOL_ENERGY       100
SYMMETRY                  False
THRESH                    12
SCF_CONVERGENCE           8
MAX_SUB_FILE_NUM          128
MEM_STATIC                400
MEM_TOTAL                 4000
$end
--------------------------------------------------------------

   19   -1509.5589175667      3.49E-09 Convergence criterion met
 Total energy in the final basis set = -1509.55891757
   16   -1509.6898801271      3.57E-09 Convergence criterion met
 Total energy in the final basis set = -1509.68988013
   16   -1509.7779028619      5.32E-09 Convergence criterion met
 Total energy in the final basis set = -1509.77790286
   16   -1509.8444644568      4.00E-09 Convergence criterion met
 Total energy in the final basis set = -1509.84446446
   15   -1509.8930151112      9.58E-09 Convergence criterion met
 Total energy in the final basis set = -1509.89301511
   16   -1509.9292448127      5.36E-09 Convergence criterion met
 Total energy in the final basis set = -1509.92924481
   16   -1509.9590138492      6.16E-09 Convergence criterion met
 Total energy in the final basis set = -1509.95901385
   15   -1509.9841362372      6.38E-09 Convergence criterion met
   12   -1510.1959563839      3.95E-09 Convergence criterion met
 Total energy in the final basis set = -1510.19595638
   12   -1510.1960102793      3.62E-09 Convergence criterion met
 Total energy in the final basis set = -1510.19601028
   12   -1510.1960438343      3.50E-09 Convergence criterion met
 Total energy in the final basis set = -1510.19604383
   11   -1510.1960710024      4.85E-09 Convergence criterion met
 Total energy in the final basis set = -1510.19607100
   11   -1510.1960784002      5.43E-09 Convergence criterion met
 Total energy in the final basis set = -1510.19607840
   10   -1510.1960850941      6.91E-09 Convergence criterion met
 Total energy in the final basis set = -1510.19608509

             Standard Nuclear Orientation (Angstroms)
    I     Atom           X                Y                Z
 ----------------------------------------------------------------
    1      O      -2.4986598652    -2.6714215466    -1.9201813770
    2      C      -2.3144328906    -1.6191027488    -1.2648969677
    3      C      -3.3762097020    -1.2322606929    -0.1168136737
    4      C      -3.5744020809     0.2126201580     0.5199532299
    5      C      -2.4544414714     1.2905659591     0.8675329177
    6      O      -1.4876234541     1.0239183395     1.9004649246
    7      C      -1.1530486770    -0.3890588025     2.1406791136
    8      C      -0.0097779607    -0.8552508911     1.1351210268
    9      O       0.1418715760     0.2406563651     0.1652561810
   10      C       1.4522624774     0.5811724484    -0.3102370325
   11      C       2.6100499728    -0.5075629919    -0.3884212962
   12      C       3.9616118552     0.0960014260    -0.9409504371
   13      C       4.4737456548     1.4250922305    -0.2433644323
   14      O       5.6516106673     1.8440378545    -0.3054311221
   15      O      -1.2488637236    -0.7364506096    -1.6365591965
   16      O       3.5022233679     1.9650015739     0.6516802600
   17      O       1.5252469004     1.6711570041    -0.9195336507
   18      C       4.0760517565     3.1140023238     1.3878984025
   19      C       3.1914570468    -1.4361441301     0.7961941454
   20      C       3.4556023402    -2.8374789469     0.1213513391
   21      C       4.6248931774    -2.4503285188    -0.8631848575
   22      C       4.9758609279    -0.9867197475    -0.3810035791
   23      O       4.5681782926    -0.9601705891     1.0498370211
   24      H       2.2211555574    -1.1998625324    -1.1613009195
   25      H       3.9636645206     0.2062167344    -2.0402503309
   26      H       2.6377858652    -1.4620949448     1.7513476207
   27      H       3.7936675280    -3.5663362596     0.8759970710
   28      H       2.5706906027    -3.2419550755    -0.3957533971
   29      H       5.4939728363    -3.1168393798    -0.7487213761
   30      H       4.3073104234    -2.4652351776    -1.9183590504
   31      H       6.0374435896    -0.6900045388    -0.4857778236
   32      O      -2.4940986919     2.4592093904     0.4247913544
   33      C      -1.8139790227     0.5474449512    -2.1398634503
   34      C      -4.7529259184    -1.2827603337    -0.9335111852
   35      C      -6.0195131151    -1.1808789356     0.0043518331
   36      C      -6.1002287876     0.3694715467     0.2689506524
   37      C      -4.7395540390     0.8266161576    -0.3712283059
   38      O      -4.7035210587     0.0356514944    -1.6260457135
   39      H      -3.3259304467    -2.0109424316     0.6654870539
   40      H      -4.0116026571     0.0058964749     1.5176585848
   41      H      -1.4877819824     0.6587681516    -3.1936955874
   42      H      -4.7800575536    -2.1092005540    -1.6704573893
   43      H      -6.9149256682    -1.5544817295    -0.5165902815
   44      H      -5.8862469220    -1.7617165412     0.9315386786
   45      H      -6.9490779155     0.8247452890    -0.2664976716
   46      H      -6.1745761235     0.6233897937     1.3384852726
   47      H      -4.6174081444     1.9080644884    -0.5783378794
   48      H      -1.4000188994     1.3849606969    -1.5457172374
   49      H      -2.9286319862     0.5420782834    -2.0991056227
   50      H       3.2753809562     3.4687050209     2.0626446926
   51      H       4.3718928375     3.9324898554     0.7008123798
   52      H       4.9628686857     2.8137715913     1.9829106884
   53      H       0.9122124311    -1.0442552428     1.7083748098
   54      H      -0.3021810915    -1.7916641174     0.6109929980
   55      H      -2.0337125419    -1.0571379201     2.0759976238
   56      H      -0.7684440125    -0.4236034903     3.1802576078
 ----------------------------------------------------------------

    9   -1510.1960851985      4.80E-09 Convergence criterion met
 Total energy in the final basis set = -1510.19608520
 Final energy is   -1510.19608519849
 **  OPTIMIZATION CONVERGED  **

                    Orbital Energies (a.u.)
 --------------------------------------------------------------

 Alpha MOs
 -- Occupied --
-18.939 -18.929 -18.929 -18.907 -18.906 -18.890 -18.889 -18.882
-18.869 -18.862 -10.109 -10.105 -10.099 -10.092 -10.086 -10.081
-10.069 -10.068 -10.067 -10.060 -10.056 -10.047 -10.045 -10.037
-10.036 -10.035 -10.031 -10.029 -10.025 -10.024  -1.015  -1.006
 -1.005  -0.998  -0.985  -0.975  -0.946  -0.933  -0.928  -0.924
 -0.772  -0.763  -0.728  -0.724  -0.718  -0.711  -0.702  -0.655
 -0.641  -0.616  -0.606  -0.597  -0.556  -0.549  -0.548  -0.539
 -0.520  -0.518  -0.494  -0.482  -0.471  -0.464  -0.446  -0.442
 -0.441  -0.438  -0.434  -0.418  -0.411  -0.408  -0.402  -0.400
 -0.398  -0.390  -0.384  -0.375  -0.368  -0.363  -0.360  -0.344
 -0.342  -0.336  -0.334  -0.330  -0.327  -0.320  -0.318  -0.317
 -0.311  -0.310  -0.308  -0.305  -0.297  -0.295  -0.290  -0.281
 -0.271  -0.254  -0.248  -0.245  -0.237  -0.231  -0.229  -0.178
 -0.174  -0.168  -0.166  -0.157  -0.153  -0.152  -0.145  -0.143
 -0.138

          Ground-State Mulliken Net Atomic Charges

     Atom                 Charge (a.u.)
  ----------------------------------------
      1 O                    -0.194978
      2 C                     0.212936
      3 C                    -0.085113
      4 C                    -0.091459
      5 C                     0.218880
      6 O                    -0.163561
      7 C                    -0.045825
      8 C                    -0.048159
      9 O                    -0.167806
     10 C                     0.220607
     11 C                    -0.087616
     12 C                    -0.072355
     13 C                     0.215308
     14 O                    -0.220356
     15 O                    -0.186604
     16 O                    -0.163878
     17 O                    -0.195601
     18 C                    -0.125921
     19 C                     0.023053
     20 C                    -0.141170
     21 C                    -0.146357
     22 C                     0.021983
     23 O                    -0.192450
     24 H                     0.084250
     25 H                     0.087874
     26 H                     0.076939
     27 H                     0.077447
     28 H                     0.073860
     29 H                     0.079715
     30 H                     0.076270
     31 H                     0.090542
     32 O                    -0.196113
     33 C                    -0.146333
     34 C                     0.022451
     35 C                    -0.146318
     36 C                    -0.140995
     37 C                     0.022145
     38 O                    -0.189359
     39 H                     0.078328
     40 H                     0.077948
     41 H                     0.080732
     42 H                     0.092642
     43 H                     0.081836
     44 H                     0.073925
     45 H                     0.081415
     46 H                     0.075597
     47 H                     0.097820
     48 H                     0.094878
     49 H                     0.100682
     50 H                     0.091427
     51 H                     0.090413
     52 H                     0.089157
     53 H                     0.086053
     54 H                     0.080549
     55 H                     0.080366
     56 H                     0.090299
  ----------------------------------------
  Sum of atomic charges =     0.000000

                    Cartesian Multipole Moments
 -----------------------------------------------------------------
    Charge (ESU x 10^10)
                 0.0000
    Dipole Moment (Debye)
         X      -2.4728      Y      -3.6730      Z       2.9470
       Tot       5.3188
    Quadrupole Moments (Debye-Ang)
        XX    -155.9081     XY      -2.8654     YY    -165.5979
        XZ      -8.5902     YZ      -3.0022     ZZ    -159.3080

 Total job time:  189.59s(wall), 9042.12s(cpu)
        *  Thank you very much for using Q-Chem.  Have a nice day.  *
