 Q-Chem 5.0, Q-Chem, Inc., Pleasanton, CA (2017)
 Q-Chem 5.0.1 for Intel X86 EM64T Linux

User input:
--------------------------------------------------------------
$molecule
0  1
O -5.9146388436 -0.9645079294 0.1589685001
C -5.0043281088 -0.70522836 -0.6563240566
C -3.6119716013 -1.4284100799 -0.7811861429
C -2.334106153 -0.4965991364 -0.6518287363
C -2.7389765486 0.9653652752 -0.1786569486
O -1.778116546 2.0188703979 -0.4169178798
C -0.5342664164 1.8669555256 0.3710131306
C 0.7005517072 1.8267746262 -0.5949062515
O 1.8944241209 1.6743975784 0.2651051602
C 3.0904914057 2.0670000371 -0.4599647123
C 4.1311385441 0.8802463462 -0.4820938655
C 4.0308925783 -0.088295425 0.7564249922
C 3.5820452719 0.5601690747 2.1115265451
O 3.4417439833 -0.0329503313 3.2040504392
O -5.167300501 0.1260523453 -1.818833822
O 3.6381812538 1.988556775 1.984995895
O 3.2134111322 3.1530756633 -1.0622294571
C 3.2256505199 2.6461315538 3.2440569297
C 3.5927571335 -0.1094312249 -1.6149658081
C 4.576360026 -1.3376470567 -1.7842239398
C 4.1537891672 -2.2486315786 -0.5699106972
C 3.1521987591 -1.2838538183 0.174017417
O 2.3990949752 -0.6929887975 -0.9561356673
H 5.1508648416 1.2570723699 -0.6708853338
H 5.0418390595 -0.4862199275 0.9699016792
H 3.3060882654 0.393225492 -2.5594230342
H 4.4080945326 -1.8397523519 -2.7500269523
H 5.6317333787 -1.0252737682 -1.7301397718
H 3.6272039042 -3.1538236137 -0.9128572334
H 5.0053889984 -2.548565136 0.0612096253
H 2.4662415982 -1.7614252992 0.9003990068
O -3.8884494611 1.2680282174 0.2132236351
C -6.4761761913 0.8116609534 -1.762397272
C -3.3674183745 -2.4952040405 0.3620395218
C -2.3422103234 -3.5571262087 -0.1907912434
C -1.0293575502 -2.6911551404 -0.2379622896
C -1.5191068805 -1.3424200362 0.4323291489
O -2.5732234024 -1.7642725877 1.3773414407
H -3.6036789171 -1.9184813086 -1.7723381449
H -1.7773156777 -0.4102559953 -1.6023857519
H -6.5127774699 1.5399468731 -0.9261129774
H -4.2981642184 -2.8943486315 0.8102702941
H -2.2439263951 -4.3995650694 0.5125063403
H -2.633797837 -3.9499860034 -1.1778084872
H -0.2202518552 -3.142270871 0.3577067275
H -0.6609096561 -2.5290042936 -1.2636041241
H -0.718296444 -0.8029185858 0.9682806691
H -7.310989601 0.0915708406 -1.6395793223
H -6.585382936 1.3482934233 -2.7228932606
H 2.2030011036 3.0587165164 3.1280058753
H 3.933936037 3.4716902003 3.4469152682
H 3.2393914349 1.908379803 4.0717942793
H 0.619548746 0.9528128448 -1.280585938
H 0.739611542 2.7598797886 -1.1981242826
H -0.5286270261 0.97708638 1.0248915464
H -0.4458590502 2.7628820564 1.0248412727
$end

$rem
JOBTYPE                   OPT
METHOD                    B3LYP
DFT_D                     d3_op
BASIS                     STO-3G
GEOM_OPT_MAX_CYCLES       100
GEOM_OPT_TOL_GRADIENT     300
GEOM_OPT_TOL_DISPLACEMENT 1200
GEOM_OPT_TOL_ENERGY       100
SYMMETRY                  False
THRESH                    12
SCF_CONVERGENCE           8
MAX_SUB_FILE_NUM          128
MEM_STATIC                400
MEM_TOTAL                 4000
$end
--------------------------------------------------------------

   16   -1510.2426468117      5.91E-09 Convergence criterion met
 Total energy in the final basis set = -1510.24264681
   14   -1510.2472251338      4.02E-09 Convergence criterion met
 Total energy in the final basis set = -1510.24722513
   13   -1510.2511804914      9.23E-09 Convergence criterion met
 Total energy in the final basis set = -1510.25118049
   14   -1510.2549588234      2.17E-09 Convergence criterion met
 Total energy in the final basis set = -1510.25495882
   14   -1510.2585287470      1.90E-09 Convergence criterion met
 Total energy in the final basis set = -1510.25852875
   13   -1510.2620523591      7.76E-09 Convergence criterion met
 Total energy in the final basis set = -1510.26205236
   13   -1510.2654881594      7.60E-09 Convergence criterion met
 Total energy in the final basis set = -1510.26548816
   14   -1510.2597537460      9.91E-09 Convergence criterion met
   11   -1510.2983090146      5.70E-09 Convergence criterion met
 Total energy in the final basis set = -1510.29830901
   11   -1510.2983272153      8.34E-09 Convergence criterion met
 Total energy in the final basis set = -1510.29832722
   11   -1510.2983377028      7.28E-09 Convergence criterion met
 Total energy in the final basis set = -1510.29833770
   10   -1510.2983408305      7.78E-09 Convergence criterion met
 Total energy in the final basis set = -1510.29834083
   11   -1510.2983349527      4.25E-09 Convergence criterion met
 Total energy in the final basis set = -1510.29833495
    9   -1510.2983350449      6.13E-09 Convergence criterion met
 Total energy in the final basis set = -1510.29833504

             Standard Nuclear Orientation (Angstroms)
    I     Atom           X                Y                Z
 ----------------------------------------------------------------
    1      O      -3.9626501591    -1.3262355246    -1.3808733197
    2      C      -2.8071233101    -0.9080752639    -1.1689560836
    3      C      -1.8774651941    -1.1764858629     0.0594510052
    4      C      -1.4374206056     0.1150162004     0.8527910672
    5      C      -2.2736655421     1.3708850794     0.4190966883
    6      O      -1.8936922126     2.6765821163     0.8931070288
    7      C      -0.5826205767     2.7610645917     1.5681837252
    8      C       0.6268878674     2.8357549580     0.5676667874
    9      O       1.0359054769     1.4801957261     0.1215373719
   10      C       1.3182540195     1.4802898443    -1.2901094886
   11      C       1.9030335866     0.1083500583    -1.7523147710
   12      C       2.8054280095    -0.6914691591    -0.7171991075
   13      C       2.7218810044    -0.1918065203     0.7726079053
   14      O       2.0655139817    -0.6974658548     1.7099342027
   15      O      -2.0171913517    -0.2141443775    -2.1728662886
   16      O       3.6300756238     0.9044164802     0.9343411087
   17      O       1.1053379684     2.4672838496    -2.0276016318
   18      C       3.5929422252     1.3804996657     2.3357512371
   19      C       0.7923804165    -0.9886794188    -2.1061477091
   20      C       1.4384397291    -1.9724529439    -3.1558737300
   21      C       2.4763504027    -2.7430222979    -2.2536198421
   22      C       2.1673489318    -2.1344217774    -0.8284557066
   23      O       0.7231068803    -1.8265968653    -0.8914761318
   24      H       2.4902702138     0.3366156815    -2.6596207669
   25      H       3.8648859210    -0.6675360917    -1.0295503018
   26      H      -0.2344195678    -0.5983712366    -2.3292660032
   27      H       0.6732789950    -2.6559619432    -3.5580852441
   28      H       1.9141407540    -1.4405657021    -3.9950903091
   29      H       2.2910073250    -3.8287450048    -2.2577978267
   30      H       3.5191610507    -2.5622131354    -2.5604955231
   31      H       2.3838964828    -2.7938720413     0.0342013815
   32      O      -3.3029534640     1.3188179000    -0.2939247102
   33      C      -2.8474652205     0.0884880070    -3.3560547753
   34      C      -2.5583498528    -2.0356671733     1.2007860125
   35      C      -1.3965182606    -2.7155734286     2.0235496294
   36      C      -0.7865223792    -1.4669777192     2.7627065274
   37      C      -1.8020641161    -0.3315692959     2.3344260257
   38      O      -3.0927537566    -1.0318510696     2.1524380651
   39      H      -0.9544604521    -1.6752400627    -0.3056114022
   40      H      -0.3599504335     0.3245988847     0.7053566926
   41      H      -3.6708510007     0.7848426865    -3.0966740674
   42      H      -3.3675469879    -2.7057271850     0.8506683018
   43      H      -1.8071207777    -3.4476740661     2.7375800456
   44      H      -0.6656294877    -3.2211973421     1.3729264041
   45      H      -0.7905862914    -1.5997899535     3.8559853213
   46      H       0.2428663587    -1.2403759690     2.4260092224
   47      H      -1.9202591039     0.4952396279     3.0613514720
   48      H      -3.2868078329    -0.8304620122    -3.7957818168
   49      H      -2.1760451868     0.5680366304    -4.0922269463
   50      H       4.2239141478     2.2876303112     2.3694185564
   51      H       4.0002594521     0.6208531857     3.0342306575
   52      H       2.5607462863     1.6290777868     2.6547521122
   53      H       0.3658525380     3.4372450263    -0.3306439451
   54      H       1.4929941791     3.3083679263     1.0794821916
   55      H      -0.4141132446     1.9485174258     2.3035418112
   56      H      -0.6157286056     3.7235362293     2.1203141454
 ----------------------------------------------------------------

    9   -1510.2983346940      2.48E-09 Convergence criterion met
 Total energy in the final basis set = -1510.29833469
 Final energy is   -1510.29833469404
 **  OPTIMIZATION CONVERGED  **

                    Orbital Energies (a.u.)
 --------------------------------------------------------------

 Alpha MOs
 -- Occupied --
-18.957 -18.943 -18.933 -18.917 -18.903 -18.897 -18.883 -18.876
-18.871 -18.858 -10.119 -10.113 -10.096 -10.087 -10.085 -10.083
-10.074 -10.072 -10.056 -10.053 -10.050 -10.049 -10.048 -10.040
-10.028 -10.025 -10.015 -10.005 -10.002  -9.997  -1.033  -1.019
 -1.006  -0.992  -0.984  -0.956  -0.955  -0.945  -0.935  -0.921
 -0.774  -0.746  -0.735  -0.722  -0.710  -0.704  -0.690  -0.674
 -0.649  -0.622  -0.599  -0.585  -0.555  -0.547  -0.533  -0.525
 -0.522  -0.507  -0.496  -0.483  -0.469  -0.457  -0.449  -0.446
 -0.437  -0.435  -0.420  -0.418  -0.416  -0.414  -0.405  -0.401
 -0.400  -0.386  -0.380  -0.376  -0.367  -0.361  -0.356  -0.355
 -0.345  -0.339  -0.335  -0.334  -0.323  -0.320  -0.316  -0.315
 -0.312  -0.309  -0.306  -0.300  -0.293  -0.288  -0.281  -0.270
 -0.265  -0.261  -0.253  -0.245  -0.237  -0.235  -0.216  -0.196
 -0.186  -0.176  -0.170  -0.163  -0.162  -0.159  -0.146  -0.136
 -0.129

          Ground-State Mulliken Net Atomic Charges

     Atom                 Charge (a.u.)
  ----------------------------------------
      1 O                    -0.213797
      2 C                     0.218610
      3 C                    -0.100399
      4 C                    -0.098621
      5 C                     0.210909
      6 O                    -0.170457
      7 C                    -0.049346
      8 C                    -0.057757
      9 O                    -0.174491
     10 C                     0.215881
     11 C                    -0.081724
     12 C                    -0.079359
     13 C                     0.221001
     14 O                    -0.218341
     15 O                    -0.185797
     16 O                    -0.171681
     17 O                    -0.203216
     18 C                    -0.128407
     19 C                     0.010072
     20 C                    -0.143340
     21 C                    -0.144921
     22 C                     0.028497
     23 O                    -0.193996
     24 H                     0.089012
     25 H                     0.087629
     26 H                     0.114648
     27 H                     0.079493
     28 H                     0.074649
     29 H                     0.079745
     30 H                     0.074436
     31 H                     0.088679
     32 O                    -0.195693
     33 C                    -0.128432
     34 C                     0.022981
     35 C                    -0.142537
     36 C                    -0.154860
     37 C                     0.020399
     38 O                    -0.192911
     39 H                     0.112878
     40 H                     0.099707
     41 H                     0.094643
     42 H                     0.085504
     43 H                     0.072044
     44 H                     0.074085
     45 H                     0.069271
     46 H                     0.093380
     47 H                     0.072408
     48 H                     0.086513
     49 H                     0.084999
     50 H                     0.090390
     51 H                     0.089320
     52 H                     0.086952
     53 H                     0.110216
     54 H                     0.086000
     55 H                     0.090994
     56 H                     0.094138
  ----------------------------------------
  Sum of atomic charges =     0.000000

                    Cartesian Multipole Moments
 -----------------------------------------------------------------
    Charge (ESU x 10^10)
                -0.0000
    Dipole Moment (Debye)
         X       6.4550      Y       0.2185      Z       0.0435
       Tot       6.4588
    Quadrupole Moments (Debye-Ang)
        XX    -174.2660     XY      -0.4978     YY    -156.7957
        XZ       3.0396     YZ      10.5493     ZZ    -151.6798

 Total job time:  271.51s(wall), 12930.32s(cpu)
        *  Thank you very much for using Q-Chem.  Have a nice day.  *
