 Q-Chem 5.0, Q-Chem, Inc., Pleasanton, CA (2017)
 Q-Chem 5.0.1 for Intel X86 EM64T Linux

User input:
--------------------------------------------------------------
$molecule
0  1
O -3.94934 -3.66094 2.70899
C -3.26408 -4.56952 2.26188
C -3.36658 -6.02376 2.66595
C -2.09215 -6.69516 3.20345
C -0.90361 -5.79095 3.44399
O 0.24031 -6.53465 3.50529
C 0.28488 -7.40676 4.63962
C 0.47733 -8.85005 4.18575
O 0.52132 -9.72038 5.32744
C 1.0761 -10.93876 5.11084
C 0.14854 -12.07814 5.46029
C -0.87492 -11.76516 6.56159
C -1.06233 -10.29802 6.89187
O -1.82796 -9.85345 7.73492
O -2.4054 -4.30656 1.24614
O 0.06606 -9.64094 7.37278
O 2.07575 -11.10034 4.42433
C -0.00649 -8.23319 7.49447
C -0.78705 -12.57484 4.34419
C -1.19063 -14.02444 4.65073
C -2.13494 -13.8182 5.81992
C -2.15341 -12.28731 5.89421
O -1.99064 -11.87651 4.55646
H 0.81731 -12.91089 5.77652
H -0.62764 -12.27893 7.51734
H -0.34291 -12.49482 3.32901
H -1.77573 -14.41773 3.79002
H -0.34094 -14.71213 4.85599
H -3.13993 -14.20265 5.53746
H -1.81117 -14.28284 6.77775
H -3.07506 -11.9292 6.40445
O -0.8913 -4.57177 3.50219
C -2.20217 -3.04824 0.73487
C -4.37899 -6.24073 3.81336
C -4.88656 -7.68518 3.81516
C -3.66165 -8.41023 4.28146
C -2.73878 -7.23201 4.52913
O -3.58157 -6.19545 4.95359
H -3.74095 -6.55097 1.75936
H -1.77217 -7.51591 2.52294
H -1.83449 -2.38049 1.54253
H -5.23861 -5.53526 3.80539
H -5.6578 -7.78432 4.61461
H -5.282 -8.0456 2.84615
H -3.88522 -8.90394 5.25968
H -3.2061 -9.14991 3.58893
H -2.149 -7.64889 5.31715
H -3.15458 -2.65553 0.31911
H -1.44289 -3.10283 -0.07015
H 0.823 -7.78824 6.96713
H 0.09815 -7.79598 8.48998
H -1.00729 -7.82613 7.13793
H -0.35299 -9.17524 3.52415
H 1.42728 -8.88169 3.60438
H -0.3651 -7.02006 5.38845
H 1.25874 -7.12953 5.09293
$end

$opt
CONSTRAINT
tors           1           2           3           4    -123.158
tors           3           4           5           6    -161.053
tors           4           5           6           7     -66.316
tors           5           6           7           8    +123.158
tors           6           7           8           9    -180.000
tors           7           8           9          10    -161.053
tors           8           9          10          11    -123.158
tors           9          10          11          12     -28.421
tors          11          12          13          14    -180.000
ENDCONSTRAINT
$end

$rem
JOBTYPE                   OPT
METHOD                    B3LYP
DFT_D                     d3_op
BASIS                     STO-3G
GEOM_OPT_MAX_CYCLES       100
GEOM_OPT_TOL_GRADIENT     300
GEOM_OPT_TOL_DISPLACEMENT 1200
GEOM_OPT_TOL_ENERGY       100
SYMMETRY                  False
THRESH                    12
SCF_CONVERGENCE           8
MAX_SUB_FILE_NUM          128
MEM_STATIC                400
MEM_TOTAL                 4000
$end
--------------------------------------------------------------

   16   -1509.9778136193      4.75E-09 Convergence criterion met
 Total energy in the final basis set = -1509.97781362
   15   -1510.0711546873      5.82E-09 Convergence criterion met
 Total energy in the final basis set = -1510.07115469
   15   -1510.1344405568      1.85E-09 Convergence criterion met
 Total energy in the final basis set = -1510.13444056
   15   -1510.1716068403      2.02E-09 Convergence criterion met
 Total energy in the final basis set = -1510.17160684
   13   -1510.1947614684      7.91E-09 Convergence criterion met
 Total energy in the final basis set = -1510.19476147
   13   -1510.2094588841      6.83E-09 Convergence criterion met
 Total energy in the final basis set = -1510.20945888
   13   -1510.2193315559      5.35E-09 Convergence criterion met
 Total energy in the final basis set = -1510.21933156
   13   -1510.2260873321      4.30E-09 Convergence criterion met
   11   -1510.2426389177      1.90E-09 Convergence criterion met
 Total energy in the final basis set = -1510.24263892
    9   -1510.2426466131      9.87E-09 Convergence criterion met
 Total energy in the final basis set = -1510.24264661
    9   -1510.2426530914      5.70E-09 Convergence criterion met
 Total energy in the final basis set = -1510.24265309
   10   -1510.2426647373      9.21E-09 Convergence criterion met
 Total energy in the final basis set = -1510.24266474
    9   -1510.2426708630      9.90E-09 Convergence criterion met
 Total energy in the final basis set = -1510.24267086
   11   -1510.2426731916      1.56E-09 Convergence criterion met
 Total energy in the final basis set = -1510.24267319

             Standard Nuclear Orientation (Angstroms)
    I     Atom           X                Y                Z
 ----------------------------------------------------------------
    1      O      -5.9146388436    -0.9645079294     0.1589685001
    2      C      -5.0043281088    -0.7052283600    -0.6563240566
    3      C      -3.6119716013    -1.4284100799    -0.7811861429
    4      C      -2.3341061530    -0.4965991364    -0.6518287363
    5      C      -2.7389765486     0.9653652752    -0.1786569486
    6      O      -1.7781165460     2.0188703979    -0.4169178798
    7      C      -0.5342664164     1.8669555256     0.3710131306
    8      C       0.7005517072     1.8267746262    -0.5949062515
    9      O       1.8944241209     1.6743975784     0.2651051602
   10      C       3.0904914057     2.0670000371    -0.4599647123
   11      C       4.1311385441     0.8802463462    -0.4820938655
   12      C       4.0308925783    -0.0882954250     0.7564249922
   13      C       3.5820452719     0.5601690747     2.1115265451
   14      O       3.4417439833    -0.0329503313     3.2040504392
   15      O      -5.1673005010     0.1260523453    -1.8188338220
   16      O       3.6381812538     1.9885567750     1.9849958950
   17      O       3.2134111322     3.1530756633    -1.0622294571
   18      C       3.2256505199     2.6461315538     3.2440569297
   19      C       3.5927571335    -0.1094312249    -1.6149658081
   20      C       4.5763600260    -1.3376470567    -1.7842239398
   21      C       4.1537891672    -2.2486315786    -0.5699106972
   22      C       3.1521987591    -1.2838538183     0.1740174170
   23      O       2.3990949752    -0.6929887975    -0.9561356673
   24      H       5.1508648416     1.2570723699    -0.6708853338
   25      H       5.0418390595    -0.4862199275     0.9699016792
   26      H       3.3060882654     0.3932254920    -2.5594230342
   27      H       4.4080945326    -1.8397523519    -2.7500269523
   28      H       5.6317333787    -1.0252737682    -1.7301397718
   29      H       3.6272039042    -3.1538236137    -0.9128572334
   30      H       5.0053889984    -2.5485651360     0.0612096253
   31      H       2.4662415982    -1.7614252992     0.9003990068
   32      O      -3.8884494611     1.2680282174     0.2132236351
   33      C      -6.4761761913     0.8116609534    -1.7623972720
   34      C      -3.3674183745    -2.4952040405     0.3620395218
   35      C      -2.3422103234    -3.5571262087    -0.1907912434
   36      C      -1.0293575502    -2.6911551404    -0.2379622896
   37      C      -1.5191068805    -1.3424200362     0.4323291489
   38      O      -2.5732234024    -1.7642725877     1.3773414407
   39      H      -3.6036789171    -1.9184813086    -1.7723381449
   40      H      -1.7773156777    -0.4102559953    -1.6023857519
   41      H      -6.5127774699     1.5399468731    -0.9261129774
   42      H      -4.2981642184    -2.8943486315     0.8102702941
   43      H      -2.2439263951    -4.3995650694     0.5125063403
   44      H      -2.6337978370    -3.9499860034    -1.1778084872
   45      H      -0.2202518552    -3.1422708710     0.3577067275
   46      H      -0.6609096561    -2.5290042936    -1.2636041241
   47      H      -0.7182964440    -0.8029185858     0.9682806691
   48      H      -7.3109896010     0.0915708406    -1.6395793223
   49      H      -6.5853829360     1.3482934233    -2.7228932606
   50      H       2.2030011036     3.0587165164     3.1280058753
   51      H       3.9339360370     3.4716902003     3.4469152682
   52      H       3.2393914349     1.9083798030     4.0717942793
   53      H       0.6195487460     0.9528128448    -1.2805859380
   54      H       0.7396115420     2.7598797886    -1.1981242826
   55      H      -0.5286270261     0.9770863800     1.0248915464
   56      H      -0.4458590502     2.7628820564     1.0248412727
 ----------------------------------------------------------------

    9   -1510.2426738258      5.71E-09 Convergence criterion met
 Total energy in the final basis set = -1510.24267383
 Final energy is   -1510.24267382575
 **  OPTIMIZATION CONVERGED  **

                    Orbital Energies (a.u.)
 --------------------------------------------------------------

 Alpha MOs
 -- Occupied --
-18.941 -18.918 -18.915 -18.909 -18.907 -18.899 -18.890 -18.888
-18.881 -18.858 -10.112 -10.108 -10.106 -10.089 -10.076 -10.071
-10.071 -10.068 -10.065 -10.063 -10.057 -10.051 -10.046 -10.043
-10.041 -10.032 -10.030 -10.029 -10.023 -10.020  -1.018  -1.013
 -1.005  -0.994  -0.982  -0.973  -0.945  -0.942  -0.933  -0.922
 -0.772  -0.762  -0.733  -0.722  -0.713  -0.705  -0.704  -0.664
 -0.652  -0.611  -0.600  -0.587  -0.554  -0.547  -0.545  -0.539
 -0.522  -0.516  -0.492  -0.475  -0.470  -0.454  -0.454  -0.446
 -0.439  -0.434  -0.430  -0.417  -0.414  -0.409  -0.404  -0.401
 -0.400  -0.390  -0.375  -0.366  -0.365  -0.362  -0.355  -0.351
 -0.348  -0.343  -0.341  -0.333  -0.327  -0.325  -0.324  -0.323
 -0.315  -0.313  -0.307  -0.305  -0.302  -0.292  -0.282  -0.279
 -0.273  -0.257  -0.246  -0.244  -0.242  -0.238  -0.236  -0.180
 -0.171  -0.166  -0.164  -0.163  -0.160  -0.154  -0.150  -0.147
 -0.140

          Ground-State Mulliken Net Atomic Charges

     Atom                 Charge (a.u.)
  ----------------------------------------
      1 O                    -0.219167
      2 C                     0.216333
      3 C                    -0.081661
      4 C                    -0.082379
      5 C                     0.224371
      6 O                    -0.186740
      7 C                    -0.045525
      8 C                    -0.050042
      9 O                    -0.190722
     10 C                     0.226465
     11 C                    -0.076912
     12 C                    -0.078230
     13 C                     0.215931
     14 O                    -0.215259
     15 O                    -0.178943
     16 O                    -0.167034
     17 O                    -0.200395
     18 C                    -0.133048
     19 C                     0.022217
     20 C                    -0.144990
     21 C                    -0.141178
     22 C                     0.026859
     23 O                    -0.194347
     24 H                     0.087187
     25 H                     0.085477
     26 H                     0.082341
     27 H                     0.079351
     28 H                     0.075933
     29 H                     0.078428
     30 H                     0.076191
     31 H                     0.086993
     32 O                    -0.173576
     33 C                    -0.128712
     34 C                     0.023771
     35 C                    -0.143037
     36 C                    -0.143946
     37 C                     0.023951
     38 O                    -0.189930
     39 H                     0.083185
     40 H                     0.085181
     41 H                     0.090797
     42 H                     0.092513
     43 H                     0.078181
     44 H                     0.073894
     45 H                     0.077029
     46 H                     0.075414
     47 H                     0.079012
     48 H                     0.086985
     49 H                     0.086077
     50 H                     0.087665
     51 H                     0.089287
     52 H                     0.101885
     53 H                     0.082552
     54 H                     0.089037
     55 H                     0.087103
     56 H                     0.088176
  ----------------------------------------
  Sum of atomic charges =     0.000000

                    Cartesian Multipole Moments
 -----------------------------------------------------------------
    Charge (ESU x 10^10)
                 0.0000
    Dipole Moment (Debye)
         X       3.7708      Y      -1.9290      Z      -2.0093
       Tot       4.6880
    Quadrupole Moments (Debye-Ang)
        XX    -162.4094     XY      -3.5867     YY    -160.9972
        XZ       7.2029     YZ       9.6455     ZZ    -161.1919

 Total job time:  86.33s(wall), 4117.08s(cpu)
        *  Thank you very much for using Q-Chem.  Have a nice day.  *
