 Q-Chem 5.0, Q-Chem, Inc., Pleasanton, CA (2017)
 Q-Chem 5.0.1 for Intel X86 EM64T Linux

User input:
--------------------------------------------------------------
$molecule
0  1
O -3.94934 -3.66094 2.70899
C -3.26408 -4.56952 2.26188
C -3.36658 -6.02376 2.66595
C -2.27333 -6.57303 3.59705
C -1.29943 -5.56331 4.16282
O -1.90323 -4.34239 4.2638
C -2.96373 -4.31641 5.22501
C -2.50805 -4.96482 6.5281
O -3.07947 -6.27709 6.64776
C -4.1134 -6.38567 7.51858
C -4.66986 -7.78727 7.59939
C -4.67121 -8.40309 9.00618
C -4.46267 -7.43354 10.15212
O -3.59533 -6.57355 10.20404
O -2.2371 -4.25916 1.42552
O -5.38353 -7.45132 11.15523
O -4.66178 -5.4363 8.06861
C -5.3731 -6.60478 12.24436
C -6.16313 -7.90552 7.23279
C -6.4489 -9.31662 6.72656
C -6.27491 -10.11345 8.00518
C -6.10599 -8.97342 9.02117
O -6.83955 -7.9068 8.46797
H -4.08797 -8.43418 6.90678
H -3.86967 -9.16775 9.10317
H -6.49849 -7.14954 6.48956
H -7.52429 -9.33457 6.43678
H -5.8377 -9.66398 5.86669
H -7.20835 -10.69104 8.18573
H -5.39371 -10.79091 8.02514
H -6.42429 -9.32042 10.02784
O -0.09544 -5.64781 3.97314
C -1.94541 -2.98248 0.99344
C -4.64241 -6.62293 3.29349
C -4.81918 -8.06171 2.80753
C -3.63755 -8.73405 3.49356
C -3.12685 -7.58144 4.38365
O -4.31073 -6.85827 4.63286
H -3.30067 -6.508 1.66318
H -1.58874 -7.19426 2.97433
H -1.70906 -2.32968 1.86087
H -5.55584 -6.01796 3.10939
H -5.76236 -8.43743 3.26664
H -4.87206 -8.20928 1.70742
H -4.02645 -9.57769 4.10498
H -2.84356 -9.1048 2.81016
H -2.55567 -8.01687 5.22864
H -2.80668 -2.56312 0.4307
H -1.06286 -3.01838 0.32248
H -6.23634 -6.84366 12.89872
H -5.45963 -5.54905 11.90927
H -4.43548 -6.73985 12.82478
H -1.40678 -4.9723 6.6764
H -2.84939 -4.29048 7.34537
H -3.98189 -4.58537 4.90657
H -3.07358 -3.23097 5.43893
$end

$opt
CONSTRAINT
tors           1           2           3           4    -104.211
tors           3           4           5           6     +28.421
tors           4           5           6           7     +66.316
tors           5           6           7           8     +47.368
tors           6           7           8           9    -104.211
tors           7           8           9          10    -104.211
tors           8           9          10          11    -180.000
tors           9          10          11          12    +123.158
tors          11          12          13          14     -47.368
ENDCONSTRAINT
$end

$rem
JOBTYPE                   OPT
METHOD                    B3LYP
DFT_D                     d3_op
BASIS                     STO-3G
GEOM_OPT_MAX_CYCLES       100
GEOM_OPT_TOL_GRADIENT     300
GEOM_OPT_TOL_DISPLACEMENT 1200
GEOM_OPT_TOL_ENERGY       100
SYMMETRY                  False
THRESH                    12
SCF_CONVERGENCE           8
MAX_SUB_FILE_NUM          128
MEM_STATIC                400
MEM_TOTAL                 4000
$end
--------------------------------------------------------------

   15   -1510.1011615089      4.56E-09 Convergence criterion met
 Total energy in the final basis set = -1510.10116151
   14   -1510.1773670932      2.05E-09 Convergence criterion met
 Total energy in the final basis set = -1510.17736709
   14   -1510.2198500612      1.77E-09 Convergence criterion met
 Total energy in the final basis set = -1510.21985006
   14   -1510.2439992963      2.48E-09 Convergence criterion met
 Total energy in the final basis set = -1510.24399930
   13   -1510.2554819134      8.17E-09 Convergence criterion met
 Total energy in the final basis set = -1510.25548191
   13   -1510.2610082888      4.71E-09 Convergence criterion met
 Total energy in the final basis set = -1510.26100829
   13   -1510.2639773465      2.62E-09 Convergence criterion met
 Total energy in the final basis set = -1510.26397735
   13   -1510.2655454659      1.65E-09 Convergence criterion met
   11   -1510.2680575297      4.41E-09 Convergence criterion met
 Total energy in the final basis set = -1510.26805753
   11   -1510.2680703522      1.97E-09 Convergence criterion met
 Total energy in the final basis set = -1510.26807035
   10   -1510.2680768709      8.74E-09 Convergence criterion met
 Total energy in the final basis set = -1510.26807687
    9   -1510.2680814263      4.77E-09 Convergence criterion met
 Total energy in the final basis set = -1510.26808143
    9   -1510.2680835742      9.15E-09 Convergence criterion met
 Total energy in the final basis set = -1510.26808357
    9   -1510.2680851708      5.78E-09 Convergence criterion met
 Total energy in the final basis set = -1510.26808517

             Standard Nuclear Orientation (Angstroms)
    I     Atom           X                Y                Z
 ----------------------------------------------------------------
    1      O      -3.4803388109     0.0550299380     2.0798962604
    2      C      -4.0536870895    -0.2186171605     1.0023967424
    3      C      -3.5369832931    -1.1734354436    -0.1304953504
    4      C      -2.9621296039    -0.4493476604    -1.4269893751
    5      C      -3.0735907074     1.1371200120    -1.4643668919
    6      O      -3.0721719017     1.8783051383    -0.2223731380
    7      C      -1.8101411964     1.8348393672     0.5542530377
    8      C      -0.4874088414     2.1040796556    -0.2792637673
    9      O       0.2756893976     0.8740508554    -0.5474170734
   10      C       1.4287345553     0.7868302298     0.2986277101
   11      C       2.1703845897    -0.5431940705    -0.0570417768
   12      C       3.6841823337    -0.3514791900    -0.4915083514
   13      C       4.1061559558     1.1621079301    -0.5653394284
   14      O       3.4618732285     2.0768197539    -1.1250567541
   15      O      -5.3489387172     0.2551198910     0.6233239315
   16      O       5.3669161891     1.3544943544     0.0781987208
   17      O       1.7256970945     1.6308368731     1.1712554421
   18      C       5.7502153794     2.7841619236     0.0145568056
   19      C       2.3460995478    -1.4507238933     1.2364750256
   20      C       2.7152153411    -2.9120886478     0.7661228751
   21      C       4.2184777987    -2.7220211360     0.3392003928
   22      C       4.4281469909    -1.1837585236     0.6349523479
   23      O       3.6000836033    -0.9476480050     1.8404850793
   24      H       1.5834800462    -1.0600118747    -0.8352103277
   25      H       3.8537953804    -0.7912295428    -1.4921483547
   26      H       1.5086899774    -1.3824889881     1.9574302879
   27      H       2.6179504177    -3.6227450902     1.6021557933
   28      H       2.0743943838    -3.2513611693    -0.0634472266
   29      H       4.8947075549    -3.3275031726     0.9634566342
   30      H       4.3958322219    -2.9721911728    -0.7189980727
   31      H       5.4731422022    -0.8670574512     0.8128628260
   32      O      -3.3514708664     1.7468221501    -2.5207516026
   33      C      -5.8311870879     1.2467543602     1.6110850473
   34      C      -2.2898188277    -2.0266116209     0.3365198967
   35      C      -2.1295040218    -3.2536460461    -0.6424620980
   36      C      -1.5538138442    -2.5416755509    -1.9230899023
   37      C      -1.4834801392    -1.0392065235    -1.4401097511
   38      O      -1.1390424746    -1.1598511005    -0.0039940952
   39      H      -4.3826087066    -1.8235924254    -0.4196809536
   40      H      -3.5055954084    -0.7882772596    -2.3268617018
   41      H      -5.1788078430     2.1438765478     1.6226227430
   42      H      -2.2843520270    -2.2672688317     1.4171830221
   43      H      -1.4162190106    -3.9864345936    -0.2323744128
   44      H      -3.0879796625    -3.7622068337    -0.8330686452
   45      H      -0.5452082171    -2.9097894797    -2.1703922109
   46      H      -2.2007251724    -2.6645060219    -2.8062840388
   47      H      -0.7344808670    -0.4059137931    -1.9501518082
   48      H      -5.8704511093     0.8206227127     2.6343905136
   49      H      -6.8487402951     1.5326779889     1.2870399395
   50      H       6.7190060139     2.8634680033     0.5409720488
   51      H       4.9988254824     3.4266084691     0.5171154185
   52      H       5.8659234363     3.1296062105    -1.0331904532
   53      H      -0.7418137039     2.5595883310    -1.2594957352
   54      H       0.1627960723     2.7975401273     0.2967599827
   55      H      -1.6977525308     0.8520278632     1.0695415523
   56      H      -1.9376170475     2.6253486341     1.3204970068
 ----------------------------------------------------------------

    9   -1510.2680861215      3.08E-09 Convergence criterion met
 Total energy in the final basis set = -1510.26808612
 Final energy is   -1510.26808612153
 **  OPTIMIZATION CONVERGED  **

                    Orbital Energies (a.u.)
 --------------------------------------------------------------

 Alpha MOs
 -- Occupied --
-18.937 -18.932 -18.930 -18.912 -18.893 -18.891 -18.885 -18.872
-18.871 -18.871 -10.105 -10.099 -10.098 -10.097 -10.063 -10.063
-10.062 -10.062 -10.060 -10.060 -10.058 -10.056 -10.038 -10.037
-10.037 -10.034 -10.025 -10.024 -10.019 -10.018  -1.013  -1.011
 -1.007  -1.001  -0.975  -0.968  -0.939  -0.936  -0.934  -0.931
 -0.764  -0.761  -0.724  -0.722  -0.710  -0.706  -0.693  -0.660
 -0.660  -0.614  -0.598  -0.582  -0.549  -0.544  -0.541  -0.535
 -0.511  -0.510  -0.479  -0.477  -0.465  -0.458  -0.448  -0.441
 -0.435  -0.431  -0.426  -0.412  -0.411  -0.410  -0.406  -0.404
 -0.389  -0.382  -0.374  -0.371  -0.363  -0.358  -0.355  -0.348
 -0.344  -0.338  -0.337  -0.333  -0.328  -0.324  -0.320  -0.317
 -0.309  -0.307  -0.303  -0.302  -0.291  -0.289  -0.279  -0.278
 -0.272  -0.253  -0.253  -0.240  -0.240  -0.232  -0.231  -0.179
 -0.175  -0.173  -0.163  -0.157  -0.156  -0.151  -0.149  -0.145
 -0.141

          Ground-State Mulliken Net Atomic Charges

     Atom                 Charge (a.u.)
  ----------------------------------------
      1 O                    -0.219741
      2 C                     0.211443
      3 C                    -0.083242
      4 C                    -0.084001
      5 C                     0.214345
      6 O                    -0.190690
      7 C                    -0.054851
      8 C                    -0.059242
      9 O                    -0.172670
     10 C                     0.217959
     11 C                    -0.077472
     12 C                    -0.078751
     13 C                     0.211982
     14 O                    -0.216349
     15 O                    -0.170551
     16 O                    -0.167239
     17 O                    -0.213257
     18 C                    -0.127272
     19 C                     0.027229
     20 C                    -0.143484
     21 C                    -0.144376
     22 C                     0.023536
     23 O                    -0.187545
     24 H                     0.086822
     25 H                     0.083474
     26 H                     0.086843
     27 H                     0.077302
     28 H                     0.072521
     29 H                     0.077624
     30 H                     0.071890
     31 H                     0.092506
     32 O                    -0.185217
     33 C                    -0.127830
     34 C                     0.021654
     35 C                    -0.144078
     36 C                    -0.143977
     37 C                     0.020831
     38 O                    -0.191769
     39 H                     0.085228
     40 H                     0.086874
     41 H                     0.092920
     42 H                     0.086756
     43 H                     0.076674
     44 H                     0.074394
     45 H                     0.075011
     46 H                     0.075189
     47 H                     0.096307
     48 H                     0.088226
     49 H                     0.090200
     50 H                     0.091123
     51 H                     0.094118
     52 H                     0.088381
     53 H                     0.088520
     54 H                     0.101924
     55 H                     0.102410
     56 H                     0.091384
  ----------------------------------------
  Sum of atomic charges =     0.000000

                    Cartesian Multipole Moments
 -----------------------------------------------------------------
    Charge (ESU x 10^10)
                -0.0000
    Dipole Moment (Debye)
         X       0.4217      Y      -2.9565      Z      -0.9962
       Tot       3.1482
    Quadrupole Moments (Debye-Ang)
        XX    -148.9087     XY       5.2323     YY    -152.9528
        XZ     -10.4428     YZ       6.4255     ZZ    -167.4698

 Total job time:  63.39s(wall), 3020.30s(cpu)
        *  Thank you very much for using Q-Chem.  Have a nice day.  *
