 Q-Chem 5.0, Q-Chem, Inc., Pleasanton, CA (2017)
 Q-Chem 5.0.1 for Intel X86 EM64T Linux

User input:
--------------------------------------------------------------
$molecule
0  1
O -3.4803388109 0.055029938 2.0798962604
C -4.0536870895 -0.2186171605 1.0023967424
C -3.5369832931 -1.1734354436 -0.1304953504
C -2.9621296039 -0.4493476604 -1.4269893751
C -3.0735907074 1.137120012 -1.4643668919
O -3.0721719017 1.8783051383 -0.222373138
C -1.8101411964 1.8348393672 0.5542530377
C -0.4874088414 2.1040796556 -0.2792637673
O 0.2756893976 0.8740508554 -0.5474170734
C 1.4287345553 0.7868302298 0.2986277101
C 2.1703845897 -0.5431940705 -0.0570417768
C 3.6841823337 -0.35147919 -0.4915083514
C 4.1061559558 1.1621079301 -0.5653394284
O 3.4618732285 2.0768197539 -1.1250567541
O -5.3489387172 0.255119891 0.6233239315
O 5.3669161891 1.3544943544 0.0781987208
O 1.7256970945 1.6308368731 1.1712554421
C 5.7502153794 2.7841619236 0.0145568056
C 2.3460995478 -1.4507238933 1.2364750256
C 2.7152153411 -2.9120886478 0.7661228751
C 4.2184777987 -2.722021136 0.3392003928
C 4.4281469909 -1.1837585236 0.6349523479
O 3.6000836033 -0.947648005 1.8404850793
H 1.5834800462 -1.0600118747 -0.8352103277
H 3.8537953804 -0.7912295428 -1.4921483547
H 1.5086899774 -1.3824889881 1.9574302879
H 2.6179504177 -3.6227450902 1.6021557933
H 2.0743943838 -3.2513611693 -0.0634472266
H 4.8947075549 -3.3275031726 0.9634566342
H 4.3958322219 -2.9721911728 -0.7189980727
H 5.4731422022 -0.8670574512 0.812862826
O -3.3514708664 1.7468221501 -2.5207516026
C -5.8311870879 1.2467543602 1.6110850473
C -2.2898188277 -2.0266116209 0.3365198967
C -2.1295040218 -3.2536460461 -0.642462098
C -1.5538138442 -2.5416755509 -1.9230899023
C -1.4834801392 -1.0392065235 -1.4401097511
O -1.1390424746 -1.1598511005 -0.0039940952
H -4.3826087066 -1.8235924254 -0.4196809536
H -3.5055954084 -0.7882772596 -2.3268617018
H -5.178807843 2.1438765478 1.622622743
H -2.284352027 -2.2672688317 1.4171830221
H -1.4162190106 -3.9864345936 -0.2323744128
H -3.0879796625 -3.7622068337 -0.8330686452
H -0.5452082171 -2.9097894797 -2.1703922109
H -2.2007251724 -2.6645060219 -2.8062840388
H -0.734480867 -0.4059137931 -1.9501518082
H -5.8704511093 0.8206227127 2.6343905136
H -6.8487402951 1.5326779889 1.2870399395
H 6.7190060139 2.8634680033 0.5409720488
H 4.9988254824 3.4266084691 0.5171154185
H 5.8659234363 3.1296062105 -1.0331904532
H -0.7418137039 2.559588331 -1.2594957352
H 0.1627960723 2.7975401273 0.2967599827
H -1.6977525308 0.8520278632 1.0695415523
H -1.9376170475 2.6253486341 1.3204970068
$end

$rem
JOBTYPE                   OPT
METHOD                    B3LYP
DFT_D                     d3_op
BASIS                     STO-3G
GEOM_OPT_MAX_CYCLES       100
GEOM_OPT_TOL_GRADIENT     300
GEOM_OPT_TOL_DISPLACEMENT 1200
GEOM_OPT_TOL_ENERGY       100
SYMMETRY                  False
THRESH                    12
SCF_CONVERGENCE           8
MAX_SUB_FILE_NUM          128
MEM_STATIC                400
MEM_TOTAL                 4000
$end
--------------------------------------------------------------

   16   -1510.2680675400      5.36E-09 Convergence criterion met
 Total energy in the final basis set = -1510.26806754
   15   -1510.2694702995      5.88E-09 Convergence criterion met
 Total energy in the final basis set = -1510.26947030
   14   -1510.2758713618      3.05E-09 Convergence criterion met
 Total energy in the final basis set = -1510.27587136
   14   -1510.2790485708      3.37E-09 Convergence criterion met
 Total energy in the final basis set = -1510.27904857
   14   -1510.2811820176      4.85E-09 Convergence criterion met
 Total energy in the final basis set = -1510.28118202
   14   -1510.2817655011      9.75E-09 Convergence criterion met
 Total energy in the final basis set = -1510.28176550
   15   -1510.2816221231      3.79E-09 Convergence criterion met
 Total energy in the final basis set = -1510.28162212
   14   -1510.2828758833      4.24E-09 Convergence criterion met
   12   -1510.2898815334      7.13E-09 Convergence criterion met
 Total energy in the final basis set = -1510.28988153
   12   -1510.2898766477      3.66E-09 Convergence criterion met
 Total energy in the final basis set = -1510.28987665
   11   -1510.2898923254      4.26E-09 Convergence criterion met
 Total energy in the final basis set = -1510.28989233
   11   -1510.2898911516      6.26E-09 Convergence criterion met
 Total energy in the final basis set = -1510.28989115
   11   -1510.2898955329      4.08E-09 Convergence criterion met
 Total energy in the final basis set = -1510.28989553
    9   -1510.2898982151      3.98E-09 Convergence criterion met
 Total energy in the final basis set = -1510.28989822

             Standard Nuclear Orientation (Angstroms)
    I     Atom           X                Y                Z
 ----------------------------------------------------------------
    1      O      -3.0764834326     0.3941034644     2.4355104405
    2      C      -3.7141511896    -0.0505714735     1.4578790597
    3      C      -3.3060317685    -1.2231619209     0.4942266991
    4      C      -2.9616367182    -0.7205533099    -0.9771566551
    5      C      -3.3527126322     0.7927361653    -1.2678029794
    6      O      -2.8955207456     1.8602749229    -0.4203615955
    7      C      -1.4998423220     1.7477842046     0.0604558274
    8      C      -0.4753509351     2.2252038768    -1.0513501708
    9      O       0.3828081661     1.1015222529    -1.5061201312
   10      C       1.5981561987     1.0647169484    -0.7397675111
   11      C       2.3733080450    -0.2448068366    -1.0820159319
   12      C       3.9225536333    -0.1675161195    -0.7513482076
   13      C       4.3675831458     1.2271993455    -0.1689158201
   14      O       4.7038607729     2.2312088179    -0.8347354603
   15      O      -4.9811215760     0.4376705747     1.0113907023
   16      O       4.4045357190     1.1570627363     1.2598649066
   17      O       1.9330738203     1.9562591101     0.0714546671
   18      C       4.7160769507     2.4912898257     1.8171744610
   19      C       1.9136788250    -1.4369807421    -0.1219761807
   20      C       2.4040039156    -2.7898400205    -0.7735700645
   21      C       3.9507612190    -2.7232274931    -0.4905513902
   22      C       4.0603181345    -1.3531575318     0.2916594538
   23      O       2.7932092067    -1.2860404181     1.0552062136
   24      H       2.1890130010    -0.4934825802    -2.1419915764
   25      H       4.5173250857    -0.3503882234    -1.6643451565
   26      H       0.8342562534    -1.3886190424     0.1692624198
   27      H       1.9388610909    -3.6500496116    -0.2653364487
   28      H       2.1702039712    -2.8483597036    -1.8487704397
   29      H       4.2825683734    -3.5588381786     0.1458455986
   30      H       4.5527829796    -2.7217378058    -1.4132383101
   31      H       4.9290769552    -1.2640525788     0.9710311285
   32      O      -4.1954011744     1.0798584994    -2.1482772041
   33      C      -5.3489394863     1.6612522604     1.7601781867
   34      C      -1.9440210573    -1.8985832474     0.9202073776
   35      C      -1.7592142501    -3.2435242117     0.1202881818
   36      C      -1.3869969861    -2.7102030947    -1.3167891107
   37      C      -1.4404778200    -1.1524119880    -1.0974025965
   38      O      -0.9305854989    -1.0067643644     0.2958328018
   39      H      -4.1340888297    -1.9541893743     0.4657921578
   40      H      -3.5604573642    -1.2881794442    -1.7108840502
   41      H      -4.6646769787     2.4951986360     1.5006469388
   42      H      -1.7788565529    -1.9535277223     2.0138753533
   43      H      -0.9389475159    -3.8380680837     0.5532280878
   44      H      -2.6777129190    -3.8515704806     0.1238306659
   45      H      -0.3736178789    -3.0240017613    -1.6124303451
   46      H      -2.0989965714    -3.0412794072    -2.0894078405
   47      H      -0.8059790817    -0.5221033618    -1.7565010614
   48      H      -5.3174964136     1.4960635399     2.8561315663
   49      H      -6.3781803857     1.9148857791     1.4469687232
   50      H       4.7636959273     2.3610804648     2.9139365957
   51      H       3.9219167843     3.2229117337     1.5633544400
   52      H       5.6870156821     2.8773325397     1.4441019979
   53      H      -1.0271925939     2.5847243934    -1.9440577491
   54      H       0.1724885705     3.0341706995    -0.6552649216
   55      H      -1.2360179708     0.7035341983     0.3815060518
   56      H      -1.4462367445     2.4285180189     0.9326919535
 ----------------------------------------------------------------

    9   -1510.2898974480      2.01E-09 Convergence criterion met
 Total energy in the final basis set = -1510.28989745
 Final energy is   -1510.28989744799
 **  OPTIMIZATION CONVERGED  **

                    Orbital Energies (a.u.)
 --------------------------------------------------------------

 Alpha MOs
 -- Occupied --
-18.939 -18.938 -18.933 -18.923 -18.920 -18.884 -18.883 -18.879
-18.879 -18.854 -10.107 -10.104 -10.102 -10.086 -10.082 -10.074
-10.066 -10.064 -10.052 -10.051 -10.051 -10.050 -10.047 -10.041
-10.038 -10.036 -10.034 -10.029 -10.016 -10.015  -1.020  -1.017
 -1.004  -1.000  -0.995  -0.962  -0.943  -0.943  -0.934  -0.920
 -0.780  -0.757  -0.737  -0.721  -0.720  -0.706  -0.691  -0.666
 -0.648  -0.613  -0.607  -0.580  -0.565  -0.556  -0.538  -0.532
 -0.523  -0.506  -0.488  -0.479  -0.475  -0.455  -0.451  -0.449
 -0.442  -0.429  -0.424  -0.418  -0.414  -0.410  -0.402  -0.399
 -0.387  -0.384  -0.377  -0.371  -0.367  -0.360  -0.357  -0.353
 -0.349  -0.346  -0.342  -0.333  -0.329  -0.327  -0.324  -0.320
 -0.315  -0.311  -0.305  -0.300  -0.297  -0.293  -0.286  -0.274
 -0.272  -0.261  -0.258  -0.252  -0.239  -0.235  -0.225  -0.192
 -0.182  -0.178  -0.163  -0.161  -0.160  -0.158  -0.148  -0.139
 -0.134

          Ground-State Mulliken Net Atomic Charges

     Atom                 Charge (a.u.)
  ----------------------------------------
      1 O                    -0.210746
      2 C                     0.209399
      3 C                    -0.081471
      4 C                    -0.086123
      5 C                     0.207224
      6 O                    -0.182135
      7 C                    -0.075989
      8 C                    -0.060632
      9 O                    -0.179407
     10 C                     0.214762
     11 C                    -0.081625
     12 C                    -0.080576
     13 C                     0.212284
     14 O                    -0.223180
     15 O                    -0.169113
     16 O                    -0.166589
     17 O                    -0.206478
     18 C                    -0.126625
     19 C                     0.005182
     20 C                    -0.145953
     21 C                    -0.144924
     22 C                     0.026295
     23 O                    -0.189493
     24 H                     0.082184
     25 H                     0.081336
     26 H                     0.104081
     27 H                     0.071946
     28 H                     0.067982
     29 H                     0.075679
     30 H                     0.071523
     31 H                     0.086728
     32 O                    -0.196355
     33 C                    -0.128417
     34 C                     0.026903
     35 C                    -0.143476
     36 C                    -0.144076
     37 C                     0.014365
     38 O                    -0.182119
     39 H                     0.090470
     40 H                     0.090407
     41 H                     0.095538
     42 H                     0.097901
     43 H                     0.082868
     44 H                     0.079307
     45 H                     0.082645
     46 H                     0.079677
     47 H                     0.107005
     48 H                     0.090434
     49 H                     0.092980
     50 H                     0.087732
     51 H                     0.092736
     52 H                     0.085429
     53 H                     0.090983
     54 H                     0.100028
     55 H                     0.113713
     56 H                     0.087772
  ----------------------------------------
  Sum of atomic charges =     0.000000

                    Cartesian Multipole Moments
 -----------------------------------------------------------------
    Charge (ESU x 10^10)
                 0.0000
    Dipole Moment (Debye)
         X      -0.9065      Y      -3.5214      Z      -0.1456
       Tot       3.6391
    Quadrupole Moments (Debye-Ang)
        XX    -162.9010     XY       0.5834     YY    -153.6323
        XZ      -7.2897     YZ       7.8974     ZZ    -164.0312

 Total job time:  101.31s(wall), 4833.55s(cpu)
        *  Thank you very much for using Q-Chem.  Have a nice day.  *
