 Q-Chem 5.0, Q-Chem, Inc., Pleasanton, CA (2017)
 Q-Chem 5.0.1 for Intel X86 EM64T Linux

User input:
--------------------------------------------------------------
$molecule
0  1
O -3.94934 -3.66094 2.70899
C -3.26408 -4.56952 2.26188
C -3.36658 -6.02376 2.66595
C -2.57813 -6.46456 3.91009
C -1.91791 -5.36653 4.71416
O -1.62819 -5.82061 5.96927
C -0.38111 -5.32932 6.47193
C -0.06466 -3.97055 5.85572
O -0.70532 -2.92982 6.61025
C -0.24614 -2.75926 7.87484
C 1.26132 -2.71182 7.95203
C 1.89481 -3.75394 8.88529
C 0.99172 -4.8931 9.31357
O 0.46765 -5.00758 10.41212
O -2.28726 -4.27301 1.36529
O 1.26328 -6.0611 8.66488
O -0.98737 -2.5007 8.81072
C 0.79396 -7.304 9.04222
C 2.42013 -2.61369 6.90281
C 3.642 -1.87469 7.4718
C 4.21939 -2.9379 8.38754
C 3.21968 -4.07611 8.16739
O 2.9121 -3.93846 6.80848
H 1.33992 -1.70874 8.4294
H 2.13849 -3.27824 9.86351
H 2.10753 -2.10884 5.96185
H 4.36515 -1.7006 6.64326
H 3.40633 -0.90318 7.95678
H 5.20997 -3.24971 7.98638
H 4.33124 -2.63842 9.45193
H 3.65858 -5.04663 8.48429
O -2.29346 -4.20937 4.5884
C -2.01762 -3.00221 0.90244
C -4.80489 -6.38603 3.08648
C -5.03235 -7.88887 2.93935
C -4.20487 -8.40846 4.09244
C -3.74548 -7.08818 4.72127
O -4.81209 -6.20662 4.47861
H -3.11121 -6.62415 1.76346
H -1.79269 -7.21939 3.68566
H -1.73027 -2.34033 1.74739
H -5.58136 -5.8286 2.51723
H -6.10689 -8.08422 3.15752
H -4.77752 -8.30949 1.94284
H -4.88044 -8.9536 4.78904
H -3.34746 -9.05722 3.81075
H -3.50602 -7.26741 5.79096
H -2.90836 -2.58604 0.38494
H -1.17508 -3.0487 0.18243
H 1.16513 -8.06471 8.32541
H -0.31684 -7.3142 9.03198
H 1.16257 -7.56109 10.0581
H 0.97851 -3.95138 5.79334
H -0.12008 -3.79494 4.76289
H 0.39762 -6.07639 6.20112
H -0.54076 -5.25771 7.54112
$end

$opt
CONSTRAINT
tors           1           2           3           4     -85.263
tors           3           4           5           6    +161.053
tors           4           5           6           7    +142.105
tors           5           6           7           8     +28.421
tors           6           7           8           9     +85.263
tors           7           8           9          10     +66.316
tors           8           9          10          11     +47.368
tors           9          10          11          12    -123.158
tors          11          12          13          14    -104.211
ENDCONSTRAINT
$end

$rem
JOBTYPE                   OPT
METHOD                    B3LYP
DFT_D                     d3_op
BASIS                     STO-3G
GEOM_OPT_MAX_CYCLES       100
GEOM_OPT_TOL_GRADIENT     300
GEOM_OPT_TOL_DISPLACEMENT 1200
GEOM_OPT_TOL_ENERGY       100
SYMMETRY                  False
THRESH                    12
SCF_CONVERGENCE           8
MAX_SUB_FILE_NUM          128
MEM_STATIC                400
MEM_TOTAL                 4000
$end
--------------------------------------------------------------

   16   -1510.0374592034      3.52E-09 Convergence criterion met
 Total energy in the final basis set = -1510.03745920
   14   -1510.1217018151      9.23E-09 Convergence criterion met
 Total energy in the final basis set = -1510.12170182
   15   -1510.1710393223      1.96E-09 Convergence criterion met
 Total energy in the final basis set = -1510.17103932
   14   -1510.2025949154      1.67E-09 Convergence criterion met
 Total energy in the final basis set = -1510.20259492
   14   -1510.2201172599      4.90E-09 Convergence criterion met
 Total energy in the final basis set = -1510.22011726
   14   -1510.2309538410      3.33E-09 Convergence criterion met
 Total energy in the final basis set = -1510.23095384
   13   -1510.2381924513      7.59E-09 Convergence criterion met
 Total energy in the final basis set = -1510.23819245
   13   -1510.2433145925      6.50E-09 Convergence criterion met
   12   -1510.2524387037      7.67E-09 Convergence criterion met
 Total energy in the final basis set = -1510.25243870
   11   -1510.2524933301      8.71E-09 Convergence criterion met
 Total energy in the final basis set = -1510.25249333
   11   -1510.2525610890      5.72E-09 Convergence criterion met
 Total energy in the final basis set = -1510.25256109
   11   -1510.2526089588      4.80E-09 Convergence criterion met
 Total energy in the final basis set = -1510.25260896
   11   -1510.2526300284      2.84E-09 Convergence criterion met
 Total energy in the final basis set = -1510.25263003
   11   -1510.2526351989      3.45E-09 Convergence criterion met
 Total energy in the final basis set = -1510.25263520

             Standard Nuclear Orientation (Angstroms)
    I     Atom           X                Y                Z
 ----------------------------------------------------------------
    1      O      -4.3105332253     1.2586956243     1.6335116816
    2      C      -4.3720243585     1.3552813588     0.3896153739
    3      C      -4.4971013209     0.1892303633    -0.6581583751
    4      C      -3.1116804422    -0.4537719039    -1.0771158966
    5      C      -1.8674276222     0.2116754840    -0.3777126722
    6      O      -0.7711343304    -0.6915646462    -0.4683003860
    7      C       0.5756540976    -0.1058283070    -0.7090343055
    8      C       0.8982976849     1.3515632784    -0.2090430451
    9      O       1.3437232803     1.4028844870     1.2010524519
   10      C       2.5969919195     0.8008217395     1.5548384576
   11      C       3.9747698829     1.0066132361     0.7666057881
   12      C       4.5813275621    -0.3869625031     0.2887597142
   13      C       3.8879246966    -1.6538702919     0.8917592199
   14      O       4.3451508146    -2.3789340440     1.8000826951
   15      O      -4.4266659416     2.5983592301    -0.3267465915
   16      O       2.6250884099    -1.9068866020     0.2524898512
   17      O       2.6360208794     0.2021546463     2.6567543959
   18      C       1.9504650058    -3.0607991583     0.8927355205
   19      C       3.9838310936     1.7871332858    -0.6048935817
   20      C       5.4800092085     1.9996770886    -1.0800486958
   21      C       5.8220374088     0.5935898261    -1.6993462237
   22      C       4.5311062468    -0.2153229524    -1.2958971518
   23      O       3.4526757885     0.7685850572    -1.5471490905
   24      H       4.6528151338     1.4795797481     1.5007737041
   25      H       5.6331000942    -0.4562000398     0.6188788607
   26      H       3.3746383774     2.7097191341    -0.6202202963
   27      H       5.5350263521     2.8018061848    -1.8327962172
   28      H       6.1416987512     2.2618800407    -0.2386619076
   29      H       5.9106987586     0.6490017501    -2.7962945729
   30      H       6.7450822152     0.1544617310    -1.2885476968
   31      H       4.3437602776    -1.1474051472    -1.8636534301
   32      O      -1.8614040319     1.3653547670     0.1160123322
   33      C      -4.2196462155     3.7218082540     0.6135488809
   34      C      -5.2275426890    -1.0747008266    -0.0328079020
   35      C      -5.6921179915    -2.0155323498    -1.2147814051
   36      C      -4.3198102566    -2.6485682938    -1.6552993423
   37      C      -3.3270392890    -1.9628356577    -0.6354817360
   38      O      -4.1277729092    -1.8370837048     0.6026512407
   39      H      -5.0329911003     0.5779860377    -1.5416315361
   40      H      -2.9455593376    -0.3753734681    -2.1680209526
   41      H      -3.2197959366     3.6645837915     1.0905783310
   42      H      -6.0069131549    -0.8299999359     0.7144067724
   43      H      -6.3900721841    -2.7835398605    -0.8450494177
   44      H      -6.1814650892    -1.4526401802    -2.0256249339
   45      H      -4.3162261019    -3.7419040760    -1.5205056461
   46      H      -4.0614806330    -2.4211306652    -2.7019838916
   47      H      -2.3839078588    -2.5094851629    -0.4423464658
   48      H      -4.9907421012     3.7379162140     1.4110234997
   49      H      -4.2912190805     4.6456327354     0.0104170788
   50      H       0.9865892887    -3.1796792495     0.3646209615
   51      H       1.7648534065    -2.8691426653     1.9691133440
   52      H       2.5523639036    -3.9861809523     0.7915362264
   53      H       1.6321521949     1.7741702847    -0.9171206071
   54      H      -0.0400360433     1.9454667685    -0.2102730735
   55      H       0.7145548179    -0.0950198837    -1.8138932835
   56      H       1.3261683658    -0.8203668183    -0.2869429544
 ----------------------------------------------------------------

    9   -1510.2526358145      6.62E-09 Convergence criterion met
 Total energy in the final basis set = -1510.25263581
 Final energy is   -1510.25263581451
 **  OPTIMIZATION CONVERGED  **

                    Orbital Energies (a.u.)
 --------------------------------------------------------------

 Alpha MOs
 -- Occupied --
-18.951 -18.927 -18.920 -18.916 -18.900 -18.889 -18.887 -18.883
-18.875 -18.855 -10.111 -10.107 -10.100 -10.084 -10.072 -10.071
-10.070 -10.058 -10.055 -10.053 -10.053 -10.050 -10.046 -10.045
-10.035 -10.031 -10.030 -10.028 -10.017 -10.016  -1.023  -1.010
 -1.000  -0.992  -0.983  -0.965  -0.947  -0.941  -0.930  -0.919
 -0.772  -0.758  -0.730  -0.720  -0.716  -0.708  -0.693  -0.668
 -0.650  -0.614  -0.603  -0.583  -0.558  -0.548  -0.541  -0.534
 -0.525  -0.509  -0.486  -0.478  -0.462  -0.453  -0.450  -0.445
 -0.440  -0.428  -0.420  -0.417  -0.414  -0.412  -0.402  -0.400
 -0.397  -0.383  -0.381  -0.367  -0.363  -0.358  -0.354  -0.346
 -0.346  -0.341  -0.338  -0.330  -0.326  -0.325  -0.321  -0.320
 -0.317  -0.310  -0.304  -0.301  -0.295  -0.294  -0.283  -0.275
 -0.270  -0.262  -0.249  -0.243  -0.239  -0.229  -0.227  -0.192
 -0.177  -0.168  -0.162  -0.159  -0.155  -0.153  -0.143  -0.139
 -0.135

          Ground-State Mulliken Net Atomic Charges

     Atom                 Charge (a.u.)
  ----------------------------------------
      1 O                    -0.215849
      2 C                     0.213151
      3 C                    -0.082187
      4 C                    -0.077320
      5 C                     0.221704
      6 O                    -0.181588
      7 C                    -0.069527
      8 C                    -0.063263
      9 O                    -0.175647
     10 C                     0.205221
     11 C                    -0.079459
     12 C                    -0.082552
     13 C                     0.213987
     14 O                    -0.199316
     15 O                    -0.174373
     16 O                    -0.172374
     17 O                    -0.198750
     18 C                    -0.127639
     19 C                     0.018423
     20 C                    -0.144461
     21 C                    -0.141531
     22 C                     0.024626
     23 O                    -0.196456
     24 H                     0.089419
     25 H                     0.087860
     26 H                     0.084116
     27 H                     0.079543
     28 H                     0.076217
     29 H                     0.079401
     30 H                     0.076515
     31 H                     0.086482
     32 O                    -0.202194
     33 C                    -0.128487
     34 C                     0.025606
     35 C                    -0.144136
     36 C                    -0.144218
     37 C                     0.024105
     38 O                    -0.187770
     39 H                     0.082763
     40 H                     0.082719
     41 H                     0.092756
     42 H                     0.085589
     43 H                     0.077210
     44 H                     0.072544
     45 H                     0.076923
     46 H                     0.071713
     47 H                     0.088373
     48 H                     0.086050
     49 H                     0.084940
     50 H                     0.096527
     51 H                     0.099984
     52 H                     0.091686
     53 H                     0.089949
     54 H                     0.111527
     55 H                     0.077320
     56 H                     0.114153
  ----------------------------------------
  Sum of atomic charges =     0.000000

                    Cartesian Multipole Moments
 -----------------------------------------------------------------
    Charge (ESU x 10^10)
                 0.0000
    Dipole Moment (Debye)
         X       2.1828      Y       0.3433      Z      -5.2063
       Tot       5.6558
    Quadrupole Moments (Debye-Ang)
        XX    -143.5362     XY       7.0497     YY    -151.9310
        XZ       0.4338     YZ       3.8340     ZZ    -170.4587

 Total job time:  72.85s(wall), 3065.20s(cpu)
        *  Thank you very much for using Q-Chem.  Have a nice day.  *
