 Q-Chem 5.0, Q-Chem, Inc., Pleasanton, CA (2017)
 Q-Chem 5.0.1 for Intel X86 EM64T Linux

User input:
--------------------------------------------------------------
$molecule
0  1
O -4.3105332253 1.2586956243 1.6335116816
C -4.3720243585 1.3552813588 0.3896153739
C -4.4971013209 0.1892303633 -0.6581583751
C -3.1116804422 -0.4537719039 -1.0771158966
C -1.8674276222 0.211675484 -0.3777126722
O -0.7711343304 -0.6915646462 -0.468300386
C 0.5756540976 -0.105828307 -0.7090343055
C 0.8982976849 1.3515632784 -0.2090430451
O 1.3437232803 1.402884487 1.2010524519
C 2.5969919195 0.8008217395 1.5548384576
C 3.9747698829 1.0066132361 0.7666057881
C 4.5813275621 -0.3869625031 0.2887597142
C 3.8879246966 -1.6538702919 0.8917592199
O 4.3451508146 -2.378934044 1.8000826951
O -4.4266659416 2.5983592301 -0.3267465915
O 2.6250884099 -1.906886602 0.2524898512
O 2.6360208794 0.2021546463 2.6567543959
C 1.9504650058 -3.0607991583 0.8927355205
C 3.9838310936 1.7871332858 -0.6048935817
C 5.4800092085 1.9996770886 -1.0800486958
C 5.8220374088 0.5935898261 -1.6993462237
C 4.5311062468 -0.2153229524 -1.2958971518
O 3.4526757885 0.7685850572 -1.5471490905
H 4.6528151338 1.4795797481 1.5007737041
H 5.6331000942 -0.4562000398 0.6188788607
H 3.3746383774 2.7097191341 -0.6202202963
H 5.5350263521 2.8018061848 -1.8327962172
H 6.1416987512 2.2618800407 -0.2386619076
H 5.9106987586 0.6490017501 -2.7962945729
H 6.7450822152 0.154461731 -1.2885476968
H 4.3437602776 -1.1474051472 -1.8636534301
O -1.8614040319 1.365354767 0.1160123322
C -4.2196462155 3.721808254 0.6135488809
C -5.227542689 -1.0747008266 -0.032807902
C -5.6921179915 -2.0155323498 -1.2147814051
C -4.3198102566 -2.6485682938 -1.6552993423
C -3.327039289 -1.9628356577 -0.635481736
O -4.1277729092 -1.8370837048 0.6026512407
H -5.0329911003 0.5779860377 -1.5416315361
H -2.9455593376 -0.3753734681 -2.1680209526
H -3.2197959366 3.6645837915 1.090578331
H -6.0069131549 -0.8299999359 0.7144067724
H -6.3900721841 -2.7835398605 -0.8450494177
H -6.1814650892 -1.4526401802 -2.0256249339
H -4.3162261019 -3.741904076 -1.5205056461
H -4.061480633 -2.4211306652 -2.7019838916
H -2.3839078588 -2.5094851629 -0.4423464658
H -4.9907421012 3.737916214 1.4110234997
H -4.2912190805 4.6456327354 0.0104170788
H 0.9865892887 -3.1796792495 0.3646209615
H 1.7648534065 -2.8691426653 1.969113344
H 2.5523639036 -3.9861809523 0.7915362264
H 1.6321521949 1.7741702847 -0.9171206071
H -0.0400360433 1.9454667685 -0.2102730735
H 0.7145548179 -0.0950198837 -1.8138932835
H 1.3261683658 -0.8203668183 -0.2869429544
$end

$rem
JOBTYPE                   OPT
METHOD                    B3LYP
DFT_D                     d3_op
BASIS                     STO-3G
GEOM_OPT_MAX_CYCLES       100
GEOM_OPT_TOL_GRADIENT     300
GEOM_OPT_TOL_DISPLACEMENT 1200
GEOM_OPT_TOL_ENERGY       100
SYMMETRY                  False
THRESH                    12
SCF_CONVERGENCE           8
MAX_SUB_FILE_NUM          128
MEM_STATIC                400
MEM_TOTAL                 4000
$end
--------------------------------------------------------------

   16   -1510.2526105492      3.07E-09 Convergence criterion met
 Total energy in the final basis set = -1510.25261055
   14   -1510.2563268754      7.88E-09 Convergence criterion met
 Total energy in the final basis set = -1510.25632688
   15   -1510.2592496077      3.07E-09 Convergence criterion met
 Total energy in the final basis set = -1510.25924961
   15   -1510.2611762139      3.95E-09 Convergence criterion met
 Total energy in the final basis set = -1510.26117621
   14   -1510.2640142364      5.65E-09 Convergence criterion met
 Total energy in the final basis set = -1510.26401424
   13   -1510.2659383808      9.87E-09 Convergence criterion met
 Total energy in the final basis set = -1510.26593838
   13   -1510.2673254701      8.54E-09 Convergence criterion met
 Total energy in the final basis set = -1510.26732547
   13   -1510.2685150385      7.97E-09 Convergence criterion met
   11   -1510.2737238405      6.68E-09 Convergence criterion met
 Total energy in the final basis set = -1510.27372384
   13   -1510.2737748889      2.25E-09 Convergence criterion met
 Total energy in the final basis set = -1510.27377489
   11   -1510.2737922508      8.26E-09 Convergence criterion met
 Total energy in the final basis set = -1510.27379225
   11   -1510.2737965483      5.76E-09 Convergence criterion met
 Total energy in the final basis set = -1510.27379655
   11   -1510.2737987602      2.80E-09 Convergence criterion met
 Total energy in the final basis set = -1510.27379876
    9   -1510.2738041531      4.93E-09 Convergence criterion met
 Total energy in the final basis set = -1510.27380415

             Standard Nuclear Orientation (Angstroms)
    I     Atom           X                Y                Z
 ----------------------------------------------------------------
    1      O      -4.7566162851     2.1433292435     0.6291965504
    2      C      -4.4230605596     1.5191624015    -0.3996720057
    3      C      -4.2218671469    -0.0355178632    -0.5548794100
    4      C      -2.7117668409    -0.4938310893    -0.6616028037
    5      C      -1.6978540555     0.6886222086    -0.5255319486
    6      O      -0.3866270463     0.1830099262    -0.7697183662
    7      C       0.6400962211     1.2270664854    -0.5394218727
    8      C       0.8660411332     1.4697445308     0.9990191201
    9      O       1.1774948184     0.2466637924     1.7620820312
   10      C       2.4117654521    -0.4516660422     1.5633122675
   11      C       3.7431828269     0.0657148718     0.8266999871
   12      C       4.1994736038    -1.0240481004    -0.2464677967
   13      C       3.1606563375    -2.1759462828    -0.4663163337
   14      O       3.3718497956    -3.4066799221    -0.4601601708
   15      O      -4.3024008283     2.1053631825    -1.7058181712
   16      O       1.8936313408    -1.5662731674    -0.7268810352
   17      O       2.4718629564    -1.5716754582     2.1259097566
   18      C       0.8355054221    -2.5884379249    -0.8770646558
   19      C       3.8459515530     1.3805351740    -0.0531995871
   20      C       5.3758952761     1.6918058233    -0.3117228380
   21      C       5.7289784922     0.6485256029    -1.4351087139
   22      C       4.3668777383    -0.1314937815    -1.5503185654
   23      O       3.3580380337     0.9444161287    -1.3849991246
   24      H       4.4910571547     0.1132465035     1.6407443888
   25      H       5.1587389518    -1.4893890989     0.0384259658
   26      H       3.2773326285     2.2561240857     0.3012360341
   27      H       5.4970373045     2.7268434877    -0.6686631225
   28      H       5.9835302525     1.5604691515     0.5978785777
   29      H       5.9697239738     1.1477660935    -2.3873137046
   30      H       6.5648082182    -0.0138636829    -1.1594818961
   31      H       4.2020140436    -0.6678706599    -2.5048729918
   32      O      -1.9556954515     1.8779095330    -0.2292576058
   33      C      -4.4306702668     3.5752890691    -1.6055294852
   34      C      -4.6802389642    -0.8101681486     0.7497455117
   35      C      -4.8687254952    -2.3348640259     0.3839444774
   36      C      -3.3715039185    -2.8041694776     0.2578141188
   37      C      -2.6034131631    -1.4667668615     0.5967154706
   38      O      -3.4663059449    -0.8078999416     1.6001881349
   39      H      -4.7864659592    -0.3636434768    -1.4458438035
   40      H      -2.5080022858    -1.0313277588    -1.6051065448
   41      H      -3.6007347882     4.0097316639    -1.0112057655
   42      H      -5.5245295360    -0.3347891417     1.2855671485
   43      H      -5.3895996864    -2.8648765697     1.1972528647
   44      H      -5.4384661573    -2.4710144109    -0.5492891591
   45      H      -3.1275561266    -3.5839649944     0.9967017394
   46      H      -3.1242696187    -3.1812662962    -0.7476021875
   47      H      -1.5747787014    -1.5923776215     0.9879996737
   48      H      -5.3919125289     3.8730438330    -1.1388227574
   49      H      -4.3858961176     3.9603921353    -2.6409908823
   50      H      -0.0839256077    -2.0065009156    -1.0714244897
   51      H       0.7185397264    -3.1852442015     0.0505315970
   52      H       1.0473196050    -3.2753298103    -1.7214795483
   53      H       1.6191524438     2.2694885940     1.1514222322
   54      H      -0.0879864137     1.8200006245     1.4461397500
   55      H       0.3198888723     2.1908153443    -0.9908553920
   56      H       1.5841076093     0.8701698886    -1.0244497093
 ----------------------------------------------------------------

    9   -1510.2737986125      5.42E-09 Convergence criterion met
 Total energy in the final basis set = -1510.27379861
 Final energy is   -1510.27379861249
 **  OPTIMIZATION CONVERGED  **

                    Orbital Energies (a.u.)
 --------------------------------------------------------------

 Alpha MOs
 -- Occupied --
-18.937 -18.934 -18.933 -18.916 -18.916 -18.884 -18.881 -18.878
-18.864 -18.858 -10.103 -10.102 -10.101 -10.087 -10.077 -10.076
-10.074 -10.058 -10.057 -10.056 -10.054 -10.052 -10.047 -10.043
-10.037 -10.034 -10.033 -10.030 -10.018 -10.017  -1.018  -1.013
 -1.002  -0.994  -0.991  -0.967  -0.941  -0.937  -0.931  -0.921
 -0.774  -0.760  -0.732  -0.723  -0.719  -0.710  -0.697  -0.659
 -0.652  -0.617  -0.604  -0.583  -0.560  -0.551  -0.542  -0.535
 -0.524  -0.506  -0.485  -0.482  -0.463  -0.454  -0.452  -0.450
 -0.437  -0.430  -0.424  -0.419  -0.413  -0.410  -0.407  -0.402
 -0.399  -0.386  -0.376  -0.368  -0.364  -0.359  -0.350  -0.348
 -0.345  -0.338  -0.335  -0.333  -0.329  -0.324  -0.322  -0.321
 -0.316  -0.310  -0.303  -0.301  -0.296  -0.291  -0.284  -0.274
 -0.269  -0.258  -0.256  -0.243  -0.241  -0.234  -0.230  -0.186
 -0.177  -0.170  -0.165  -0.161  -0.156  -0.153  -0.143  -0.141
 -0.138

          Ground-State Mulliken Net Atomic Charges

     Atom                 Charge (a.u.)
  ----------------------------------------
      1 O                    -0.216672
      2 C                     0.215833
      3 C                    -0.081395
      4 C                    -0.079286
      5 C                     0.214665
      6 O                    -0.171503
      7 C                    -0.069080
      8 C                    -0.050502
      9 O                    -0.167965
     10 C                     0.210717
     11 C                    -0.081068
     12 C                    -0.079976
     13 C                     0.212844
     14 O                    -0.207185
     15 O                    -0.177143
     16 O                    -0.173003
     17 O                    -0.211363
     18 C                    -0.130773
     19 C                     0.020721
     20 C                    -0.143330
     21 C                    -0.142375
     22 C                     0.027045
     23 O                    -0.186980
     24 H                     0.087120
     25 H                     0.088118
     26 H                     0.082911
     27 H                     0.080387
     28 H                     0.077283
     29 H                     0.080806
     30 H                     0.078679
     31 H                     0.087970
     32 O                    -0.211358
     33 C                    -0.128468
     34 C                     0.024954
     35 C                    -0.143981
     36 C                    -0.144115
     37 C                     0.023517
     38 O                    -0.187801
     39 H                     0.083042
     40 H                     0.084064
     41 H                     0.090635
     42 H                     0.088742
     43 H                     0.078101
     44 H                     0.072651
     45 H                     0.079017
     46 H                     0.071923
     47 H                     0.089566
     48 H                     0.086444
     49 H                     0.085093
     50 H                     0.100878
     51 H                     0.091125
     52 H                     0.085263
     53 H                     0.078037
     54 H                     0.099690
     55 H                     0.085387
     56 H                     0.122097
  ----------------------------------------
  Sum of atomic charges =     0.000000

                    Cartesian Multipole Moments
 -----------------------------------------------------------------
    Charge (ESU x 10^10)
                 0.0000
    Dipole Moment (Debye)
         X       2.4212      Y       1.4143      Z      -3.1710
       Tot       4.2329
    Quadrupole Moments (Debye-Ang)
        XX    -144.3503     XY      18.3459     YY    -161.4378
        XZ       5.2616     YZ       2.9359     ZZ    -165.9909

 Total job time:  110.13s(wall), 5251.52s(cpu)
        *  Thank you very much for using Q-Chem.  Have a nice day.  *
