 Q-Chem 5.0, Q-Chem, Inc., Pleasanton, CA (2017)
 Q-Chem 5.0.1 for Intel X86 EM64T Linux

User input:
--------------------------------------------------------------
$molecule
0  1
O -3.94934 -3.66094 2.70899
C -3.26408 -4.56952 2.26188
C -3.36658 -6.02376 2.66595
C -2.97353 -6.38153 4.10864
C -2.69204 -5.22192 5.03825
O -3.68403 -4.28933 4.93032
C -3.48734 -3.15668 5.78336
C -4.69176 -2.9744 6.70112
O -5.90574 -3.0611 5.93849
C -6.10379 -2.06291 5.04209
C -6.75147 -0.84322 5.65326
C -5.7784 0.14319 6.31539
C -4.31461 -0.0386 5.96758
O -3.50944 0.86507 5.79546
O -2.3841 -4.28913 1.26487
O -3.73959 -0.70848 7.0052
O -6.13507 -2.29259 3.84336
C -2.44809 -0.62932 7.54902
C -7.43861 0.08961 4.62862
C -8.5155 0.91643 5.32967
C -7.65811 1.84674 6.15959
C -6.26334 1.45274 5.65777
O -6.47177 1.06191 4.32369
H -7.53802 -1.21068 6.35167
H -5.89475 0.17574 7.42357
H -7.88463 -0.4469 3.76315
H -9.02792 1.51404 4.54171
H -9.27501 0.33808 5.89863
H -7.90342 2.89458 5.87702
H -7.74416 1.71815 7.26048
H -5.55786 2.29839 5.8125
O -1.66229 -5.12307 5.69492
C -2.17741 -3.02911 0.74343
C -4.81707 -6.53425 2.62358
C -4.83425 -8.05836 2.50064
C -4.4013 -8.45896 3.8963
C -4.2739 -7.08236 4.55537
O -5.28537 -6.32548 3.93273
H -2.74224 -6.60158 1.94664
H -2.10699 -7.07803 4.16594
H -1.81964 -2.34022 1.5384
H -5.41475 -6.07239 1.80717
H -5.89116 -8.3764 2.35382
H -4.20927 -8.46074 1.6745
H -5.23303 -9.02452 4.37279
H -3.46186 -9.05016 3.95307
H -4.34435 -7.17477 5.6619
H -3.1195 -2.63771 0.30324
H -1.40781 -3.08669 -0.05335
H -2.01507 -1.63165 7.69869
H -2.50992 -0.16003 8.55128
H -1.73415 -0.0498 6.92646
H -4.66806 -3.92253 7.2805
H -4.86325 -2.35465 7.59506
H -3.3519 -2.27842 5.12418
H -2.59159 -3.21762 6.42609
$end

$opt
CONSTRAINT
tors           1           2           3           4     -66.316
tors           3           4           5           6     +47.368
tors           4           5           6           7    -180.000
tors           5           6           7           8    -123.158
tors           6           7           8           9     -47.368
tors           7           8           9          10     -66.316
tors           8           9          10          11     -85.263
tors           9          10          11          12     +85.263
tors          11          12          13          14    +142.105
ENDCONSTRAINT
$end

$rem
JOBTYPE                   OPT
METHOD                    B3LYP
DFT_D                     d3_op
BASIS                     STO-3G
GEOM_OPT_MAX_CYCLES       100
GEOM_OPT_TOL_GRADIENT     300
GEOM_OPT_TOL_DISPLACEMENT 1200
GEOM_OPT_TOL_ENERGY       100
SYMMETRY                  False
THRESH                    12
SCF_CONVERGENCE           8
MAX_SUB_FILE_NUM          128
MEM_STATIC                400
MEM_TOTAL                 4000
$end
--------------------------------------------------------------

   16   -1510.0156498920      4.63E-09 Convergence criterion met
 Total energy in the final basis set = -1510.01564989
   15   -1510.1027393950      2.46E-09 Convergence criterion met
 Total energy in the final basis set = -1510.10273940
   15   -1510.1525392849      2.29E-09 Convergence criterion met
 Total energy in the final basis set = -1510.15253928
   14   -1510.1878956302      5.90E-09 Convergence criterion met
 Total energy in the final basis set = -1510.18789563
   14   -1510.2083533419      7.03E-09 Convergence criterion met
 Total energy in the final basis set = -1510.20835334
   14   -1510.2213558734      4.31E-09 Convergence criterion met
 Total energy in the final basis set = -1510.22135587
   13   -1510.2303056193      6.02E-09 Convergence criterion met
 Total energy in the final basis set = -1510.23030562
   14   -1510.2364580799      2.24E-09 Convergence criterion met
   12   -1510.2507586157      5.83E-09 Convergence criterion met
 Total energy in the final basis set = -1510.25075862
   11   -1510.2507880203      5.67E-09 Convergence criterion met
 Total energy in the final basis set = -1510.25078802
   10   -1510.2507964365      9.50E-09 Convergence criterion met
 Total energy in the final basis set = -1510.25079644
   11   -1510.2508036173      2.68E-09 Convergence criterion met
 Total energy in the final basis set = -1510.25080362
    9   -1510.2508062541      9.88E-09 Convergence criterion met
 Total energy in the final basis set = -1510.25080625
   10   -1510.2508083627      7.14E-09 Convergence criterion met
 Total energy in the final basis set = -1510.25080836

             Standard Nuclear Orientation (Angstroms)
    I     Atom           X                Y                Z
 ----------------------------------------------------------------
    1      O       1.5206348475    -0.3928041245     1.6326394080
    2      C       2.7692699060    -0.4521193146     1.6596380422
    3      C       3.8413314372    -0.0022443017     0.6007871415
    4      C       3.8935208890    -0.7839534659    -0.7891197576
    5      C       2.6538890136    -1.6908962567    -1.0956495042
    6      O       1.4978427355    -0.9148528052    -0.8249526340
    7      C       0.2500201918    -1.6561558825    -1.0746102725
    8      C      -0.6705087513    -0.9162665116    -2.1054304244
    9      O      -0.8681242158     0.5155434073    -1.8684316641
   10      C      -1.5982473805     0.9256720443    -0.6724820802
   11      C      -3.1635550922     0.9269446552    -0.9043572930
   12      C      -3.9243241906    -0.4454472787    -0.6996325678
   13      C      -3.3556153408    -1.2931537112     0.5162542503
   14      O      -4.0275631683    -1.9779535916     1.3168877020
   15      O       3.4959786011    -0.9874990744     2.7785207394
   16      O      -1.9573204334    -1.0460545632     0.6784878311
   17      O      -1.0123995374     1.5437565671     0.2398358973
   18      C      -1.4659398731    -1.4653721672     2.0133272780
   19      C      -4.0463713882     1.9045395191    -0.0150482581
   20      C      -5.2071712910     2.4171729230    -0.9507511931
   21      C      -6.0072264567     1.0761491119    -1.1643584340
   22      C      -5.2980037044     0.1130052645    -0.1320172634
   23      O      -4.7774944270     1.0209027995     0.9259097977
   24      H      -3.2778584925     1.2116324233    -1.9669965482
   25      H      -4.0056554303    -1.0456963181    -1.6236447868
   26      H      -3.4749191190     2.6772457140     0.5351222953
   27      H      -5.8193765838     3.1689547522    -0.4267580383
   28      H      -4.8357400434     2.8515407586    -1.8927151223
   29      H      -7.0739944448     1.1922505823    -0.9166398264
   30      H      -5.9258921955     0.6980561827    -2.1964490825
   31      H      -5.9403415525    -0.6702029864     0.3152966530
   32      O       2.6509086222    -2.8703676609    -1.5171918992
   33      C       2.5518919650    -1.4400558530     3.8257896453
   34      C       3.6467660244     1.4991655544     0.0948226370
   35      C       5.0648862392     2.0309035727    -0.3510850705
   36      C       5.2806843865     1.2135696640    -1.6793420317
   37      C       3.9020409968     0.4485568575    -1.7987153503
   38      O       2.9233208997     1.3733185673    -1.1881165138
   39      H       4.8166246232    -0.1055016949     1.1090594944
   40      H       4.8061430117    -1.4001141912    -0.8709792639
   41      H       1.9167672539    -2.2767729880     3.4687654075
   42      H       3.0857608052     2.1531237572     0.7900892189
   43      H       5.0202890974     3.1138764733    -0.5491285750
   44      H       5.8455741211     1.8397096984     0.4022076830
   45      H       5.4292776473     1.8773562622    -2.5456896262
   46      H       6.1336613316     0.5190272462    -1.6170951897
   47      H       3.5975153170     0.1891694723    -2.8313563583
   48      H       1.8896509053    -0.6172354077     4.1643443717
   49      H       3.1748737972    -1.7865308765     4.6706426512
   50      H      -0.4178352101    -1.0980284725     2.0660260787
   51      H      -1.4919471900    -2.5688877097     2.1240313372
   52      H      -2.0754081616    -1.0104779953     2.8190615667
   53      H      -0.2125143484    -0.9614127702    -3.1161634241
   54      H      -1.6350916673    -1.4761849096    -2.1424334087
   55      H      -0.3091764288    -1.7244187287    -0.1231727348
   56      H       0.4939999146    -2.6736059801    -1.4531042821
 ----------------------------------------------------------------

    9   -1510.2508091623      3.88E-09 Convergence criterion met
 Total energy in the final basis set = -1510.25080916
 Final energy is   -1510.25080916228
 **  OPTIMIZATION CONVERGED  **

                    Orbital Energies (a.u.)
 --------------------------------------------------------------

 Alpha MOs
 -- Occupied --
-18.942 -18.934 -18.927 -18.887 -18.887 -18.883 -18.880 -18.880
-18.880 -18.865 -10.103 -10.100 -10.096 -10.092 -10.066 -10.066
-10.059 -10.058 -10.058 -10.057 -10.055 -10.050 -10.041 -10.036
-10.035 -10.028 -10.020 -10.018 -10.018 -10.017  -1.017  -1.013
 -1.005  -0.986  -0.968  -0.967  -0.940  -0.936  -0.930  -0.919
 -0.761  -0.759  -0.723  -0.721  -0.707  -0.700  -0.691  -0.664
 -0.661  -0.609  -0.597  -0.578  -0.545  -0.542  -0.536  -0.534
 -0.511  -0.505  -0.487  -0.475  -0.460  -0.451  -0.443  -0.439
 -0.432  -0.430  -0.427  -0.415  -0.410  -0.408  -0.404  -0.403
 -0.391  -0.383  -0.370  -0.369  -0.359  -0.355  -0.347  -0.341
 -0.340  -0.336  -0.331  -0.328  -0.325  -0.325  -0.318  -0.308
 -0.306  -0.305  -0.304  -0.300  -0.298  -0.288  -0.279  -0.274
 -0.272  -0.258  -0.247  -0.236  -0.232  -0.229  -0.213  -0.184
 -0.179  -0.168  -0.158  -0.151  -0.149  -0.144  -0.140  -0.139
 -0.136

          Ground-State Mulliken Net Atomic Charges

     Atom                 Charge (a.u.)
  ----------------------------------------
      1 O                    -0.204596
      2 C                     0.210376
      3 C                    -0.078287
      4 C                    -0.077577
      5 C                     0.204715
      6 O                    -0.159027
      7 C                    -0.063229
      8 C                    -0.037297
      9 O                    -0.197902
     10 C                     0.229808
     11 C                    -0.086869
     12 C                    -0.077763
     13 C                     0.212919
     14 O                    -0.207946
     15 O                    -0.170273
     16 O                    -0.172285
     17 O                    -0.183029
     18 C                    -0.135102
     19 C                     0.021419
     20 C                    -0.140687
     21 C                    -0.146142
     22 C                     0.023154
     23 O                    -0.192741
     24 H                     0.081682
     25 H                     0.082355
     26 H                     0.089985
     27 H                     0.077999
     28 H                     0.074182
     29 H                     0.078701
     30 H                     0.073147
     31 H                     0.089577
     32 O                    -0.222847
     33 C                    -0.129919
     34 C                     0.028088
     35 C                    -0.142914
     36 C                    -0.144891
     37 C                     0.027015
     38 O                    -0.177495
     39 H                     0.085517
     40 H                     0.083991
     41 H                     0.085722
     42 H                     0.087302
     43 H                     0.078177
     44 H                     0.073129
     45 H                     0.077938
     46 H                     0.073284
     47 H                     0.082512
     48 H                     0.089415
     49 H                     0.090854
     50 H                     0.115353
     51 H                     0.084469
     52 H                     0.092209
     53 H                     0.084440
     54 H                     0.068993
     55 H                     0.099564
     56 H                     0.090827
  ----------------------------------------
  Sum of atomic charges =     0.000000

                    Cartesian Multipole Moments
 -----------------------------------------------------------------
    Charge (ESU x 10^10)
                 0.0000
    Dipole Moment (Debye)
         X       0.7597      Y      -0.3152      Z      -0.4781
       Tot       0.9514
    Quadrupole Moments (Debye-Ang)
        XX    -146.3950     XY       1.4602     YY    -163.5521
        XZ      12.7326     YZ      -2.5723     ZZ    -152.4593

 Total job time:  126.44s(wall), 6028.55s(cpu)
        *  Thank you very much for using Q-Chem.  Have a nice day.  *
