 Q-Chem 5.0, Q-Chem, Inc., Pleasanton, CA (2017)
 Q-Chem 5.0.1 for Intel X86 EM64T Linux

User input:
--------------------------------------------------------------
$molecule
0  1
O 1.5206348475 -0.3928041245 1.632639408
C 2.769269906 -0.4521193146 1.6596380422
C 3.8413314372 -0.0022443017 0.6007871415
C 3.893520889 -0.7839534659 -0.7891197576
C 2.6538890136 -1.6908962567 -1.0956495042
O 1.4978427355 -0.9148528052 -0.824952634
C 0.2500201918 -1.6561558825 -1.0746102725
C -0.6705087513 -0.9162665116 -2.1054304244
O -0.8681242158 0.5155434073 -1.8684316641
C -1.5982473805 0.9256720443 -0.6724820802
C -3.1635550922 0.9269446552 -0.904357293
C -3.9243241906 -0.4454472787 -0.6996325678
C -3.3556153408 -1.2931537112 0.5162542503
O -4.0275631683 -1.9779535916 1.316887702
O 3.4959786011 -0.9874990744 2.7785207394
O -1.9573204334 -1.0460545632 0.6784878311
O -1.0123995374 1.5437565671 0.2398358973
C -1.4659398731 -1.4653721672 2.013327278
C -4.0463713882 1.9045395191 -0.0150482581
C -5.207171291 2.417172923 -0.9507511931
C -6.0072264567 1.0761491119 -1.164358434
C -5.2980037044 0.1130052645 -0.1320172634
O -4.777494427 1.0209027995 0.9259097977
H -3.2778584925 1.2116324233 -1.9669965482
H -4.0056554303 -1.0456963181 -1.6236447868
H -3.474919119 2.677245714 0.5351222953
H -5.8193765838 3.1689547522 -0.4267580383
H -4.8357400434 2.8515407586 -1.8927151223
H -7.0739944448 1.1922505823 -0.9166398264
H -5.9258921955 0.6980561827 -2.1964490825
H -5.9403415525 -0.6702029864 0.315296653
O 2.6509086222 -2.8703676609 -1.5171918992
C 2.551891965 -1.440055853 3.8257896453
C 3.6467660244 1.4991655544 0.094822637
C 5.0648862392 2.0309035727 -0.3510850705
C 5.2806843865 1.213569664 -1.6793420317
C 3.9020409968 0.4485568575 -1.7987153503
O 2.9233208997 1.3733185673 -1.1881165138
H 4.8166246232 -0.1055016949 1.1090594944
H 4.8061430117 -1.4001141912 -0.8709792639
H 1.9167672539 -2.276772988 3.4687654075
H 3.0857608052 2.1531237572 0.7900892189
H 5.0202890974 3.1138764733 -0.549128575
H 5.8455741211 1.8397096984 0.402207683
H 5.4292776473 1.8773562622 -2.5456896262
H 6.1336613316 0.5190272462 -1.6170951897
H 3.597515317 0.1891694723 -2.8313563583
H 1.8896509053 -0.6172354077 4.1643443717
H 3.1748737972 -1.7865308765 4.6706426512
H -0.4178352101 -1.0980284725 2.0660260787
H -1.49194719 -2.5688877097 2.1240313372
H -2.0754081616 -1.0104779953 2.8190615667
H -0.2125143484 -0.9614127702 -3.1161634241
H -1.6350916673 -1.4761849096 -2.1424334087
H -0.3091764288 -1.7244187287 -0.1231727348
H 0.4939999146 -2.6736059801 -1.4531042821
$end

$rem
JOBTYPE                   OPT
METHOD                    B3LYP
DFT_D                     d3_op
BASIS                     STO-3G
GEOM_OPT_MAX_CYCLES       100
GEOM_OPT_TOL_GRADIENT     300
GEOM_OPT_TOL_DISPLACEMENT 1200
GEOM_OPT_TOL_ENERGY       100
SYMMETRY                  False
THRESH                    12
SCF_CONVERGENCE           8
MAX_SUB_FILE_NUM          128
MEM_STATIC                400
MEM_TOTAL                 4000
$end
--------------------------------------------------------------

   16   -1510.2509124622      3.60E-09 Convergence criterion met
 Total energy in the final basis set = -1510.25091246
   15   -1510.2008569519      4.65E-09 Convergence criterion met
 Total energy in the final basis set = -1510.20085695
   14   -1510.2524038972      8.78E-09 Convergence criterion met
 Total energy in the final basis set = -1510.25240390
   15   -1510.2474390965      4.88E-09 Convergence criterion met
 Total energy in the final basis set = -1510.24743910
   14   -1510.2581560494      4.69E-09 Convergence criterion met
 Total energy in the final basis set = -1510.25815605
   15   -1510.2611898498      2.83E-09 Convergence criterion met
 Total energy in the final basis set = -1510.26118985
   13   -1510.2633411894      5.89E-09 Convergence criterion met
 Total energy in the final basis set = -1510.26334119
   13   -1510.2653078674      5.04E-09 Convergence criterion met
   10   -1510.2887579099      9.51E-09 Convergence criterion met
 Total energy in the final basis set = -1510.28875791
    9   -1510.2887584137      9.72E-09 Convergence criterion met
 Total energy in the final basis set = -1510.28875841
   10   -1510.2887587995      8.89E-09 Convergence criterion met
 Total energy in the final basis set = -1510.28875880
   11   -1510.2887560178      2.03E-09 Convergence criterion met
 Total energy in the final basis set = -1510.28875602
    9   -1510.2887563718      6.42E-09 Convergence criterion met
 Total energy in the final basis set = -1510.28875637
    9   -1510.2887563139      4.82E-09 Convergence criterion met
 Total energy in the final basis set = -1510.28875631

             Standard Nuclear Orientation (Angstroms)
    I     Atom           X                Y                Z
 ----------------------------------------------------------------
    1      O      -2.1855763475    -1.6969235258    -1.4184636291
    2      C      -2.5847315186    -1.3927901797    -0.2705827549
    3      C      -3.8931849111    -0.5917598472     0.0743667099
    4      C      -3.6651760544     0.6522598500     1.0325592046
    5      C      -2.1610757459     0.8705866443     1.3978577472
    6      O      -1.4078076161     0.8445453875     0.1786353243
    7      C       0.0446167430     0.9273214145     0.4583710158
    8      C       0.6422630008     2.2919776766    -0.0655765290
    9      O       1.3537355635     2.1542497049    -1.3551497402
   10      C       2.4801968496     1.2596345210    -1.3565642801
   11      C       3.1768638909     0.8236692344    -0.0029211131
   12      C       3.2868946157    -0.7565587809     0.1361661198
   13      C       2.6603892108    -1.5157649970    -1.0858290033
   14      O       3.2388839858    -2.2258856095    -1.9302659231
   15      O      -1.9800319605    -1.8164325337     0.9507298782
   16      O       1.2384747659    -1.2728714210    -1.0764980607
   17      O       2.9071804064     0.8952493232    -2.4759885466
   18      C       0.5987765849    -1.7110719912    -2.3422654245
   19      C       4.7202101435     1.2155029858    -0.0340985003
   20      C       5.2891937323     1.0855991622     1.4347346933
   21      C       5.3876208347    -0.4783301147     1.5853079348
   22      C       4.8566753487    -0.9534602638     0.1768754115
   23      O       5.3513966181     0.0882540015    -0.7534618513
   24      H       2.6825080302     1.2573800913     0.8784128223
   25      H       2.7949556540    -1.1044900852     1.0628922080
   26      H       4.9408415067     2.1733024535    -0.5439393006
   27      H       6.2800551220     1.5616742077     1.5061357630
   28      H       4.6225754745     1.5451757991     2.1820379777
   29      H       6.4293648154    -0.8044441312     1.7321520307
   30      H       4.7754581674    -0.8671294297     2.4148006951
   31      H       5.1919021534    -1.9553611255    -0.1548001066
   32      O      -1.6648150851     1.0401954755     2.5332172531
   33      C      -0.7821543025    -2.6547621879     0.6962070019
   34      C      -4.4874811044     0.1127619566    -1.2147079353
   35      C      -5.9884279179     0.5016907835    -0.9233346627
   36      C      -5.7986460270     1.7143020492     0.0619606112
   37      C      -4.2224388573     1.8258596909     0.1124785920
   38      O      -3.7946854595     1.4221129121    -1.2445468424
   39      H      -4.6164151318    -1.2989795049     0.5214370458
   40      H      -4.2368998065     0.5574255297     1.9721122470
   41      H       0.0233750057    -2.0950455944     0.1657553752
   42      H      -4.3004526907    -0.4451402709    -2.1530187014
   43      H      -6.4909739842     0.8133382664    -1.8527807951
   44      H      -6.5571359962    -0.3287776891    -0.4755111518
   45      H      -6.2373652312     2.6394981295    -0.3442214332
   46      H      -6.2316870335     1.5253676608     1.0572238105
   47      H      -3.8293139071     2.8306637522     0.3615981613
   48      H      -1.0447747820    -3.5524029980     0.1006953653
   49      H      -0.4259266320    -2.9703574746     1.6937870316
   50      H      -0.4948178874    -1.7425242059    -2.1254237282
   51      H       0.9718001185    -2.7093383509    -2.6428837665
   52      H       0.8237182012    -0.9826447755    -3.1468022505
   53      H      -0.1898952325     2.9934440465    -0.2839275722
   54      H       1.2871444937     2.7604427535     0.7090182786
   55      H       0.5237260579     0.0772948419    -0.0883430232
   56      H       0.1940157325     0.8355191077     1.5552179325
 ----------------------------------------------------------------

    9   -1510.2887556793      4.89E-09 Convergence criterion met
 Total energy in the final basis set = -1510.28875568
 Final energy is   -1510.28875567925
 **  OPTIMIZATION CONVERGED  **

                    Orbital Energies (a.u.)
 --------------------------------------------------------------

 Alpha MOs
 -- Occupied --
-18.945 -18.940 -18.933 -18.931 -18.893 -18.892 -18.890 -18.884
-18.879 -18.872 -10.110 -10.110 -10.102 -10.099 -10.075 -10.065
-10.064 -10.063 -10.060 -10.057 -10.054 -10.046 -10.044 -10.042
-10.042 -10.041 -10.025 -10.024 -10.023 -10.022  -1.021  -1.018
 -1.010  -1.003  -0.974  -0.972  -0.946  -0.942  -0.940  -0.933
 -0.768  -0.767  -0.729  -0.727  -0.711  -0.709  -0.699  -0.665
 -0.656  -0.616  -0.603  -0.589  -0.552  -0.549  -0.542  -0.540
 -0.515  -0.514  -0.489  -0.477  -0.469  -0.466  -0.460  -0.445
 -0.439  -0.434  -0.430  -0.425  -0.416  -0.414  -0.407  -0.398
 -0.397  -0.386  -0.384  -0.374  -0.364  -0.360  -0.356  -0.354
 -0.348  -0.344  -0.336  -0.335  -0.334  -0.327  -0.319  -0.313
 -0.311  -0.308  -0.305  -0.303  -0.297  -0.295  -0.291  -0.279
 -0.277  -0.264  -0.250  -0.248  -0.238  -0.236  -0.236  -0.193
 -0.183  -0.177  -0.166  -0.164  -0.160  -0.156  -0.150  -0.146
 -0.144

          Ground-State Mulliken Net Atomic Charges

     Atom                 Charge (a.u.)
  ----------------------------------------
      1 O                    -0.216844
      2 C                     0.224684
      3 C                    -0.077258
      4 C                    -0.078536
      5 C                     0.212164
      6 O                    -0.171398
      7 C                    -0.078182
      8 C                    -0.050559
      9 O                    -0.167834
     10 C                     0.203703
     11 C                    -0.084996
     12 C                    -0.079880
     13 C                     0.220076
     14 O                    -0.192353
     15 O                    -0.172521
     16 O                    -0.182472
     17 O                    -0.199995
     18 C                    -0.147235
     19 C                     0.026129
     20 C                    -0.144043
     21 C                    -0.144368
     22 C                     0.025602
     23 O                    -0.182273
     24 H                     0.077985
     25 H                     0.083119
     26 H                     0.085483
     27 H                     0.079652
     28 H                     0.072037
     29 H                     0.079802
     30 H                     0.072879
     31 H                     0.090819
     32 O                    -0.215952
     33 C                    -0.142951
     34 C                     0.024987
     35 C                    -0.143879
     36 C                    -0.143940
     37 C                     0.026094
     38 O                    -0.184842
     39 H                     0.084816
     40 H                     0.085930
     41 H                     0.103160
     42 H                     0.091537
     43 H                     0.079077
     44 H                     0.073341
     45 H                     0.078651
     46 H                     0.073878
     47 H                     0.081904
     48 H                     0.083487
     49 H                     0.085731
     50 H                     0.119581
     51 H                     0.088299
     52 H                     0.091515
     53 H                     0.097776
     54 H                     0.078108
     55 H                     0.110532
     56 H                     0.089771
  ----------------------------------------
  Sum of atomic charges =    -0.000000

                    Cartesian Multipole Moments
 -----------------------------------------------------------------
    Charge (ESU x 10^10)
                -0.0000
    Dipole Moment (Debye)
         X      -2.2440      Y      -0.2568      Z       4.3881
       Tot       4.9353
    Quadrupole Moments (Debye-Ang)
        XX    -151.0481     XY       3.1038     YY    -154.8752
        XZ      14.5384     YZ       1.2333     ZZ    -174.9140

 Total job time:  154.60s(wall), 7378.69s(cpu)
        *  Thank you very much for using Q-Chem.  Have a nice day.  *
