 Q-Chem 5.0, Q-Chem, Inc., Pleasanton, CA (2017)
 Q-Chem 5.0.1 for Intel X86 EM64T Linux

User input:
--------------------------------------------------------------
$molecule
0  1
O 0.1340401079 0.0922585737 -0.9448425238
C 0.0875147125 -1.2612514456 -0.4472527004
C -1.404986186 -1.5147203395 -0.1003355052
C -2.0371989356 -0.3438731109 0.7331166366
C -1.4355975872 1.0970400545 1.1771999156
O -2.3153806486 2.1516296355 0.6875592955
C -1.6484182281 3.3517142093 0.2125655562
C -0.7579027865 3.400878284 -1.0148494601
O -0.1449539211 2.0967050649 -1.2211576519
C 0.0818893963 1.2458774253 -0.0050281638
C 1.6176546243 1.2537193826 0.4169253874
C 2.1118932736 -0.1442409213 0.9315045654
C 1.00952199 -1.2621169275 1.0090631173
O -0.052341747 -0.9373653878 2.0726143654
O 0.5094506691 -2.2864292755 -1.392276637
O 1.7301998831 -2.4636292655 1.3574592078
O 0.2448871379 0.374551532 2.6603154602
C 0.8345974095 -3.6328655083 1.4071192269
C 2.577562804 1.5051432973 -0.8142179671
C 3.9894038618 1.9252981857 -0.2524662078
C 4.4822458837 0.5519963017 0.3523562318
C 3.3016699792 -0.4161297226 -0.0772506676
O 2.8517553814 0.1619586176 -1.3568345434
H 1.7979544774 2.0296600579 1.190099623
H 2.5379188046 -0.0511679739 1.946877746
H 2.1206164234 2.1513852321 -1.5847814187
H 4.6365251782 2.2627476804 -1.080280337
H 3.9214784508 2.7242385848 0.5032133625
H 5.4447404209 0.241263937 -0.0827419489
H 4.585104623 0.595189168 1.448451692
H 3.5666834858 -1.480673077 -0.1971737997
O -1.0105542679 1.1648468596 2.580650204
C 1.27862424 -1.7327311616 -2.5218280184
C -2.2976643642 -1.5171656414 -1.4259057556
C -3.6373857849 -2.297359577 -1.1477765369
C -4.303939092 -1.3287420263 -0.1036195433
C -3.3322866617 -0.0783447871 -0.1745054941
O -2.7749689077 -0.1222132668 -1.5458798678
H -1.5283484518 -2.4568157966 0.4574824808
H -2.3842918872 -0.7806363416 1.68668247
H 2.276708594 -2.2170209168 -2.5534628832
H -1.7506970524 -1.8314119673 -2.3353412707
H -4.2297412495 -2.3451310004 -2.0771436365
H -3.4909442402 -3.3224100467 -0.771708065
H -5.3223924036 -1.0437431817 -0.4080880539
H -4.3462364442 -1.7633851188 0.9094261075
H -3.8083104896 0.8988719286 0.0120475703
H 1.4284288761 -0.6413526336 -2.3902405358
H 0.7409586479 -1.9586795368 -3.4659612597
H 1.4819746739 -4.4971943657 1.6584303916
H 0.3462990211 -3.8104481963 0.4276163247
H 0.0556345508 -3.5307360247 2.1934945992
H -1.337247599 3.6014566755 -1.9424785171
H -0.0063016078 4.2225223689 -0.8790706183
H -1.0545947243 3.7669498068 1.0606702953
H -2.499496529 4.053044559 0.0532280034
$end

$rem
JOBTYPE                   OPT
METHOD                    B3LYP
DFT_D                     d3_op
BASIS                     STO-3G
GEOM_OPT_MAX_CYCLES       100
GEOM_OPT_TOL_GRADIENT     300
GEOM_OPT_TOL_DISPLACEMENT 1200
GEOM_OPT_TOL_ENERGY       100
SYMMETRY                  False
THRESH                    12
SCF_CONVERGENCE           8
MAX_SUB_FILE_NUM          128
MEM_STATIC                400
MEM_TOTAL                 4000
$end
--------------------------------------------------------------

   15   -1510.1508350487      3.20E-09 Convergence criterion met
 Total energy in the final basis set = -1510.15083505
   12   -1510.1812623593      6.50E-09 Convergence criterion met
 Total energy in the final basis set = -1510.18126236
   12   -1510.2052975594      7.52E-09 Convergence criterion met
 Total energy in the final basis set = -1510.20529756
   12   -1510.2249278688      5.56E-09 Convergence criterion met
 Total energy in the final basis set = -1510.22492787
   12   -1510.2395516081      4.08E-09 Convergence criterion met
 Total energy in the final basis set = -1510.23955161
   12   -1510.2498381700      3.35E-09 Convergence criterion met
 Total energy in the final basis set = -1510.24983817
   11   -1510.2569224522      8.38E-09 Convergence criterion met
 Total energy in the final basis set = -1510.25692245
   11   -1510.2608439697      8.33E-09 Convergence criterion met
   11   -1510.2675981980      3.17E-09 Convergence criterion met
 Total energy in the final basis set = -1510.26759820
   11   -1510.2677149926      3.34E-09 Convergence criterion met
 Total energy in the final basis set = -1510.26771499
   10   -1510.2677861596      6.00E-09 Convergence criterion met
 Total energy in the final basis set = -1510.26778616
   10   -1510.2678153783      5.84E-09 Convergence criterion met
 Total energy in the final basis set = -1510.26781538
    9   -1510.2678207878      5.01E-09 Convergence criterion met
 Total energy in the final basis set = -1510.26782079
    8   -1510.2678223774      6.71E-09 Convergence criterion met
 Total energy in the final basis set = -1510.26782238

             Standard Nuclear Orientation (Angstroms)
    I     Atom           X                Y                Z
 ----------------------------------------------------------------
    1      O      -0.0532834683    -0.0091585482    -1.2738515679
    2      C      -0.2130161238    -1.2444111214    -0.4751646991
    3      C      -1.7072489078    -1.3093134127     0.0500494771
    4      C      -2.2194674317     0.0914292717     0.5613029259
    5      C      -1.1092474282     1.1992621913     0.7634392848
    6      O      -1.8365245313     2.4720463838     0.6924544717
    7      C      -0.8416922853     3.5632148968     0.6995229336
    8      C      -0.0187985202     3.5336156474    -0.6501662918
    9      O      -0.1582766525     2.2339076266    -1.3381608114
   10      C       0.0841762635     1.1404441171    -0.3725149381
   11      C       1.5792810257     1.1616705372     0.1695642748
   12      C       2.0466211502    -0.2537337989     0.6880487155
   13      C       0.8718831450    -1.3084314590     0.7784042869
   14      O       0.0891781517    -1.0533451021     2.0705136438
   15      O      -0.1079775184    -2.3666676012    -1.4032381184
   16      O       1.5416065007    -2.5972274042     0.9143313181
   17      O       0.4351261254     0.3010882018     2.4922088541
   18      C       0.5479646451    -3.6833540630     1.0729737924
   19      C       2.5783388982     1.3752156023    -1.0447202206
   20      C       4.0048748031     1.7058606099    -0.4573981924
   21      C       4.4603074266     0.2856408871     0.0513592483
   22      C       3.2083072544    -0.5961696424    -0.3326495888
   23      O       2.7575648689     0.0130207794    -1.6048496095
   24      H       1.7071468622     1.9335184804     0.9461953772
   25      H       2.4753084028    -0.1781301566     1.7011582910
   26      H       2.1966935437     2.0587832087    -1.8274653930
   27      H       4.6720140439     2.0853551247    -1.2475534252
   28      H       3.9547820432     2.4506310208     0.3531522621
   29      H       5.3549948421    -0.0663615473    -0.4861121874
   30      H       4.6660659014     0.2664005530     1.1334068489
   31      H       3.4045286579    -1.6778150156    -0.4533761732
   32      O      -0.7153670240     1.1601910237     2.2361212347
   33      C       1.1637191081    -2.3291905957    -2.1610595501
   34      C      -2.6898768474    -1.5471980595    -1.1713711645
   35      C      -4.1400925140    -1.8316286260    -0.6105524594
   36      C      -4.6042055378    -0.3803244812    -0.2134215637
   37      C      -3.3023207847     0.4486983943    -0.5472205627
   38      O      -2.8000991255    -0.2002461067    -1.7764055279
   39      H      -1.8086921118    -2.0880246979     0.8233058630
   40      H      -2.7074524419    -0.0144911853     1.5462839367
   41      H       1.8865797433    -3.0474064903    -1.7210479019
   42      H      -2.2986954834    -2.2749537903    -1.9074590454
   43      H      -4.7821053222    -2.2641971919    -1.3939209079
   44      H      -4.1205358330    -2.5192152410     0.2502174446
   45      H      -5.4446315891    -0.0416049067    -0.8402013991
   46      H      -4.8960198946    -0.2982455241     0.8456308161
   47      H      -3.4420550010     1.5361557921    -0.6981511030
   48      H       1.6168190990    -1.3103737970    -2.1743869860
   49      H       0.9287436865    -2.6542207814    -3.1925914724
   50      H       1.1370444711    -4.6086078514     1.2104808414
   51      H      -0.0786064338    -3.7704844207     0.1604041354
   52      H      -0.0960644466    -3.5305241638     1.9632742645
   53      H      -0.4237987734     4.2737486714    -1.3678591840
   54      H       1.0474173520     3.7869294547    -0.4536049969
   55      H      -0.1677806819     3.4775564234     1.5796008121
   56      H      -1.4208894892     4.5029155477     0.7839478988
 ----------------------------------------------------------------

    8   -1510.2678227784      3.82E-09 Convergence criterion met
 Total energy in the final basis set = -1510.26782278
 Final energy is   -1510.26782277843
 **  OPTIMIZATION CONVERGED  **

                    Orbital Energies (a.u.)
 --------------------------------------------------------------

 Alpha MOs
 -- Occupied --
-18.971 -18.928 -18.927 -18.918 -18.910 -18.909 -18.902 -18.901
-18.896 -18.873 -10.111 -10.100 -10.100 -10.098 -10.070 -10.068
-10.063 -10.062 -10.048 -10.045 -10.043 -10.039 -10.036 -10.025
-10.025 -10.024 -10.023 -10.023 -10.009 -10.008  -1.080  -1.010
 -0.994  -0.978  -0.967  -0.961  -0.954  -0.920  -0.915  -0.780
 -0.769  -0.743  -0.727  -0.723  -0.710  -0.708  -0.687  -0.662
 -0.645  -0.622  -0.608  -0.595  -0.582  -0.553  -0.545  -0.536
 -0.531  -0.516  -0.513  -0.485  -0.471  -0.467  -0.461  -0.446
 -0.437  -0.429  -0.427  -0.426  -0.416  -0.412  -0.408  -0.405
 -0.391  -0.386  -0.379  -0.377  -0.374  -0.369  -0.360  -0.353
 -0.345  -0.338  -0.335  -0.332  -0.322  -0.319  -0.314  -0.312
 -0.309  -0.304  -0.299  -0.295  -0.292  -0.285  -0.272  -0.266
 -0.264  -0.249  -0.246  -0.238  -0.225  -0.221  -0.216  -0.204
 -0.193  -0.174  -0.162  -0.159  -0.155  -0.152  -0.130  -0.125
 -0.120

          Ground-State Mulliken Net Atomic Charges

     Atom                 Charge (a.u.)
  ----------------------------------------
      1 O                    -0.185646
      2 C                     0.166916
      3 C                    -0.073240
      4 C                    -0.075015
      5 C                     0.140727
      6 O                    -0.178640
      7 C                    -0.059545
      8 C                    -0.059034
      9 O                    -0.176298
     10 C                     0.162650
     11 C                    -0.080703
     12 C                    -0.072142
     13 C                     0.142323
     14 O                    -0.121076
     15 O                    -0.194794
     16 O                    -0.186811
     17 O                    -0.033451
     18 C                    -0.141022
     19 C                     0.023338
     20 C                    -0.144123
     21 C                    -0.142594
     22 C                     0.023074
     23 O                    -0.187833
     24 H                     0.077434
     25 H                     0.090451
     26 H                     0.092621
     27 H                     0.079005
     28 H                     0.072688
     29 H                     0.079229
     30 H                     0.075717
     31 H                     0.093311
     32 O                    -0.114822
     33 C                    -0.151692
     34 C                     0.022601
     35 C                    -0.145547
     36 C                    -0.143174
     37 C                     0.022712
     38 O                    -0.188226
     39 H                     0.079279
     40 H                     0.085082
     41 H                     0.067305
     42 H                     0.092994
     43 H                     0.075554
     44 H                     0.070524
     45 H                     0.075544
     46 H                     0.071837
     47 H                     0.090914
     48 H                     0.115127
     49 H                     0.076711
     50 H                     0.084917
     51 H                     0.095714
     52 H                     0.079331
     53 H                     0.088900
     54 H                     0.070423
     55 H                     0.080460
     56 H                     0.090013
  ----------------------------------------
  Sum of atomic charges =    -0.000000

                    Cartesian Multipole Moments
 -----------------------------------------------------------------
    Charge (ESU x 10^10)
                 0.0000
    Dipole Moment (Debye)
         X       1.6371      Y       1.0961      Z       1.4966
       Tot       2.4742
    Quadrupole Moments (Debye-Ang)
        XX    -153.2491     XY       5.8107     YY    -147.0842
        XZ      -1.6051     YZ       0.0410     ZZ    -172.8733

 Total job time:  71.03s(wall), 3369.49s(cpu)
        *  Thank you very much for using Q-Chem.  Have a nice day.  *
