 Q-Chem 5.0, Q-Chem, Inc., Pleasanton, CA (2017)
 Q-Chem 5.0.1 for Intel X86 EM64T Linux

User input:
--------------------------------------------------------------
$molecule
0  1
O -3.94934 -3.66094 2.70899
C -3.26408 -4.56952 2.26188
C -3.36658 -6.02376 2.66595
C -3.41669 -6.33291 4.1712
C -3.53792 -5.14515 5.09996
O -4.64457 -5.28366 5.88835
C -5.32847 -4.04778 6.12106
C -5.92449 -3.52355 4.81872
O -5.13879 -3.97486 3.70433
C -3.8271 -4.19694 3.96754
C -2.92759 -3.10621 3.43664
C -1.5881 -3.59298 2.86473
C -1.49201 -5.07832 2.57971
O -1.51303 -5.96443 3.42169
O -3.22942 -4.5691 0.86334
O -0.85144 -5.35707 1.39417
O -1.70346 -5.22293 5.12139
C -0.25429 -6.55749 1.06007
C -2.90194 -1.60295 2.7132
C -1.78692 -0.68153 3.24379
C -0.57133 -1.29132 2.56714
C -1.20935 -2.47563 1.83586
O -2.43163 -1.90615 1.42262
H -2.67462 -2.62887 4.40162
H -0.80652 -3.52487 3.65657
H -3.89365 -1.10267 2.76947
H -1.93243 0.34516 2.83967
H -1.74047 -0.63228 4.3526
H -0.20479 -0.57626 1.79617
H 0.27093 -1.55201 3.24354
H -0.53843 -2.83787 1.02862
O -2.97255 -4.05809 5.94286
C -3.92073 -3.7581 -0.02202
C -4.80028 -6.56119 2.24479
C -4.81044 -8.07905 2.02732
C -4.58511 -8.54087 3.44215
C -4.73601 -7.19982 4.18594
O -5.60378 -6.46096 3.38367
H -2.87209 -6.75715 1.95051
H -2.7846 -7.14481 4.64312
H -3.19835 -3.20883 -0.66001
H -5.21765 -6.07252 1.33722
H -5.84939 -8.34217 1.72081
H -4.10629 -8.4972 1.27593
H -5.39109 -9.26276 3.70158
H -3.59091 -8.99766 3.63641
H -5.10755 -7.43086 5.20866
H -4.58982 -3.03504 0.48943
H -4.54607 -4.39688 -0.67833
H 0.19777 -6.4655 0.05142
H -0.99056 -7.38488 1.0339
H 0.54868 -6.79761 1.78855
H -6.90067 -4.04007 4.69513
H -6.1255 -2.43154 4.81018
H -4.78843 -3.23593 6.65868
H -6.16876 -4.22822 6.82516
$end

$opt
CONSTRAINT
tors           1           2           3           4     -47.368
tors           3           4           5           6    +123.158
tors           4           5           6           7    -142.105
tors           5           6           7           8     +66.316
tors           6           7           8           9     -28.421
tors           7           8           9          10     -28.421
tors           8           9          10          11    -104.211
tors           9          10          11          12    -142.105
tors          11          12          13          14     -66.316
ENDCONSTRAINT
$end

$rem
JOBTYPE                   OPT
METHOD                    B3LYP
DFT_D                     d3_op
BASIS                     STO-3G
GEOM_OPT_MAX_CYCLES       100
GEOM_OPT_TOL_GRADIENT     300
GEOM_OPT_TOL_DISPLACEMENT 1200
GEOM_OPT_TOL_ENERGY       100
SYMMETRY                  False
THRESH                    12
SCF_CONVERGENCE           8
MAX_SUB_FILE_NUM          128
MEM_STATIC                400
MEM_TOTAL                 4000
$end
--------------------------------------------------------------

   29   -1508.9515835361      6.33E-09 Convergence criterion met
 Total energy in the final basis set = -1508.95158354
   19   -1509.1021515085      7.97E-09 Convergence criterion met
 Total energy in the final basis set = -1509.10215151
   19   -1509.2489919311      4.94E-09 Convergence criterion met
 Total energy in the final basis set = -1509.24899193
   19   -1509.3758728623      4.52E-09 Convergence criterion met
 Total energy in the final basis set = -1509.37587286
   19   -1509.4785438903      8.56E-09 Convergence criterion met
 Total energy in the final basis set = -1509.47854389
   19   -1509.5592654338      9.69E-09 Convergence criterion met
 Total energy in the final basis set = -1509.55926543
   19   -1509.6237567697      6.87E-09 Convergence criterion met
 Total energy in the final basis set = -1509.62375677
    3   -1509.6237567700      3.59E-09 Convergence criterion met
   10   -1510.1500226812      8.50E-09 Convergence criterion met
 Total energy in the final basis set = -1510.15002268
   10   -1510.1499393858      8.52E-09 Convergence criterion met
 Total energy in the final basis set = -1510.14993939
   10   -1510.1498867879      4.47E-09 Convergence criterion met
 Total energy in the final basis set = -1510.14988679
   11   -1510.1503328095      2.26E-09 Convergence criterion met
 Total energy in the final basis set = -1510.15033281
   10   -1510.1501664243      4.86E-09 Convergence criterion met
 Total energy in the final basis set = -1510.15016642
   11   -1510.1508433404      2.78E-09 Convergence criterion met
 Total energy in the final basis set = -1510.15084334

             Standard Nuclear Orientation (Angstroms)
    I     Atom           X                Y                Z
 ----------------------------------------------------------------
    1      O       0.1340401079     0.0922585737    -0.9448425238
    2      C       0.0875147125    -1.2612514456    -0.4472527004
    3      C      -1.4049861860    -1.5147203395    -0.1003355052
    4      C      -2.0371989356    -0.3438731109     0.7331166366
    5      C      -1.4355975872     1.0970400545     1.1771999156
    6      O      -2.3153806486     2.1516296355     0.6875592955
    7      C      -1.6484182281     3.3517142093     0.2125655562
    8      C      -0.7579027865     3.4008782840    -1.0148494601
    9      O      -0.1449539211     2.0967050649    -1.2211576519
   10      C       0.0818893963     1.2458774253    -0.0050281638
   11      C       1.6176546243     1.2537193826     0.4169253874
   12      C       2.1118932736    -0.1442409213     0.9315045654
   13      C       1.0095219900    -1.2621169275     1.0090631173
   14      O      -0.0523417470    -0.9373653878     2.0726143654
   15      O       0.5094506691    -2.2864292755    -1.3922766370
   16      O       1.7301998831    -2.4636292655     1.3574592078
   17      O       0.2448871379     0.3745515320     2.6603154602
   18      C       0.8345974095    -3.6328655083     1.4071192269
   19      C       2.5775628040     1.5051432973    -0.8142179671
   20      C       3.9894038618     1.9252981857    -0.2524662078
   21      C       4.4822458837     0.5519963017     0.3523562318
   22      C       3.3016699792    -0.4161297226    -0.0772506676
   23      O       2.8517553814     0.1619586176    -1.3568345434
   24      H       1.7979544774     2.0296600579     1.1900996230
   25      H       2.5379188046    -0.0511679739     1.9468777460
   26      H       2.1206164234     2.1513852321    -1.5847814187
   27      H       4.6365251782     2.2627476804    -1.0802803370
   28      H       3.9214784508     2.7242385848     0.5032133625
   29      H       5.4447404209     0.2412639370    -0.0827419489
   30      H       4.5851046230     0.5951891680     1.4484516920
   31      H       3.5666834858    -1.4806730770    -0.1971737997
   32      O      -1.0105542679     1.1648468596     2.5806502040
   33      C       1.2786242400    -1.7327311616    -2.5218280184
   34      C      -2.2976643642    -1.5171656414    -1.4259057556
   35      C      -3.6373857849    -2.2973595770    -1.1477765369
   36      C      -4.3039390920    -1.3287420263    -0.1036195433
   37      C      -3.3322866617    -0.0783447871    -0.1745054941
   38      O      -2.7749689077    -0.1222132668    -1.5458798678
   39      H      -1.5283484518    -2.4568157966     0.4574824808
   40      H      -2.3842918872    -0.7806363416     1.6866824700
   41      H       2.2767085940    -2.2170209168    -2.5534628832
   42      H      -1.7506970524    -1.8314119673    -2.3353412707
   43      H      -4.2297412495    -2.3451310004    -2.0771436365
   44      H      -3.4909442402    -3.3224100467    -0.7717080650
   45      H      -5.3223924036    -1.0437431817    -0.4080880539
   46      H      -4.3462364442    -1.7633851188     0.9094261075
   47      H      -3.8083104896     0.8988719286     0.0120475703
   48      H       1.4284288761    -0.6413526336    -2.3902405358
   49      H       0.7409586479    -1.9586795368    -3.4659612597
   50      H       1.4819746739    -4.4971943657     1.6584303916
   51      H       0.3462990211    -3.8104481963     0.4276163247
   52      H       0.0556345508    -3.5307360247     2.1934945992
   53      H      -1.3372475990     3.6014566755    -1.9424785171
   54      H      -0.0063016078     4.2225223689    -0.8790706183
   55      H      -1.0545947243     3.7669498068     1.0606702953
   56      H      -2.4994965290     4.0530445590     0.0532280034
 ----------------------------------------------------------------

    9   -1510.1507437051      6.91E-09 Convergence criterion met
 Total energy in the final basis set = -1510.15074371
 Final energy is   -1510.15074370513
 **  OPTIMIZATION CONVERGED  **

                    Orbital Energies (a.u.)
 --------------------------------------------------------------

 Alpha MOs
 -- Occupied --
-18.980 -18.958 -18.931 -18.927 -18.914 -18.897 -18.890 -18.888
-18.876 -18.869 -10.110 -10.094 -10.089 -10.078 -10.076 -10.071
-10.058 -10.055 -10.054 -10.041 -10.033 -10.033 -10.030 -10.023
-10.021 -10.020 -10.019 -10.018 -10.007 -10.005  -1.082  -1.001
 -0.994  -0.974  -0.972  -0.956  -0.950  -0.929  -0.909  -0.785
 -0.765  -0.743  -0.730  -0.720  -0.707  -0.700  -0.686  -0.660
 -0.643  -0.618  -0.608  -0.578  -0.569  -0.545  -0.539  -0.530
 -0.525  -0.514  -0.505  -0.476  -0.468  -0.459  -0.455  -0.446
 -0.438  -0.426  -0.423  -0.422  -0.415  -0.410  -0.405  -0.403
 -0.390  -0.385  -0.380  -0.379  -0.373  -0.363  -0.357  -0.346
 -0.337  -0.337  -0.330  -0.325  -0.321  -0.317  -0.312  -0.310
 -0.305  -0.299  -0.296  -0.295  -0.290  -0.274  -0.268  -0.265
 -0.253  -0.248  -0.240  -0.228  -0.225  -0.218  -0.212  -0.189
 -0.186  -0.174  -0.164  -0.153  -0.150  -0.140  -0.125  -0.121
 -0.107

          Ground-State Mulliken Net Atomic Charges

     Atom                 Charge (a.u.)
  ----------------------------------------
      1 O                    -0.209891
      2 C                     0.178926
      3 C                    -0.070205
      4 C                    -0.072337
      5 C                     0.166941
      6 O                    -0.180175
      7 C                    -0.045228
      8 C                    -0.049755
      9 O                    -0.178279
     10 C                     0.133322
     11 C                    -0.073120
     12 C                    -0.074693
     13 C                     0.144372
     14 O                    -0.123437
     15 O                    -0.201700
     16 O                    -0.183818
     17 O                    -0.018971
     18 C                    -0.131059
     19 C                     0.023610
     20 C                    -0.143067
     21 C                    -0.142903
     22 C                     0.024173
     23 O                    -0.190813
     24 H                     0.070395
     25 H                     0.084180
     26 H                     0.094281
     27 H                     0.077386
     28 H                     0.072195
     29 H                     0.077391
     30 H                     0.073418
     31 H                     0.091211
     32 O                    -0.100498
     33 C                    -0.141975
     34 C                     0.025163
     35 C                    -0.143211
     36 C                    -0.147010
     37 C                     0.016269
     38 O                    -0.192239
     39 H                     0.075285
     40 H                     0.076905
     41 H                     0.070343
     42 H                     0.084644
     43 H                     0.074632
     44 H                     0.070204
     45 H                     0.073190
     46 H                     0.068921
     47 H                     0.089861
     48 H                     0.121913
     49 H                     0.069227
     50 H                     0.087150
     51 H                     0.091056
     52 H                     0.079792
     53 H                     0.089351
     54 H                     0.072288
     55 H                     0.075325
     56 H                     0.091067
  ----------------------------------------
  Sum of atomic charges =    -0.000000

                    Cartesian Multipole Moments
 -----------------------------------------------------------------
    Charge (ESU x 10^10)
                 0.0000
    Dipole Moment (Debye)
         X       0.7556      Y       1.2335      Z       0.9588
       Tot       1.7355
    Quadrupole Moments (Debye-Ang)
        XX    -155.8465     XY       4.0259     YY    -146.2402
        XZ       0.4009     YZ      -1.5190     ZZ    -168.7075

 Total job time:  304.41s(wall), 14480.59s(cpu)
        *  Thank you very much for using Q-Chem.  Have a nice day.  *
