 Q-Chem 5.0, Q-Chem, Inc., Pleasanton, CA (2017)
 Q-Chem 5.0.1 for Intel X86 EM64T Linux

User input:
--------------------------------------------------------------
$molecule
0  1
O -4.8959516373 0.8164962803 1.089972546
C -5.3594425375 0.088578295 0.1810067814
C -4.5276379095 -0.6122586357 -0.9385058713
C -3.2122016033 0.2050038735 -1.2700571806
C -3.101490585 1.5772217276 -0.4735252472
O -2.1466334115 1.501446207 0.6262650266
C -0.909534789 2.2099450004 0.2271951207
C 0.2171850342 1.6946932186 1.188423463
O 1.0506509902 0.748758971 0.4070032594
C 2.329928495 0.5663572066 1.0347272408
C 2.9577684234 -0.7636938329 0.4744715213
C 4.115156354 -0.5510078407 -0.5879156061
C 4.3835096559 0.9692877327 -0.8676632343
O 3.5457531413 1.8951820532 -0.7756103036
O -6.7328190162 -0.279156904 0.0583712183
O 5.729125819 1.1490184872 -1.3090252123
O 2.7654536181 1.274156988 1.9681523185
C 5.9796147511 2.5807905083 -1.5977889026
C 3.7441819179 -1.5454233484 1.6115362272
C 3.9650940937 -3.0316295791 1.1247940074
C 5.1025153089 -2.8339288555 0.0549300631
C 5.3295006682 -1.2723126856 0.1351486745
O 5.1027614908 -0.9582329487 1.5638695215
H 2.1386878084 -1.3705259799 0.0512914622
H 3.872575763 -1.0391751265 -1.5502349508
H 3.3123541134 -1.435411986 2.6249977066
H 4.3039717207 -3.6635901015 1.9610266877
H 3.0485447803 -3.4701951701 0.6989079451
H 6.0218271849 -3.3705373714 0.3383220007
H 4.8007424896 -3.1581108919 -0.9539568703
H 6.324253968 -0.9138790663 -0.1927345532
O -3.6749205921 2.6324290651 -0.8157968293
C -7.5226182194 0.3336923679 1.1532907991
C -3.9071895943 -1.9842805223 -0.422367321
C -3.3545828279 -2.7744794715 -1.6731944882
C -2.0423076409 -1.964348714 -1.9866720792
C -2.0951332562 -0.8479718313 -0.8684355386
O -2.6866894183 -1.5552053938 0.2926194613
H -5.1676901649 -0.7652964044 -1.8253491215
H -3.1741326813 0.4524167473 -2.3465445419
H -7.4286366884 1.4386190277 1.1526369404
H -4.5708078668 -2.5652488882 0.2475036036
H -3.1312318745 -3.8180565491 -1.3997262126
H -4.0681244599 -2.7748422919 -2.5126554537
H -1.143755378 -2.5892171867 -1.8614884861
H -2.0375505269 -1.5375722126 -3.0024406114
H -1.1158951189 -0.412269164 -0.5901881381
H -7.2046230389 -0.0469441764 2.1454593693
H -8.5742698912 0.0487580985 0.9664069815
H 7.035891069 2.6463324929 -1.9172756124
H 5.8223121995 3.2096278867 -0.6978686918
H 5.3211384685 2.9535543226 -2.4088515174
H 0.8450265643 2.5263587853 1.5737810401
H -0.2511772358 1.1733359582 2.052884591
H -1.0309060078 3.3137760107 0.3199642991
H -0.609871916 1.9855007967 -0.8210617064
$end

$rem
JOBTYPE                   OPT
METHOD                    B3LYP
DFT_D                     d3_op
BASIS                     STO-3G
GEOM_OPT_MAX_CYCLES       100
GEOM_OPT_TOL_GRADIENT     300
GEOM_OPT_TOL_DISPLACEMENT 1200
GEOM_OPT_TOL_ENERGY       100
SYMMETRY                  False
THRESH                    12
SCF_CONVERGENCE           8
MAX_SUB_FILE_NUM          128
MEM_STATIC                400
MEM_TOTAL                 4000
$end
--------------------------------------------------------------

   16   -1510.2598835254      5.44E-09 Convergence criterion met
 Total energy in the final basis set = -1510.25988353
   14   -1510.2625334481      3.94E-09 Convergence criterion met
 Total energy in the final basis set = -1510.26253345
   14   -1510.2652837481      3.50E-09 Convergence criterion met
 Total energy in the final basis set = -1510.26528375
   14   -1510.2681742256      2.63E-09 Convergence criterion met
 Total energy in the final basis set = -1510.26817423
   15   -1510.2655166982      2.99E-09 Convergence criterion met
 Total energy in the final basis set = -1510.26551670
   14   -1510.2715875742      2.18E-09 Convergence criterion met
 Total energy in the final basis set = -1510.27158757
   14   -1510.2768343069      2.68E-09 Convergence criterion met
 Total energy in the final basis set = -1510.27683431
   14   -1510.2800838991      1.60E-09 Convergence criterion met
   12   -1510.2998892194      6.33E-09 Convergence criterion met
 Total energy in the final basis set = -1510.29988922
   12   -1510.2998422927      5.01E-09 Convergence criterion met
 Total energy in the final basis set = -1510.29984229
   12   -1510.2998804107      3.58E-09 Convergence criterion met
 Total energy in the final basis set = -1510.29988041
   11   -1510.2998911403      7.63E-09 Convergence criterion met
 Total energy in the final basis set = -1510.29989114
   11   -1510.2998945465      3.20E-09 Convergence criterion met
 Total energy in the final basis set = -1510.29989455
   10   -1510.2998969312      6.16E-09 Convergence criterion met
 Total energy in the final basis set = -1510.29989693

             Standard Nuclear Orientation (Angstroms)
    I     Atom           X                Y                Z
 ----------------------------------------------------------------
    1      O      -3.5730124707     2.0717436803     0.1725060451
    2      C      -3.9443960141     1.0712253077    -0.4846276910
    3      C      -3.0127058797     0.0451110828    -1.2082720829
    4      C      -1.4983833348     0.2783208392    -0.8335924107
    5      C      -1.2112347131     1.4535076241     0.1736436745
    6      O      -1.4375687097     0.9905613478     1.5078230181
    7      C      -0.5427050613     1.6905034162     2.4580534515
    8      C       0.3706072598     0.5849196865     3.1011798969
    9      O       0.8604985380    -0.3318956909     2.0426435351
   10      C       2.2963817790    -0.2525173997     1.9216093864
   11      C       2.7425157505    -1.3147985356     0.8474768955
   12      C       2.5059250483    -0.8854656296    -0.6555359026
   13      C       1.9957106125     0.5891736667    -0.7657029586
   14      O       1.9341722801     1.4143122000     0.1765109606
   15      O      -5.3068144421     0.7048588941    -0.6902336928
   16      O       1.6354929450     0.8613829592    -2.1132667934
   17      O       3.0265987766     0.4113753591     2.6874408947
   18      C       1.2133014088     2.2822761693    -2.2571799526
   19      C       4.3139015788    -1.5268924031     0.8606922870
   20      C       4.6293598432    -2.9036574118     0.1572730995
   21      C       4.3524251674    -2.5409161578    -1.3494676723
   22      C       3.9818874859    -1.0085416982    -1.2335869776
   23      O       4.8138434783    -0.5246104647    -0.1098472908
   24      H       2.2057005984    -2.2548943583     1.0688648994
   25      H       1.8065512213    -1.5569253529    -1.1825058117
   26      H       4.7813076315    -1.3683172459     1.8517084900
   27      H       5.6822386038    -3.1855416185     0.3169399942
   28      H       3.9850244823    -3.7178350830     0.5257790409
   29      H       5.2518289989    -2.6739781902    -1.9714167143
   30      H       3.5307612033    -3.1317728476    -1.7850055899
   31      H       4.1634580443    -0.4076023485    -2.1461426141
   32      O      -0.6668104762     2.5529339200    -0.1000303233
   33      C      -6.2027896351     1.6694790507    -0.0087686045
   34      C      -3.2229818180    -1.4464434618    -0.6997484387
   35      C      -2.4834129512    -2.4192839102    -1.7027511623
   36      C      -0.9786549206    -2.1904409742    -1.2979347760
   37      C      -1.1304503369    -1.1124936030    -0.1551634962
   38      O      -2.3905756792    -1.5051588104     0.5203805598
   39      H      -3.1846749873     0.1229453602    -2.2977231756
   40      H      -0.8913787190     0.4694973071    -1.7360858240
   41      H      -6.1282175628     2.6802159604    -0.4597207571
   42      H      -4.2765619409    -1.7032802177    -0.4751527894
   43      H      -2.7963165099    -3.4607714161    -1.5266003193
   44      H      -2.6848043532    -2.1632222092    -2.7551635176
   45      H      -0.5226652393    -3.1126984387    -0.9037423082
   46      H      -0.3669825391    -1.8234092939    -2.1379115778
   47      H      -0.3059957186    -1.0308494247     0.5898982022
   48      H      -5.9699802490     1.7465731100     1.0726116679
   49      H      -7.2283511179     1.2792657090    -0.1431651617
   50      H       0.8198262802     2.3717933764    -3.2857854033
   51      H       2.0821192028     2.9595680891    -2.1359556059
   52      H       0.4258386420     2.5367947074    -1.4989439931
   53      H       1.2485524746     1.0371515974     3.6135782208
   54      H      -0.2186744536    -0.0237128908     3.8184157644
   55      H      -1.1481867754     2.1923447628     3.2422555626
   56      H       0.0555712466     2.4480266827     1.9077016673
 ----------------------------------------------------------------

    9   -1510.2998976576      8.21E-09 Convergence criterion met
 Total energy in the final basis set = -1510.29989766
 Final energy is   -1510.29989765764
 **  OPTIMIZATION CONVERGED  **

                    Orbital Energies (a.u.)
 --------------------------------------------------------------

 Alpha MOs
 -- Occupied --
-18.946 -18.934 -18.923 -18.919 -18.889 -18.887 -18.883 -18.879
-18.871 -18.867 -10.108 -10.100 -10.098 -10.096 -10.071 -10.061
-10.061 -10.059 -10.059 -10.057 -10.046 -10.040 -10.038 -10.037
-10.035 -10.031 -10.021 -10.020 -10.019 -10.017  -1.022  -1.014
 -1.004  -0.998  -0.970  -0.966  -0.946  -0.936  -0.934  -0.923
 -0.764  -0.761  -0.724  -0.722  -0.711  -0.705  -0.690  -0.667
 -0.652  -0.610  -0.596  -0.576  -0.544  -0.543  -0.537  -0.533
 -0.512  -0.507  -0.489  -0.471  -0.464  -0.455  -0.453  -0.446
 -0.433  -0.431  -0.427  -0.417  -0.413  -0.408  -0.403  -0.402
 -0.394  -0.380  -0.372  -0.365  -0.362  -0.358  -0.351  -0.349
 -0.347  -0.337  -0.334  -0.328  -0.327  -0.323  -0.321  -0.314
 -0.310  -0.304  -0.303  -0.299  -0.297  -0.282  -0.279  -0.274
 -0.268  -0.261  -0.250  -0.243  -0.234  -0.232  -0.228  -0.188
 -0.183  -0.169  -0.161  -0.159  -0.154  -0.149  -0.146  -0.143
 -0.140

          Ground-State Mulliken Net Atomic Charges

     Atom                 Charge (a.u.)
  ----------------------------------------
      1 O                    -0.202223
      2 C                     0.216061
      3 C                    -0.078691
      4 C                    -0.084564
      5 C                     0.227430
      6 O                    -0.171694
      7 C                    -0.051826
      8 C                    -0.052895
      9 O                    -0.181387
     10 C                     0.220325
     11 C                    -0.081647
     12 C                    -0.080153
     13 C                     0.211586
     14 O                    -0.207684
     15 O                    -0.167065
     16 O                    -0.174859
     17 O                    -0.214748
     18 C                    -0.151584
     19 C                     0.024986
     20 C                    -0.143833
     21 C                    -0.143995
     22 C                     0.025099
     23 O                    -0.188645
     24 H                     0.083791
     25 H                     0.085699
     26 H                     0.090049
     27 H                     0.078395
     28 H                     0.073032
     29 H                     0.078280
     30 H                     0.072889
     31 H                     0.085257
     32 O                    -0.218098
     33 C                    -0.127863
     34 C                     0.025061
     35 C                    -0.143764
     36 C                    -0.146978
     37 C                     0.014537
     38 O                    -0.189062
     39 H                     0.085981
     40 H                     0.084726
     41 H                     0.090477
     42 H                     0.085925
     43 H                     0.077026
     44 H                     0.072381
     45 H                     0.073759
     46 H                     0.071833
     47 H                     0.103946
     48 H                     0.094076
     49 H                     0.092769
     50 H                     0.079260
     51 H                     0.080934
     52 H                     0.120251
     53 H                     0.102409
     54 H                     0.084543
     55 H                     0.085114
     56 H                     0.105372
  ----------------------------------------
  Sum of atomic charges =     0.000000

                    Cartesian Multipole Moments
 -----------------------------------------------------------------
    Charge (ESU x 10^10)
                -0.0000
    Dipole Moment (Debye)
         X      -2.4100      Y      -2.4607      Z      -2.0608
       Tot       4.0137
    Quadrupole Moments (Debye-Ang)
        XX    -154.6702     XY     -11.1082     YY    -159.0611
        XZ      -2.2787     YZ       0.3355     ZZ    -154.2753

 Total job time:  162.66s(wall), 7755.56s(cpu)
        *  Thank you very much for using Q-Chem.  Have a nice day.  *
