 Q-Chem 5.0, Q-Chem, Inc., Pleasanton, CA (2017)
 Q-Chem 5.0.1 for Intel X86 EM64T Linux

User input:
--------------------------------------------------------------
$molecule
0  1
O -3.94934 -3.66094 2.70899
C -3.26408 -4.56952 2.26188
C -3.36658 -6.02376 2.66595
C -3.85957 -6.32399 4.09097
C -4.36389 -5.14454 4.89263
O -5.72856 -5.1675 4.94343
C -6.23771 -5.60865 6.20652
C -7.68855 -6.05593 6.06118
O -7.76216 -7.49026 6.07438
C -8.98366 -8.0089 6.35386
C -9.12517 -9.44826 5.91926
C -9.05739 -10.47758 7.05688
C -9.21802 -9.92466 8.45873
O -8.91211 -8.79586 8.81482
O -2.25472 -4.26252 1.40505
O -9.53454 -10.83102 9.42274
O -9.92917 -7.34766 6.77034
C -9.64512 -10.53616 10.76565
C -10.48927 -9.76699 5.28541
C -10.36678 -10.99833 4.39058
C -10.18097 -12.08208 5.43105
C -10.3497 -11.26213 6.71639
O -11.2568 -10.24798 6.35768
H -8.32384 -9.64814 5.17024
H -8.16289 -11.13805 7.04383
H -10.91875 -8.91449 4.71483
H -11.3547 -11.14325 3.89723
H -9.57359 -10.94557 3.614
H -11.01051 -12.81581 5.32204
H -9.20143 -12.60674 5.40404
H -10.68085 -11.93258 7.53899
O -3.67515 -4.26681 5.39093
C -1.98078 -2.98945 0.95071
C -4.42667 -6.76239 1.82297
C -4.08353 -8.2473 1.75447
C -4.36947 -8.6609 3.18014
C -4.96474 -7.3567 3.73055
O -5.58348 -6.76294 2.61863
H -2.37726 -6.48904 2.45044
H -3.08806 -6.81646 4.72248
H -1.7349 -2.32249 1.80454
H -4.54159 -6.35004 0.79611
H -4.8396 -8.71978 1.08659
H -3.06543 -8.49469 1.38417
H -5.12851 -9.47454 3.16154
H -3.48301 -8.97942 3.77016
H -5.62252 -7.60948 4.58355
H -2.85502 -2.58478 0.39715
H -1.10995 -3.02754 0.26463
H -9.91594 -11.45841 11.31935
H -10.4393 -9.7759 10.92567
H -8.67668 -10.15638 11.15583
H -8.16268 -5.70283 7.00721
H -8.23648 -5.5797 5.21881
H -6.21774 -4.70406 6.85601
H -5.6192 -6.3837 6.71684
$end

$opt
CONSTRAINT
tors           1           2           3           4     -28.421
tors           3           4           5           6    +104.211
tors           4           5           6           7    +104.211
tors           5           6           7           8    -161.053
tors           6           7           8           9    +104.211
tors           7           8           9          10    +161.053
tors           8           9          10          11    +161.053
tors           9          10          11          12    +104.211
tors          11          12          13          14     -28.421
ENDCONSTRAINT
$end

$rem
JOBTYPE                   OPT
METHOD                    B3LYP
DFT_D                     d3_op
BASIS                     STO-3G
GEOM_OPT_MAX_CYCLES       100
GEOM_OPT_TOL_GRADIENT     300
GEOM_OPT_TOL_DISPLACEMENT 1200
GEOM_OPT_TOL_ENERGY       100
SYMMETRY                  False
THRESH                    12
SCF_CONVERGENCE           8
MAX_SUB_FILE_NUM          128
MEM_STATIC                400
MEM_TOTAL                 4000
$end
--------------------------------------------------------------

   16   -1510.1204799797      1.75E-09 Convergence criterion met
 Total energy in the final basis set = -1510.12047998
   13   -1510.1914727625      4.79E-09 Convergence criterion met
 Total energy in the final basis set = -1510.19147276
   13   -1510.2299172205      8.88E-09 Convergence criterion met
 Total energy in the final basis set = -1510.22991722
   13   -1510.2473684667      8.60E-09 Convergence criterion met
 Total energy in the final basis set = -1510.24736847
    2   -1510.2473684668      3.24E-09 Convergence criterion met
 Total energy in the final basis set = -1510.24736847
   13   -1510.2539626963      5.59E-09 Convergence criterion met
 Total energy in the final basis set = -1510.25396270
   13   -1510.2569163353      3.32E-09 Convergence criterion met
 Total energy in the final basis set = -1510.25691634
   13   -1510.2583779555      1.85E-09 Convergence criterion met
   11   -1510.2598536938      5.71E-09 Convergence criterion met
 Total energy in the final basis set = -1510.25985369
   11   -1510.2598699701      3.38E-09 Convergence criterion met
 Total energy in the final basis set = -1510.25986997
   11   -1510.2598793558      1.68E-09 Convergence criterion met
 Total energy in the final basis set = -1510.25987936
   10   -1510.2598826428      8.64E-09 Convergence criterion met
 Total energy in the final basis set = -1510.25988264
    9   -1510.2598846001      5.47E-09 Convergence criterion met
 Total energy in the final basis set = -1510.25988460
    9   -1510.2598857144      7.66E-09 Convergence criterion met
 Total energy in the final basis set = -1510.25988571

             Standard Nuclear Orientation (Angstroms)
    I     Atom           X                Y                Z
 ----------------------------------------------------------------
    1      O      -4.8959516373     0.8164962803     1.0899725460
    2      C      -5.3594425375     0.0885782950     0.1810067814
    3      C      -4.5276379095    -0.6122586357    -0.9385058713
    4      C      -3.2122016033     0.2050038735    -1.2700571806
    5      C      -3.1014905850     1.5772217276    -0.4735252472
    6      O      -2.1466334115     1.5014462070     0.6262650266
    7      C      -0.9095347890     2.2099450004     0.2271951207
    8      C       0.2171850342     1.6946932186     1.1884234630
    9      O       1.0506509902     0.7487589710     0.4070032594
   10      C       2.3299284950     0.5663572066     1.0347272408
   11      C       2.9577684234    -0.7636938329     0.4744715213
   12      C       4.1151563540    -0.5510078407    -0.5879156061
   13      C       4.3835096559     0.9692877327    -0.8676632343
   14      O       3.5457531413     1.8951820532    -0.7756103036
   15      O      -6.7328190162    -0.2791569040     0.0583712183
   16      O       5.7291258190     1.1490184872    -1.3090252123
   17      O       2.7654536181     1.2741569880     1.9681523185
   18      C       5.9796147511     2.5807905083    -1.5977889026
   19      C       3.7441819179    -1.5454233484     1.6115362272
   20      C       3.9650940937    -3.0316295791     1.1247940074
   21      C       5.1025153089    -2.8339288555     0.0549300631
   22      C       5.3295006682    -1.2723126856     0.1351486745
   23      O       5.1027614908    -0.9582329487     1.5638695215
   24      H       2.1386878084    -1.3705259799     0.0512914622
   25      H       3.8725757630    -1.0391751265    -1.5502349508
   26      H       3.3123541134    -1.4354119860     2.6249977066
   27      H       4.3039717207    -3.6635901015     1.9610266877
   28      H       3.0485447803    -3.4701951701     0.6989079451
   29      H       6.0218271849    -3.3705373714     0.3383220007
   30      H       4.8007424896    -3.1581108919    -0.9539568703
   31      H       6.3242539680    -0.9138790663    -0.1927345532
   32      O      -3.6749205921     2.6324290651    -0.8157968293
   33      C      -7.5226182194     0.3336923679     1.1532907991
   34      C      -3.9071895943    -1.9842805223    -0.4223673210
   35      C      -3.3545828279    -2.7744794715    -1.6731944882
   36      C      -2.0423076409    -1.9643487140    -1.9866720792
   37      C      -2.0951332562    -0.8479718313    -0.8684355386
   38      O      -2.6866894183    -1.5552053938     0.2926194613
   39      H      -5.1676901649    -0.7652964044    -1.8253491215
   40      H      -3.1741326813     0.4524167473    -2.3465445419
   41      H      -7.4286366884     1.4386190277     1.1526369404
   42      H      -4.5708078668    -2.5652488882     0.2475036036
   43      H      -3.1312318745    -3.8180565491    -1.3997262126
   44      H      -4.0681244599    -2.7748422919    -2.5126554537
   45      H      -1.1437553780    -2.5892171867    -1.8614884861
   46      H      -2.0375505269    -1.5375722126    -3.0024406114
   47      H      -1.1158951189    -0.4122691640    -0.5901881381
   48      H      -7.2046230389    -0.0469441764     2.1454593693
   49      H      -8.5742698912     0.0487580985     0.9664069815
   50      H       7.0358910690     2.6463324929    -1.9172756124
   51      H       5.8223121995     3.2096278867    -0.6978686918
   52      H       5.3211384685     2.9535543226    -2.4088515174
   53      H       0.8450265643     2.5263587853     1.5737810401
   54      H      -0.2511772358     1.1733359582     2.0528845910
   55      H      -1.0309060078     3.3137760107     0.3199642991
   56      H      -0.6098719160     1.9855007967    -0.8210617064
 ----------------------------------------------------------------

    9   -1510.2598862359      5.67E-09 Convergence criterion met
 Total energy in the final basis set = -1510.25988624
 Final energy is   -1510.25988623593
 **  OPTIMIZATION CONVERGED  **

                    Orbital Energies (a.u.)
 --------------------------------------------------------------

 Alpha MOs
 -- Occupied --
-18.942 -18.942 -18.917 -18.889 -18.887 -18.886 -18.883 -18.882
-18.881 -18.862 -10.104 -10.102 -10.097 -10.090 -10.068 -10.067
-10.063 -10.062 -10.060 -10.058 -10.057 -10.056 -10.039 -10.039
-10.032 -10.031 -10.021 -10.020 -10.020 -10.018  -1.017  -1.016
 -0.999  -0.993  -0.969  -0.969  -0.941  -0.940  -0.929  -0.920
 -0.762  -0.761  -0.723  -0.722  -0.710  -0.705  -0.691  -0.665
 -0.664  -0.605  -0.595  -0.573  -0.546  -0.543  -0.537  -0.536
 -0.514  -0.510  -0.481  -0.477  -0.463  -0.459  -0.451  -0.445
 -0.434  -0.431  -0.418  -0.414  -0.414  -0.410  -0.407  -0.391
 -0.385  -0.381  -0.378  -0.373  -0.361  -0.357  -0.353  -0.345
 -0.337  -0.335  -0.334  -0.330  -0.329  -0.327  -0.323  -0.312
 -0.311  -0.306  -0.305  -0.299  -0.295  -0.285  -0.277  -0.274
 -0.271  -0.257  -0.257  -0.240  -0.235  -0.233  -0.228  -0.183
 -0.181  -0.164  -0.158  -0.158  -0.148  -0.146  -0.143  -0.142
 -0.140

          Ground-State Mulliken Net Atomic Charges

     Atom                 Charge (a.u.)
  ----------------------------------------
      1 O                    -0.201664
      2 C                     0.211995
      3 C                    -0.079348
      4 C                    -0.082970
      5 C                     0.223747
      6 O                    -0.189953
      7 C                    -0.047222
      8 C                    -0.049423
      9 O                    -0.180475
     10 C                     0.213247
     11 C                    -0.081043
     12 C                    -0.078280
     13 C                     0.213786
     14 O                    -0.209055
     15 O                    -0.167212
     16 O                    -0.167977
     17 O                    -0.215553
     18 C                    -0.127581
     19 C                     0.025894
     20 C                    -0.144027
     21 C                    -0.144158
     22 C                     0.023649
     23 O                    -0.188102
     24 H                     0.083721
     25 H                     0.084556
     26 H                     0.086412
     27 H                     0.078097
     28 H                     0.073313
     29 H                     0.077930
     30 H                     0.072223
     31 H                     0.090424
     32 O                    -0.195352
     33 C                    -0.128438
     34 C                     0.025889
     35 C                    -0.143752
     36 C                    -0.144443
     37 C                     0.023430
     38 O                    -0.186868
     39 H                     0.086060
     40 H                     0.081273
     41 H                     0.093715
     42 H                     0.082838
     43 H                     0.077426
     44 H                     0.073795
     45 H                     0.075837
     46 H                     0.072444
     47 H                     0.091982
     48 H                     0.090587
     49 H                     0.091819
     50 H                     0.092073
     51 H                     0.093992
     52 H                     0.089553
     53 H                     0.095736
     54 H                     0.092723
     55 H                     0.081684
     56 H                     0.081041
  ----------------------------------------
  Sum of atomic charges =    -0.000000

                    Cartesian Multipole Moments
 -----------------------------------------------------------------
    Charge (ESU x 10^10)
                -0.0000
    Dipole Moment (Debye)
         X      -0.2430      Y      -2.7592      Z      -3.4021
       Tot       4.3870
    Quadrupole Moments (Debye-Ang)
        XX    -144.8490     XY       6.3130     YY    -157.0011
        XZ      -9.9864     YZ      -1.3123     ZZ    -159.4057

 Total job time:  55.98s(wall), 2635.67s(cpu)
        *  Thank you very much for using Q-Chem.  Have a nice day.  *
