 Q-Chem 5.0, Q-Chem, Inc., Pleasanton, CA (2017)
 Q-Chem 5.0.1 for Intel X86 EM64T Linux

User input:
--------------------------------------------------------------
$molecule
0  1
O -5.0821349619 0.0971226326 1.9533567937
C -5.5129380041 0.4088037484 0.8238439745
C -4.7694385184 0.3504727005 -0.561611901
C -3.2191437252 0.0511986804 -0.4462213859
C -2.5775560214 0.5851302352 0.9058416195
O -1.5615964628 -0.2113711317 1.5553443874
C -0.5070601982 -0.6948685074 0.6376361064
C 0.8059037385 0.1687030056 0.8566395294
O 1.9932795618 -0.7018345643 0.7471130142
C 2.6941709516 -0.5360165271 -0.5113933583
C 3.3777525068 0.8747377082 -0.732094007
C 4.5769612474 1.130356035 0.284439889
C 4.5723918897 0.1589766852 1.5161837987
O 3.9312474013 0.3118822078 2.5790243153
O -6.847999819 0.8629096071 0.5700404585
O 5.3408621167 -1.0042048874 1.2002803194
O 2.8900880309 -1.5318084111 -1.2385320776
C 5.2294279539 -1.9956156384 2.2952161734
C 4.1700615398 0.8420930879 -2.1031866972
C 4.7066434677 2.2908340732 -2.4346391234
C 5.9421224704 2.3920916699 -1.4644424306
C 5.8269181043 1.0205846284 -0.6903461048
O 5.3889018931 0.0788189267 -1.7452854854
H 2.6342175019 1.6886024378 -0.681921513
H 4.4920210134 2.1541981448 0.691772373
H 3.6278813667 0.3340019089 -2.9239464225
H 5.0128776836 2.3575485248 -3.4904958195
H 3.9489464928 3.0663491185 -2.2379892657
H 6.8897365964 2.435375424 -2.0247619257
H 5.8887122028 3.2622772779 -0.7910443158
H 6.7567638616 0.6607575891 -0.2099970225
O -2.9438684933 1.6434603414 1.4592920547
C -7.6220797016 0.8866041438 1.8325383688
C -5.2587392073 -0.9862515821 -1.2641481877
C -4.6006337273 -1.1449344787 -2.6932244956
C -3.1639782128 -1.6710316693 -2.3199574942
C -3.2075388783 -1.5228842073 -0.7491586416
O -4.5706664731 -1.9972773554 -0.4266071843
H -4.9900304277 1.2609577397 -1.1468394633
H -2.7004513755 0.579764974 -1.2680196295
H -7.17095546 1.5763187013 2.5748074306
H -6.3561658475 -1.1313522392 -1.2321349521
H -5.1588716703 -1.8756383614 -3.2993029238
H -4.5716696912 -0.1865082702 -3.2363179263
H -3.0409766961 -2.7296191697 -2.6001861395
H -2.3560427808 -1.0845639276 -2.7861238286
H -2.4689726082 -2.1208266077 -0.1858033872
H -7.6914813518 -0.1225993901 2.2876115885
H -8.6338398495 1.241948814 1.5633899023
H 5.7984354419 -2.8825763513 1.9612740614
H 4.1720508975 -2.2762424062 2.477800162
H 5.6620491202 -1.6108395046 3.241404869
H 0.8253910572 1.0312226936 0.1602884317
H 0.7813790808 0.562554982 1.8963854496
H -0.7998590923 -0.6738893269 -0.4294563142
H -0.2718113761 -1.7439508193 0.9192820888
$end

$rem
JOBTYPE                   OPT
METHOD                    B3LYP
DFT_D                     d3_op
BASIS                     STO-3G
GEOM_OPT_MAX_CYCLES       100
GEOM_OPT_TOL_GRADIENT     300
GEOM_OPT_TOL_DISPLACEMENT 1200
GEOM_OPT_TOL_ENERGY       100
SYMMETRY                  False
THRESH                    12
SCF_CONVERGENCE           8
MAX_SUB_FILE_NUM          128
MEM_STATIC                400
MEM_TOTAL                 4000
$end
--------------------------------------------------------------

   16   -1510.2374031391      4.60E-09 Convergence criterion met
 Total energy in the final basis set = -1510.23740314
   14   -1510.2399588786      2.73E-09 Convergence criterion met
 Total energy in the final basis set = -1510.23995888
   14   -1510.2427047765      2.94E-09 Convergence criterion met
 Total energy in the final basis set = -1510.24270478
   14   -1510.2453581302      2.74E-09 Convergence criterion met
 Total energy in the final basis set = -1510.24535813
   14   -1510.2471243089      4.20E-09 Convergence criterion met
 Total energy in the final basis set = -1510.24712431
   14   -1510.2486092759      2.11E-09 Convergence criterion met
 Total energy in the final basis set = -1510.24860928
   14   -1510.2502677135      2.79E-09 Convergence criterion met
 Total energy in the final basis set = -1510.25026771
   14   -1510.2523261882      2.98E-09 Convergence criterion met
   12   -1510.2679624026      9.23E-09 Convergence criterion met
 Total energy in the final basis set = -1510.26796240
   13   -1510.2679577194      3.14E-09 Convergence criterion met
 Total energy in the final basis set = -1510.26795772
   12   -1510.2680101901      9.38E-09 Convergence criterion met
 Total energy in the final basis set = -1510.26801019
   12   -1510.2680067402      4.64E-09 Convergence criterion met
 Total energy in the final basis set = -1510.26800674
   11   -1510.2680295017      5.11E-09 Convergence criterion met
 Total energy in the final basis set = -1510.26802950
   10   -1510.2680306066      6.84E-09 Convergence criterion met
 Total energy in the final basis set = -1510.26803061

             Standard Nuclear Orientation (Angstroms)
    I     Atom           X                Y                Z
 ----------------------------------------------------------------
    1      O       4.9089327699    -0.2681174937    -1.4534197917
    2      C       3.6723424082    -0.3592554283    -1.3078557638
    3      C       2.6793144318     0.7686419744    -0.8370468510
    4      C       1.9420246498     0.4803864796     0.5326215332
    5      C       2.5003788043    -0.8080921562     1.2488862912
    6      O       1.8294190712    -1.3260963351     2.4101589127
    7      C       0.4254614518    -0.8971197379     2.5879315178
    8      C      -0.5338617753    -1.6774830351     1.6021303292
    9      O      -1.9440490160    -1.5891441875     2.0281055789
   10      C      -2.6311258533    -0.3606741309     1.6978775222
   11      C      -2.0773325501     0.5563667128     0.5273919076
   12      C      -2.0374198745    -0.1283405304    -0.9058152888
   13      C      -2.5336998962    -1.6141083788    -0.9068969010
   14      O      -1.9588762498    -2.6035831303    -1.4109892695
   15      O       2.8757292725    -1.4838072603    -1.7130381787
   16      O      -3.7862962064    -1.6628717906    -0.2216353272
   17      O      -3.6612435084    -0.0978075140     2.3529837355
   18      C      -4.2542764543    -3.0623990649    -0.0990716898
   19      C      -3.1002462969     1.7416151648     0.2661822607
   20      C      -2.3667664835     2.8645861757    -0.5647925921
   21      C      -2.2955860386     2.1917856871    -1.9855722872
   22      C      -3.0313700007     0.8207789693    -1.7105465661
   23      O      -4.0580664348     1.1647407901    -0.7050380430
   24      H      -1.0837608962     0.9508976822     0.8032908388
   25      H      -1.0223677204    -0.1114361622    -1.3417162611
   26      H      -3.6320166131     2.0753383197     1.1781856306
   27      H      -2.9720132664     3.7846281978    -0.5838673223
   28      H      -1.3722954717     3.1061558725    -0.1577664798
   29      H      -2.8436859662     2.7782525763    -2.7398852526
   30      H      -1.2615164790     2.0449525629    -2.3369797736
   31      H      -3.4962949147     0.3484938345    -2.5978244512
   32      O       3.5807768947    -1.3570825020     0.9331647809
   33      C       3.7538750267    -2.6013630372    -2.1219175016
   34      C       3.4337257903     2.1201998256    -0.5016704937
   35      C       2.3794049790     3.2943118321    -0.5392723967
   36      C       1.5790425232     3.0200475778     0.7886384764
   37      C       2.3585838846     1.7737100048     1.3662545786
   38      O       3.7557327237     1.9968959553     0.9404067872
   39      H       1.9339031982     0.9147267869    -1.6395001251
   40      H       0.8537596580     0.4178026389     0.3807088299
   41      H       4.3599986436    -2.9673107441    -1.2678068837
   42      H       4.3595090948     2.2772452225    -1.0888098433
   43      H       2.8866463781     4.2715973889    -0.5071522964
   44      H       1.7424505941     3.2550235799    -1.4372962988
   45      H       1.6410027336     3.8707587795     1.4854102764
   46      H       0.5166250351     2.7924883101     0.6056267649
   47      H       2.3037356181     1.6512234438     2.4658004272
   48      H       4.4403611122    -2.3056487029    -2.9414859943
   49      H       3.0832568761    -3.4077543859    -2.4719611385
   50      H      -5.2528808319    -3.0079268976     0.3715088084
   51      H      -3.5721371996    -3.6546041353     0.5448031857
   52      H      -4.3304461452    -3.5551742819    -1.0894999105
   53      H      -0.3709360912    -1.3462110609     0.5582741542
   54      H      -0.2800500097    -2.7560428456     1.6578058336
   55      H       0.2931531424     0.1999147912     2.4908440967
   56      H       0.1677769060    -1.1829093174     3.6283313732
 ----------------------------------------------------------------

    9   -1510.2680314424      4.70E-09 Convergence criterion met
 Total energy in the final basis set = -1510.26803144
 Final energy is   -1510.26803144239
 **  OPTIMIZATION CONVERGED  **

                    Orbital Energies (a.u.)
 --------------------------------------------------------------

 Alpha MOs
 -- Occupied --
-18.950 -18.946 -18.940 -18.922 -18.900 -18.899 -18.896 -18.887
-18.885 -18.866 -10.116 -10.111 -10.109 -10.095 -10.091 -10.087
-10.075 -10.073 -10.069 -10.068 -10.066 -10.056 -10.052 -10.052
-10.051 -10.042 -10.034 -10.032 -10.031 -10.030  -1.024  -1.022
 -1.012  -1.001  -0.981  -0.981  -0.954  -0.947  -0.946  -0.928
 -0.777  -0.773  -0.736  -0.733  -0.722  -0.717  -0.716  -0.667
 -0.658  -0.626  -0.612  -0.605  -0.563  -0.557  -0.550  -0.546
 -0.524  -0.522  -0.498  -0.490  -0.478  -0.476  -0.464  -0.453
 -0.448  -0.441  -0.436  -0.422  -0.421  -0.417  -0.414  -0.408
 -0.405  -0.397  -0.388  -0.378  -0.370  -0.366  -0.358  -0.355
 -0.355  -0.348  -0.342  -0.341  -0.336  -0.334  -0.329  -0.323
 -0.321  -0.319  -0.314  -0.310  -0.309  -0.304  -0.288  -0.284
 -0.281  -0.266  -0.258  -0.250  -0.247  -0.246  -0.243  -0.199
 -0.185  -0.174  -0.168  -0.165  -0.164  -0.157  -0.155  -0.154
 -0.146

          Ground-State Mulliken Net Atomic Charges

     Atom                 Charge (a.u.)
  ----------------------------------------
      1 O                    -0.213632
      2 C                     0.217717
      3 C                    -0.080186
      4 C                    -0.084598
      5 C                     0.214302
      6 O                    -0.165183
      7 C                    -0.052103
      8 C                    -0.055490
      9 O                    -0.173202
     10 C                     0.213127
     11 C                    -0.085521
     12 C                    -0.083899
     13 C                     0.204582
     14 O                    -0.211333
     15 O                    -0.179820
     16 O                    -0.162298
     17 O                    -0.193187
     18 C                    -0.126808
     19 C                     0.026003
     20 C                    -0.144688
     21 C                    -0.144070
     22 C                     0.027357
     23 O                    -0.181853
     24 H                     0.070179
     25 H                     0.080844
     26 H                     0.094708
     27 H                     0.081529
     28 H                     0.069208
     29 H                     0.081013
     30 H                     0.071749
     31 H                     0.085740
     32 O                    -0.186989
     33 C                    -0.128893
     34 C                     0.025080
     35 C                    -0.143753
     36 C                    -0.144386
     37 C                     0.022277
     38 O                    -0.184361
     39 H                     0.080117
     40 H                     0.072814
     41 H                     0.093111
     42 H                     0.093856
     43 H                     0.081011
     44 H                     0.072896
     45 H                     0.081312
     46 H                     0.065531
     47 H                     0.082754
     48 H                     0.087276
     49 H                     0.087815
     50 H                     0.096945
     51 H                     0.092179
     52 H                     0.091056
     53 H                     0.083702
     54 H                     0.100178
     55 H                     0.078068
     56 H                     0.100217
  ----------------------------------------
  Sum of atomic charges =     0.000000

                    Cartesian Multipole Moments
 -----------------------------------------------------------------
    Charge (ESU x 10^10)
                -0.0000
    Dipole Moment (Debye)
         X      -1.7917      Y       1.9654      Z      -1.5671
       Tot       3.0869
    Quadrupole Moments (Debye-Ang)
        XX    -194.1411     XY       3.7982     YY    -153.0916
        XZ       2.3675     YZ       0.7421     ZZ    -160.5617

 Total job time:  98.70s(wall), 4702.51s(cpu)
        *  Thank you very much for using Q-Chem.  Have a nice day.  *
