 Q-Chem 5.0, Q-Chem, Inc., Pleasanton, CA (2017)
 Q-Chem 5.0.1 for Intel X86 EM64T Linux

User input:
--------------------------------------------------------------
$molecule
0  1
O -3.94934 -3.66094 2.70899
C -3.26408 -4.56952 2.26188
C -3.36658 -6.02376 2.66595
C -4.25419 -6.35572 3.87665
C -5.08044 -5.22016 4.4387
O -6.30369 -5.68547 4.82931
C -6.22735 -6.88027 5.61409
C -6.47133 -6.55946 7.08504
O -7.23959 -7.60915 7.69399
C -6.5419 -8.4541 8.49301
C -6.00611 -7.78188 9.73466
C -7.07746 -7.30624 10.72676
C -8.46757 -7.87341 10.52035
O -9.31069 -7.42344 9.75795
O -2.37236 -4.28791 1.27502
O -8.84376 -8.91847 11.31089
O -6.49365 -9.65611 8.28227
C -10.07832 -9.53226 11.26649
C -5.18328 -8.73026 10.64413
C -4.20606 -7.91684 11.49266
C -5.16862 -7.20675 12.42005
C -6.48086 -7.89844 12.02664
O -6.0891 -9.18389 11.61467
H -5.30467 -6.97196 9.46434
H -7.17481 -6.20097 10.80026
H -4.6296 -9.51695 10.08652
H -3.61511 -8.6521 12.08546
H -3.50598 -7.25397 10.94005
H -4.87992 -7.43999 13.46882
H -5.24284 -6.10691 12.27679
H -7.19963 -7.85568 12.87488
O -4.59137 -4.25173 5.00197
C -2.16141 -3.02868 0.75369
C -3.87304 -6.87796 1.51293
C -3.42967 -8.32398 1.70304
C -4.32001 -8.72601 2.84891
C -5.11581 -7.42969 3.04977
O -5.24028 -6.90822 1.75268
H -2.31436 -6.29915 2.90801
H -3.64501 -6.806 4.69262
H -1.81362 -2.33768 1.55114
H -3.56018 -6.50738 0.5119
H -3.72556 -8.89971 0.79694
H -2.33966 -8.44524 1.88338
H -4.99835 -9.53157 2.48567
H -3.80112 -9.0614 3.77254
H -6.09617 -7.74958 3.4243
H -3.09879 -2.63972 0.30156
H -1.3824 -3.08686 -0.03387
H -10.10491 -10.34972 12.01581
H -10.25359 -9.96492 10.25831
H -10.87891 -8.80046 11.50666
H -5.49329 -6.30142 7.53302
H -7.10936 -5.65283 7.16042
H -5.37886 -7.59007 5.58526
H -7.11895 -7.46445 5.29602
$end

$opt
CONSTRAINT
tors           1           2           3           4      -9.474
tors           3           4           5           6    +142.105
tors           4           5           6           7     +47.368
tors           5           6           7           8    +104.211
tors           6           7           8           9    +142.105
tors           7           8           9          10    +104.211
tors           8           9          10          11     +66.316
tors           9          10          11          12     +66.316
tors          11          12          13          14     -85.263
ENDCONSTRAINT
$end

$rem
JOBTYPE                   OPT
METHOD                    B3LYP
DFT_D                     d3_op
BASIS                     STO-3G
GEOM_OPT_MAX_CYCLES       100
GEOM_OPT_TOL_GRADIENT     300
GEOM_OPT_TOL_DISPLACEMENT 1200
GEOM_OPT_TOL_ENERGY       100
SYMMETRY                  False
THRESH                    12
SCF_CONVERGENCE           8
MAX_SUB_FILE_NUM          128
MEM_STATIC                400
MEM_TOTAL                 4000
$end
--------------------------------------------------------------

   15   -1510.0623695813      8.06E-09 Convergence criterion met
 Total energy in the final basis set = -1510.06236958
   13   -1510.1415667640      9.44E-09 Convergence criterion met
 Total energy in the final basis set = -1510.14156676
   14   -1510.1861738519      6.10E-09 Convergence criterion met
 Total energy in the final basis set = -1510.18617385
   13   -1510.2107246308      8.78E-09 Convergence criterion met
 Total energy in the final basis set = -1510.21072463
   13   -1510.2221109156      7.26E-09 Convergence criterion met
 Total energy in the final basis set = -1510.22211092
   13   -1510.2276931754      5.22E-09 Convergence criterion met
 Total energy in the final basis set = -1510.22769318
   13   -1510.2306422049      3.47E-09 Convergence criterion met
 Total energy in the final basis set = -1510.23064220
   13   -1510.2322496872      3.35E-09 Convergence criterion met
   11   -1510.2374845554      5.20E-09 Convergence criterion met
 Total energy in the final basis set = -1510.23748456
   11   -1510.2374979888      3.07E-09 Convergence criterion met
 Total energy in the final basis set = -1510.23749799
   10   -1510.2375058105      4.96E-09 Convergence criterion met
 Total energy in the final basis set = -1510.23750581
    9   -1510.2375130263      8.62E-09 Convergence criterion met
 Total energy in the final basis set = -1510.23751303
    9   -1510.2375155868      9.32E-09 Convergence criterion met
 Total energy in the final basis set = -1510.23751559
    9   -1510.2375166608      4.68E-09 Convergence criterion met
 Total energy in the final basis set = -1510.23751666

             Standard Nuclear Orientation (Angstroms)
    I     Atom           X                Y                Z
 ----------------------------------------------------------------
    1      O      -5.0821349619     0.0971226326     1.9533567937
    2      C      -5.5129380041     0.4088037484     0.8238439745
    3      C      -4.7694385184     0.3504727005    -0.5616119010
    4      C      -3.2191437252     0.0511986804    -0.4462213859
    5      C      -2.5775560214     0.5851302352     0.9058416195
    6      O      -1.5615964628    -0.2113711317     1.5553443874
    7      C      -0.5070601982    -0.6948685074     0.6376361064
    8      C       0.8059037385     0.1687030056     0.8566395294
    9      O       1.9932795618    -0.7018345643     0.7471130142
   10      C       2.6941709516    -0.5360165271    -0.5113933583
   11      C       3.3777525068     0.8747377082    -0.7320940070
   12      C       4.5769612474     1.1303560350     0.2844398890
   13      C       4.5723918897     0.1589766852     1.5161837987
   14      O       3.9312474013     0.3118822078     2.5790243153
   15      O      -6.8479998190     0.8629096071     0.5700404585
   16      O       5.3408621167    -1.0042048874     1.2002803194
   17      O       2.8900880309    -1.5318084111    -1.2385320776
   18      C       5.2294279539    -1.9956156384     2.2952161734
   19      C       4.1700615398     0.8420930879    -2.1031866972
   20      C       4.7066434677     2.2908340732    -2.4346391234
   21      C       5.9421224704     2.3920916699    -1.4644424306
   22      C       5.8269181043     1.0205846284    -0.6903461048
   23      O       5.3889018931     0.0788189267    -1.7452854854
   24      H       2.6342175019     1.6886024378    -0.6819215130
   25      H       4.4920210134     2.1541981448     0.6917723730
   26      H       3.6278813667     0.3340019089    -2.9239464225
   27      H       5.0128776836     2.3575485248    -3.4904958195
   28      H       3.9489464928     3.0663491185    -2.2379892657
   29      H       6.8897365964     2.4353754240    -2.0247619257
   30      H       5.8887122028     3.2622772779    -0.7910443158
   31      H       6.7567638616     0.6607575891    -0.2099970225
   32      O      -2.9438684933     1.6434603414     1.4592920547
   33      C      -7.6220797016     0.8866041438     1.8325383688
   34      C      -5.2587392073    -0.9862515821    -1.2641481877
   35      C      -4.6006337273    -1.1449344787    -2.6932244956
   36      C      -3.1639782128    -1.6710316693    -2.3199574942
   37      C      -3.2075388783    -1.5228842073    -0.7491586416
   38      O      -4.5706664731    -1.9972773554    -0.4266071843
   39      H      -4.9900304277     1.2609577397    -1.1468394633
   40      H      -2.7004513755     0.5797649740    -1.2680196295
   41      H      -7.1709554600     1.5763187013     2.5748074306
   42      H      -6.3561658475    -1.1313522392    -1.2321349521
   43      H      -5.1588716703    -1.8756383614    -3.2993029238
   44      H      -4.5716696912    -0.1865082702    -3.2363179263
   45      H      -3.0409766961    -2.7296191697    -2.6001861395
   46      H      -2.3560427808    -1.0845639276    -2.7861238286
   47      H      -2.4689726082    -2.1208266077    -0.1858033872
   48      H      -7.6914813518    -0.1225993901     2.2876115885
   49      H      -8.6338398495     1.2419488140     1.5633899023
   50      H       5.7984354419    -2.8825763513     1.9612740614
   51      H       4.1720508975    -2.2762424062     2.4778001620
   52      H       5.6620491202    -1.6108395046     3.2414048690
   53      H       0.8253910572     1.0312226936     0.1602884317
   54      H       0.7813790808     0.5625549820     1.8963854496
   55      H      -0.7998590923    -0.6738893269    -0.4294563142
   56      H      -0.2718113761    -1.7439508193     0.9192820888
 ----------------------------------------------------------------

    9   -1510.2375158855      2.58E-09 Convergence criterion met
 Total energy in the final basis set = -1510.23751589
 Final energy is   -1510.23751588551
 **  OPTIMIZATION CONVERGED  **

                    Orbital Energies (a.u.)
 --------------------------------------------------------------

 Alpha MOs
 -- Occupied --
-18.934 -18.931 -18.924 -18.918 -18.901 -18.892 -18.889 -18.885
-18.876 -18.872 -10.108 -10.105 -10.098 -10.097 -10.076 -10.075
-10.065 -10.064 -10.062 -10.062 -10.061 -10.060 -10.043 -10.042
-10.040 -10.040 -10.026 -10.025 -10.024 -10.022  -1.014  -1.011
 -1.007  -1.003  -0.976  -0.971  -0.946  -0.939  -0.933  -0.932
 -0.766  -0.766  -0.727  -0.725  -0.709  -0.708  -0.705  -0.662
 -0.658  -0.606  -0.602  -0.598  -0.552  -0.549  -0.543  -0.541
 -0.521  -0.516  -0.484  -0.477  -0.469  -0.467  -0.456  -0.451
 -0.441  -0.435  -0.418  -0.414  -0.411  -0.409  -0.407  -0.404
 -0.399  -0.389  -0.383  -0.371  -0.368  -0.362  -0.358  -0.345
 -0.344  -0.335  -0.334  -0.332  -0.332  -0.330  -0.324  -0.315
 -0.313  -0.311  -0.310  -0.302  -0.297  -0.290  -0.290  -0.280
 -0.277  -0.253  -0.253  -0.246  -0.243  -0.236  -0.235  -0.185
 -0.176  -0.174  -0.163  -0.159  -0.157  -0.150  -0.148  -0.145
 -0.144

          Ground-State Mulliken Net Atomic Charges

     Atom                 Charge (a.u.)
  ----------------------------------------
      1 O                    -0.204840
      2 C                     0.214808
      3 C                    -0.075021
      4 C                    -0.087186
      5 C                     0.217300
      6 O                    -0.175201
      7 C                    -0.050681
      8 C                    -0.048362
      9 O                    -0.186378
     10 C                     0.211514
     11 C                    -0.082306
     12 C                    -0.080611
     13 C                     0.206265
     14 O                    -0.211142
     15 O                    -0.173466
     16 O                    -0.166683
     17 O                    -0.178646
     18 C                    -0.128047
     19 C                     0.025102
     20 C                    -0.145377
     21 C                    -0.143042
     22 C                     0.025560
     23 O                    -0.184479
     24 H                     0.077909
     25 H                     0.083046
     26 H                     0.086363
     27 H                     0.078578
     28 H                     0.071763
     29 H                     0.078565
     30 H                     0.073328
     31 H                     0.088763
     32 O                    -0.190163
     33 C                    -0.128632
     34 C                     0.023963
     35 C                    -0.145363
     36 C                    -0.142599
     37 C                     0.020585
     38 O                    -0.189883
     39 H                     0.087454
     40 H                     0.077861
     41 H                     0.091312
     42 H                     0.086523
     43 H                     0.079688
     44 H                     0.074141
     45 H                     0.079876
     46 H                     0.070415
     47 H                     0.086508
     48 H                     0.089502
     49 H                     0.089415
     50 H                     0.092077
     51 H                     0.094354
     52 H                     0.087424
     53 H                     0.075563
     54 H                     0.099355
     55 H                     0.079160
     56 H                     0.094071
  ----------------------------------------
  Sum of atomic charges =    -0.000000

                    Cartesian Multipole Moments
 -----------------------------------------------------------------
    Charge (ESU x 10^10)
                 0.0000
    Dipole Moment (Debye)
         X      -0.2393      Y       2.1096      Z      -3.1802
       Tot       3.8238
    Quadrupole Moments (Debye-Ang)
        XX    -148.7214     XY       6.9630     YY    -160.3632
        XZ      11.2996     YZ      -6.7197     ZZ    -164.4779

 Total job time:  73.34s(wall), 3490.67s(cpu)
        *  Thank you very much for using Q-Chem.  Have a nice day.  *
