 Q-Chem 5.0, Q-Chem, Inc., Pleasanton, CA (2017)
 Q-Chem 5.0.1 for Intel X86 EM64T Linux

User input:
--------------------------------------------------------------
$molecule
0  1
O -3.94934 -3.66094 2.70899
C -3.26408 -4.56952 2.26188
C -3.36658 -6.02376 2.66595
C -4.73745 -6.52338 3.15068
C -5.89497 -5.55994 3.00924
O -6.47736 -5.35235 4.22709
C -6.34171 -6.46806 5.11367
C -7.45691 -7.47768 4.86245
O -8.19026 -7.70882 6.07557
C -7.66798 -8.64808 6.9027
C -7.28767 -9.92003 6.18286
C -8.35728 -10.46707 5.22633
C -9.47014 -9.50575 4.86011
O -9.57658 -8.91791 3.79349
O -2.18256 -4.23456 1.50731
O -10.39311 -9.2655 5.83095
O -7.81872 -8.58694 8.1132
C -11.46313 -8.40678 5.6905
C -6.00163 -10.14222 5.33655
C -5.58602 -11.6151 5.42228
C -6.68913 -12.26808 4.59265
C -7.44681 -11.02279 4.10015
O -6.4083 -10.09375 3.9886
H -7.17676 -10.62921 7.03592
H -8.90987 -11.32903 5.66376
H -5.16718 -9.47102 5.63172
H -4.62335 -11.71336 4.87043
H -5.45431 -12.02541 6.44652
H -6.21326 -12.79868 3.73821
H -7.34892 -12.96931 5.14762
H -8.01855 -11.24044 3.1727
O -6.2178 -4.95263 1.99878
C -1.87884 -2.95098 1.1038
C -3.18672 -6.90818 1.40321
C -2.78079 -8.32692 1.79678
C -4.09996 -8.85707 2.2961
C -4.9952 -7.62652 2.08873
O -4.48879 -7.06653 0.90648
H -2.51892 -6.21485 3.36366
H -4.44145 -7.09878 4.02731
H -1.71673 -2.29875 1.98842
H -2.4417 -6.51356 0.67896
H -2.49981 -8.8902 0.87834
H -1.94391 -8.36149 2.52728
H -4.44001 -9.66326 1.6076
H -4.07784 -9.24314 3.33543
H -6.05997 -7.94692 2.04998
H -2.7027 -2.54186 0.48066
H -0.94908 -2.9703 0.49912
H -12.05055 -8.40087 6.63136
H -12.11911 -8.74546 4.86033
H -11.1021 -7.37576 5.4876
H -8.20113 -6.87995 4.29196
H -7.29418 -8.19922 4.10103
H -6.70845 -5.96776 6.03653
H -5.408 -6.74708 5.64189
$end

$opt
CONSTRAINT
tors           1           2           3           4     +28.421
tors           3           4           5           6    -123.158
tors           4           5           6           7     -28.421
tors           5           6           7           8     -85.263
tors           6           7           8           9    -123.158
tors           7           8           9          10     -85.263
tors           8           9          10          11     -47.368
tors           9          10          11          12     -47.368
tors          11          12          13          14    +104.211
ENDCONSTRAINT
$end

$rem
JOBTYPE                   OPT
METHOD                    B3LYP
DFT_D                     d3_op
BASIS                     STO-3G
GEOM_OPT_MAX_CYCLES       100
GEOM_OPT_TOL_GRADIENT     300
GEOM_OPT_TOL_DISPLACEMENT 1200
GEOM_OPT_TOL_ENERGY       100
SYMMETRY                  False
THRESH                    12
SCF_CONVERGENCE           8
MAX_SUB_FILE_NUM          128
MEM_STATIC                400
MEM_TOTAL                 4000
$end
--------------------------------------------------------------

   15   -1510.0576831395      7.76E-09 Convergence criterion met
 Total energy in the final basis set = -1510.05768314
   14   -1510.1375883542      2.12E-09 Convergence criterion met
 Total energy in the final basis set = -1510.13758835
   14   -1510.1853724894      2.56E-09 Convergence criterion met
 Total energy in the final basis set = -1510.18537249
   13   -1510.2148307941      6.81E-09 Convergence criterion met
 Total energy in the final basis set = -1510.21483079
   13   -1510.2316662860      7.60E-09 Convergence criterion met
 Total energy in the final basis set = -1510.23166629
   13   -1510.2415582360      5.60E-09 Convergence criterion met
 Total energy in the final basis set = -1510.24155824
   14   -1510.2488505177      1.48E-09 Convergence criterion met
 Total energy in the final basis set = -1510.24885052
   12   -1510.2536356757      8.76E-09 Convergence criterion met
   11   -1510.2591728217      3.82E-09 Convergence criterion met
 Total energy in the final basis set = -1510.25917282
   10   -1510.2592109216      6.84E-09 Convergence criterion met
 Total energy in the final basis set = -1510.25921092
   10   -1510.2592275444      8.65E-09 Convergence criterion met
 Total energy in the final basis set = -1510.25922754
   10   -1510.2592368771      4.44E-09 Convergence criterion met
 Total energy in the final basis set = -1510.25923688
    9   -1510.2592419770      5.36E-09 Convergence criterion met
 Total energy in the final basis set = -1510.25924198
    9   -1510.2592445560      4.71E-09 Convergence criterion met
 Total energy in the final basis set = -1510.25924456

             Standard Nuclear Orientation (Angstroms)
    I     Atom           X                Y                Z
 ----------------------------------------------------------------
    1      O       4.4265417768    -1.7497228297    -0.9449133649
    2      C       4.7063774380    -0.5850604668    -0.5869989459
    3      C       3.7193097606     0.6317461037    -0.4867470581
    4      C       2.2146969091     0.2346027519    -0.1867208411
    5      C       2.0207274008    -1.2770654576     0.2415686700
    6      O       1.1307978053    -2.1457367829    -0.4990102892
    7      C       0.0011170712    -1.4726719900    -1.1685012185
    8      C      -1.2154965930    -1.2937430532    -0.1700520001
    9      O      -2.4470999273    -1.9216019725    -0.6983357705
   10      C      -3.1947444966    -1.0690516345    -1.5872835960
   11      C      -3.4983983781     0.4397957679    -1.1836588066
   12      C      -4.0509639161     0.6414053904     0.2929906380
   13      C      -3.9777703129    -0.6577499746     1.1749263909
   14      O      -3.1598168380    -0.9147993651     2.0837748250
   15      O       6.0250628115    -0.1465058221    -0.2478118732
   16      O      -5.0130290380    -1.5371624876     0.7315467527
   17      O      -3.7479589782    -1.5926963007    -2.5806094793
   18      C      -4.8735078320    -2.8550018419     1.3942048232
   19      C      -2.3041406763     1.4886501254    -1.2088530794
   20      C      -2.9147269630     2.9393938182    -1.2993811659
   21      C      -3.4611984966     3.1387852922     0.1651339872
   22      C      -3.0723173057     1.7649784254     0.8305354284
   23      O      -1.7719703068     1.4465091459     0.1772990548
   24      H      -4.2670035588     0.7519260749    -1.9131405148
   25      H      -5.0984952933     0.9903462747     0.2671022501
   26      H      -1.5017180366     1.2664372384    -1.9384167505
   27      H      -2.1268437622     3.6714762391    -1.5382342483
   28      H      -3.7055983328     3.0090884006    -2.0630792563
   29      H      -2.9522149099     3.9725505894     0.6746308486
   30      H      -4.5479121046     3.3173801803     0.1924487210
   31      H      -2.9479408396     1.7741621531     1.9307690571
   32      O       2.6393049150    -1.7907944200     1.1992228798
   33      C       6.9735798046    -1.2792948350    -0.3555871585
   34      C       4.0133773130     1.6395893998     0.7060990864
   35      C       3.3213747614     3.0161852617     0.3551877725
   36      C       1.8057223907     2.6607074416     0.5896367500
   37      C       1.9151542045     1.1605921088     1.0717924003
   38      O       3.1906565666     1.1207566283     1.8222605373
   39      H       3.7754065079     1.1655035114    -1.4544890099
   40      H       1.5806258422     0.5122401265    -1.0399302337
   41      H       7.0222753007    -1.6734895492    -1.3913663702
   42      H       5.0800320590     1.6956715020     0.9960510551
   43      H       3.6611473850     3.8035964633     1.0468808296
   44      H       3.5312335434     3.3390230979    -0.6770234495
   45      H       1.3592525445     3.2859217683     1.3787556012
   46      H       1.1950403022     2.7566276528    -0.3225684574
   47      H       1.0778325179     0.8101193427     1.7060595850
   48      H       6.6928659012    -2.1095219719     0.3240184200
   49      H       7.9618036688    -0.8781796313    -0.0646167053
   50      H      -5.7269267044    -3.4648986924     1.0458020625
   51      H      -4.9032793617    -2.7638143136     2.4990133913
   52      H      -3.9213009733    -3.3418844566     1.0991165662
   53      H      -0.9773601437    -1.8720367773     0.7466426010
   54      H      -1.3679564128    -0.2179363511     0.1120042003
   55      H      -0.3132808094    -2.1747389617    -1.9708892853
   56      H       0.2705161672    -0.5142449648    -1.6520614883
 ----------------------------------------------------------------

    9   -1510.2592453931      3.75E-09 Convergence criterion met
 Total energy in the final basis set = -1510.25924539
 Final energy is   -1510.25924539313
 **  OPTIMIZATION CONVERGED  **

                    Orbital Energies (a.u.)
 --------------------------------------------------------------

 Alpha MOs
 -- Occupied --
-18.937 -18.934 -18.926 -18.924 -18.920 -18.887 -18.885 -18.880
-18.874 -18.865 -10.105 -10.104 -10.098 -10.090 -10.084 -10.080
-10.065 -10.062 -10.062 -10.059 -10.057 -10.051 -10.048 -10.044
-10.040 -10.038 -10.038 -10.034 -10.021 -10.020  -1.017  -1.010
 -1.005  -0.999  -0.993  -0.968  -0.941  -0.938  -0.935  -0.924
 -0.780  -0.761  -0.738  -0.723  -0.720  -0.705  -0.694  -0.665
 -0.660  -0.610  -0.599  -0.593  -0.566  -0.556  -0.545  -0.538
 -0.526  -0.511  -0.489  -0.473  -0.471  -0.461  -0.454  -0.453
 -0.447  -0.433  -0.421  -0.418  -0.415  -0.412  -0.409  -0.401
 -0.398  -0.382  -0.375  -0.374  -0.369  -0.363  -0.360  -0.354
 -0.351  -0.345  -0.343  -0.331  -0.329  -0.327  -0.323  -0.318
 -0.313  -0.309  -0.304  -0.301  -0.296  -0.292  -0.289  -0.279
 -0.277  -0.266  -0.258  -0.253  -0.237  -0.234  -0.231  -0.186
 -0.180  -0.176  -0.171  -0.161  -0.153  -0.151  -0.148  -0.142
 -0.135

          Ground-State Mulliken Net Atomic Charges

     Atom                 Charge (a.u.)
  ----------------------------------------
      1 O                    -0.208206
      2 C                     0.212217
      3 C                    -0.078031
      4 C                    -0.083626
      5 C                     0.210043
      6 O                    -0.167322
      7 C                    -0.054595
      8 C                    -0.082056
      9 O                    -0.179125
     10 C                     0.205279
     11 C                    -0.086119
     12 C                    -0.082541
     13 C                     0.209376
     14 O                    -0.212326
     15 O                    -0.170776
     16 O                    -0.169937
     17 O                    -0.192932
     18 C                    -0.128542
     19 C                     0.022577
     20 C                    -0.142152
     21 C                    -0.142734
     22 C                     0.025622
     23 O                    -0.184963
     24 H                     0.089884
     25 H                     0.090142
     26 H                     0.082866
     27 H                     0.080895
     28 H                     0.079842
     29 H                     0.082113
     30 H                     0.079006
     31 H                     0.094905
     32 O                    -0.196028
     33 C                    -0.127832
     34 C                     0.024504
     35 C                    -0.143921
     36 C                    -0.143741
     37 C                     0.026355
     38 O                    -0.184921
     39 H                     0.081518
     40 H                     0.073641
     41 H                     0.088351
     42 H                     0.092280
     43 H                     0.077688
     44 H                     0.071432
     45 H                     0.077902
     46 H                     0.070323
     47 H                     0.086239
     48 H                     0.094401
     49 H                     0.090169
     50 H                     0.092184
     51 H                     0.089593
     52 H                     0.097209
     53 H                     0.091082
     54 H                     0.109098
     55 H                     0.092265
     56 H                     0.071425
  ----------------------------------------
  Sum of atomic charges =     0.000000

                    Cartesian Multipole Moments
 -----------------------------------------------------------------
    Charge (ESU x 10^10)
                 0.0000
    Dipole Moment (Debye)
         X      -1.6162      Y       5.5017      Z      -1.6040
       Tot       5.9543
    Quadrupole Moments (Debye-Ang)
        XX    -146.3344     XY      -2.6852     YY    -160.7491
        XZ     -12.9433     YZ      -5.7157     ZZ    -166.7301

 Total job time:  60.36s(wall), 2874.87s(cpu)
        *  Thank you very much for using Q-Chem.  Have a nice day.  *
