 Q-Chem 5.0, Q-Chem, Inc., Pleasanton, CA (2017)
 Q-Chem 5.0.1 for Intel X86 EM64T Linux

User input:
--------------------------------------------------------------
$molecule
0  1
O 4.4265417768 -1.7497228297 -0.9449133649
C 4.706377438 -0.5850604668 -0.5869989459
C 3.7193097606 0.6317461037 -0.4867470581
C 2.2146969091 0.2346027519 -0.1867208411
C 2.0207274008 -1.2770654576 0.24156867
O 1.1307978053 -2.1457367829 -0.4990102892
C 0.0011170712 -1.47267199 -1.1685012185
C -1.215496593 -1.2937430532 -0.1700520001
O -2.4470999273 -1.9216019725 -0.6983357705
C -3.1947444966 -1.0690516345 -1.587283596
C -3.4983983781 0.4397957679 -1.1836588066
C -4.0509639161 0.6414053904 0.292990638
C -3.9777703129 -0.6577499746 1.1749263909
O -3.159816838 -0.9147993651 2.083774825
O 6.0250628115 -0.1465058221 -0.2478118732
O -5.013029038 -1.5371624876 0.7315467527
O -3.7479589782 -1.5926963007 -2.5806094793
C -4.873507832 -2.8550018419 1.3942048232
C -2.3041406763 1.4886501254 -1.2088530794
C -2.914726963 2.9393938182 -1.2993811659
C -3.4611984966 3.1387852922 0.1651339872
C -3.0723173057 1.7649784254 0.8305354284
O -1.7719703068 1.4465091459 0.1772990548
H -4.2670035588 0.7519260749 -1.9131405148
H -5.0984952933 0.9903462747 0.2671022501
H -1.5017180366 1.2664372384 -1.9384167505
H -2.1268437622 3.6714762391 -1.5382342483
H -3.7055983328 3.0090884006 -2.0630792563
H -2.9522149099 3.9725505894 0.6746308486
H -4.5479121046 3.3173801803 0.192448721
H -2.9479408396 1.7741621531 1.9307690571
O 2.639304915 -1.79079442 1.1992228798
C 6.9735798046 -1.279294835 -0.3555871585
C 4.013377313 1.6395893998 0.7060990864
C 3.3213747614 3.0161852617 0.3551877725
C 1.8057223907 2.6607074416 0.58963675
C 1.9151542045 1.1605921088 1.0717924003
O 3.1906565666 1.1207566283 1.8222605373
H 3.7754065079 1.1655035114 -1.4544890099
H 1.5806258422 0.5122401265 -1.0399302337
H 7.0222753007 -1.6734895492 -1.3913663702
H 5.080032059 1.695671502 0.9960510551
H 3.661147385 3.8035964633 1.0468808296
H 3.5312335434 3.3390230979 -0.6770234495
H 1.3592525445 3.2859217683 1.3787556012
H 1.1950403022 2.7566276528 -0.3225684574
H 1.0778325179 0.8101193427 1.706059585
H 6.6928659012 -2.1095219719 0.32401842
H 7.9618036688 -0.8781796313 -0.0646167053
H -5.7269267044 -3.4648986924 1.0458020625
H -4.9032793617 -2.7638143136 2.4990133913
H -3.9213009733 -3.3418844566 1.0991165662
H -0.9773601437 -1.8720367773 0.746642601
H -1.3679564128 -0.2179363511 0.1120042003
H -0.3132808094 -2.1747389617 -1.9708892853
H 0.2705161672 -0.5142449648 -1.6520614883
$end

$rem
JOBTYPE                   OPT
METHOD                    B3LYP
DFT_D                     d3_op
BASIS                     STO-3G
GEOM_OPT_MAX_CYCLES       100
GEOM_OPT_TOL_GRADIENT     300
GEOM_OPT_TOL_DISPLACEMENT 1200
GEOM_OPT_TOL_ENERGY       100
SYMMETRY                  False
THRESH                    12
SCF_CONVERGENCE           8
MAX_SUB_FILE_NUM          128
MEM_STATIC                400
MEM_TOTAL                 4000
$end
--------------------------------------------------------------

   16   -1510.2593428672      5.99E-09 Convergence criterion met
 Total energy in the final basis set = -1510.25934287
   14   -1510.2608485122      7.56E-09 Convergence criterion met
 Total energy in the final basis set = -1510.26084851
   14   -1510.2623111945      6.34E-09 Convergence criterion met
 Total energy in the final basis set = -1510.26231119
   14   -1510.2578138353      5.85E-09 Convergence criterion met
 Total energy in the final basis set = -1510.25781384
   14   -1510.2657322487      7.46E-09 Convergence criterion met
 Total energy in the final basis set = -1510.26573225
   14   -1510.2669848800      2.51E-09 Convergence criterion met
 Total energy in the final basis set = -1510.26698488
   13   -1510.2673517035      9.75E-09 Convergence criterion met
 Total energy in the final basis set = -1510.26735170
   14   -1510.2674630633      1.65E-09 Convergence criterion met
   11   -1510.2764924583      9.94E-09 Convergence criterion met
 Total energy in the final basis set = -1510.27649246
   11   -1510.2765179699      6.75E-09 Convergence criterion met
 Total energy in the final basis set = -1510.27651797
   11   -1510.2765052504      3.16E-09 Convergence criterion met
 Total energy in the final basis set = -1510.27650525
   10   -1510.2765154970      9.43E-09 Convergence criterion met
 Total energy in the final basis set = -1510.27651550
   10   -1510.2765152457      2.63E-09 Convergence criterion met
 Total energy in the final basis set = -1510.27651525
    9   -1510.2765157733      5.34E-09 Convergence criterion met
 Total energy in the final basis set = -1510.27651577

             Standard Nuclear Orientation (Angstroms)
    I     Atom           X                Y                Z
 ----------------------------------------------------------------
    1      O       3.7975895940    -1.6932835133     0.0152332758
    2      C       3.5965863486    -0.6513076177    -0.6477637900
    3      C       2.6142640178     0.5154428728    -0.2966199520
    4      C       1.7385898359     0.2143117794     0.9847225766
    5      C       1.9013892206    -1.2263425553     1.6208829330
    6      O       1.2225672325    -2.3499508551     1.0164646182
    7      C       0.3930836663    -2.0629543654    -0.1714907188
    8      C      -1.0753500134    -1.6315792117     0.2339162640
    9      O      -2.0133531641    -1.9936942970    -0.8551577507
   10      C      -2.3623837812    -0.9663367795    -1.7921288217
   11      C      -2.4842398909     0.5708301874    -1.3832919837
   12      C      -3.3766379314     0.8833250558    -0.1043934148
   13      C      -3.8715918347    -0.3978245047     0.6582086517
   14      O      -3.6147559124    -0.7280606936     1.8354043531
   15      O       4.2603011036    -0.3366867121    -1.8739396653
   16      O      -4.6975739977    -1.1369781297    -0.2420081764
   17      O      -2.7103905584    -1.3379235835    -2.9368852508
   18      C      -5.0804177698    -2.4346081967     0.3615629124
   19      C      -1.1570170763     1.3574563831    -1.0167572842
   20      C      -1.4239112513     2.9033997240    -1.1647877016
   21      C      -2.2957605342     3.1982142552     0.1149338828
   22      C      -2.3914400838     1.7655191610     0.7616213035
   23      O      -1.0511035752     1.1910774189     0.4570830293
   24      H      -2.9444139230     1.0292714656    -2.2765138201
   25      H      -4.2673777129     1.4652376695    -0.4025445771
   26      H      -0.2394140759     0.9868224815    -1.5121746974
   27      H      -0.4732481227     3.4596208832    -1.1380248545
   28      H      -1.9479247058     3.1440605225    -2.1033162735
   29      H      -1.7850679453     3.8970786335     0.7965390978
   30      H      -3.2890932163     3.6054127685    -0.1316429087
   31      H      -2.5795058895     1.7265604441     1.8524228089
   32      O       2.5023958275    -1.4469175151     2.6938952573
   33      C       5.2215648067    -1.4105644057    -2.2189839523
   34      C       3.4162241598     1.8025058287     0.1829425037
   35      C       2.4120081088     3.0216895809     0.2439274199
   36      C       1.6020285185     2.6884654268     1.5519750496
   37      C       2.2779206565     1.3271944656     1.9797596735
   38      O       3.6989134201     1.5044071876     1.6019728965
   39      H       2.0001119646     0.7401902946    -1.1875956073
   40      H       0.6710821644     0.4114020491     0.7870185624
   41      H       4.7130663732    -2.3889391155    -2.3391373389
   42      H       4.3532641967     1.9876371470    -0.3781306685
   43      H       2.9653370857     3.9697447387     0.3373738508
   44      H       1.7728174491     3.0749419380    -0.6521130114
   45      H       1.7422389305     3.4605407232     2.3244752484
   46      H       0.5247960732     2.5512747969     1.3566934400
   47      H       2.1956460871     1.0542816421     3.0493984944
   48      H       6.0086445294    -1.5153670845    -1.4446860888
   49      H       5.6818878816    -1.1109650513    -3.1783597861
   50      H      -5.8038776221    -2.8945952945    -0.3360424200
   51      H      -5.5489461286    -2.3002528572     1.3574601951
   52      H      -4.1946978883    -3.0944517629     0.4655966886
   53      H      -1.3817135351    -2.2365662187     1.1118823036
   54      H      -1.1159769423    -0.5454402292     0.4935756752
   55      H       0.3312731063    -3.0261034559    -0.7207568665
   56      H       0.8478310160    -1.3139285008    -0.8501853932
 ----------------------------------------------------------------

    9   -1510.2765155877      2.90E-09 Convergence criterion met
 Total energy in the final basis set = -1510.27651559
 Final energy is   -1510.27651558766
 **  OPTIMIZATION CONVERGED  **

                    Orbital Energies (a.u.)
 --------------------------------------------------------------

 Alpha MOs
 -- Occupied --
-18.946 -18.941 -18.941 -18.930 -18.915 -18.889 -18.886 -18.885
-18.880 -18.854 -10.113 -10.106 -10.104 -10.092 -10.090 -10.086
-10.069 -10.068 -10.065 -10.061 -10.058 -10.055 -10.052 -10.051
-10.047 -10.045 -10.041 -10.021 -10.021 -10.014  -1.025  -1.017
 -1.013  -1.006  -0.988  -0.968  -0.949  -0.942  -0.939  -0.920
 -0.788  -0.762  -0.744  -0.731  -0.721  -0.703  -0.698  -0.671
 -0.665  -0.617  -0.602  -0.590  -0.574  -0.565  -0.547  -0.537
 -0.531  -0.509  -0.496  -0.485  -0.477  -0.464  -0.459  -0.457
 -0.449  -0.432  -0.425  -0.423  -0.420  -0.416  -0.414  -0.407
 -0.396  -0.385  -0.382  -0.376  -0.373  -0.369  -0.363  -0.362
 -0.354  -0.350  -0.343  -0.339  -0.334  -0.332  -0.325  -0.323
 -0.316  -0.312  -0.307  -0.305  -0.301  -0.293  -0.290  -0.283
 -0.275  -0.265  -0.263  -0.259  -0.242  -0.230  -0.228  -0.189
 -0.188  -0.184  -0.177  -0.168  -0.157  -0.152  -0.149  -0.142
 -0.132

          Ground-State Mulliken Net Atomic Charges

     Atom                 Charge (a.u.)
  ----------------------------------------
      1 O                    -0.198890
      2 C                     0.208719
      3 C                    -0.081273
      4 C                    -0.100980
      5 C                     0.214078
      6 O                    -0.170785
      7 C                    -0.052772
      8 C                    -0.078966
      9 O                    -0.178353
     10 C                     0.205942
     11 C                    -0.085092
     12 C                    -0.082529
     13 C                     0.209379
     14 O                    -0.209980
     15 O                    -0.171382
     16 O                    -0.167569
     17 O                    -0.198487
     18 C                    -0.127859
     19 C                     0.023024
     20 C                    -0.142546
     21 C                    -0.142717
     22 C                     0.026134
     23 O                    -0.186229
     24 H                     0.092663
     25 H                     0.091485
     26 H                     0.085123
     27 H                     0.082561
     28 H                     0.082064
     29 H                     0.084339
     30 H                     0.081117
     31 H                     0.099647
     32 O                    -0.205233
     33 C                    -0.128627
     34 C                     0.025884
     35 C                    -0.144303
     36 C                    -0.149500
     37 C                     0.026088
     38 O                    -0.189039
     39 H                     0.074936
     40 H                     0.095364
     41 H                     0.091238
     42 H                     0.084408
     43 H                     0.076976
     44 H                     0.065808
     45 H                     0.074438
     46 H                     0.078099
     47 H                     0.090799
     48 H                     0.092635
     49 H                     0.091360
     50 H                     0.094742
     51 H                     0.091616
     52 H                     0.095834
     53 H                     0.088865
     54 H                     0.105160
     55 H                     0.091802
     56 H                     0.070788
  ----------------------------------------
  Sum of atomic charges =     0.000000

                    Cartesian Multipole Moments
 -----------------------------------------------------------------
    Charge (ESU x 10^10)
                 0.0000
    Dipole Moment (Debye)
         X      -2.8508      Y       4.6384      Z      -2.9661
       Tot       6.2000
    Quadrupole Moments (Debye-Ang)
        XX    -156.7819     XY      -2.0470     YY    -157.8620
        XZ     -19.2740     YZ       2.0318     ZZ    -173.6206

 Total job time:  109.39s(wall), 5216.21s(cpu)
        *  Thank you very much for using Q-Chem.  Have a nice day.  *
