 Q-Chem 5.0, Q-Chem, Inc., Pleasanton, CA (2017)
 Q-Chem 5.0.1 for Intel X86 EM64T Linux

User input:
--------------------------------------------------------------
$molecule
0  1
O -3.94934 -3.66094 2.70899
C -3.26408 -4.56952 2.26188
C -3.36658 -6.02376 2.66595
C -4.77372 -6.64113 2.71769
C -5.90468 -5.78727 2.1886
O -6.35635 -4.95411 3.1721
C -7.33357 -5.564 4.022
C -7.78919 -4.57699 5.09174
O -6.88738 -4.61529 6.20894
C -7.46577 -4.49456 7.42961
C -6.64222 -3.67246 8.3922
C -5.55659 -4.45401 9.14643
C -5.21627 -5.82037 8.58612
O -4.99984 -6.06995 7.40907
O -2.4205 -4.27563 1.23553
O -5.20824 -6.84296 9.48088
O -8.65343 -4.70424 7.64447
C -4.9372 -8.15597 9.15713
C -5.801 -2.55575 7.74153
C -5.47711 -1.48007 8.77776
C -4.47652 -2.2159 9.64608
C -4.35251 -3.53206 8.87042
O -4.54594 -3.15212 7.52807
H -7.35814 -3.20955 9.10992
H -5.7621 -4.55806 10.23548
H -6.28992 -2.10084 6.85239
H -4.94718 -0.65871 8.24414
H -6.35457 -1.06094 9.31563
H -3.5139 -1.65834 9.62039
H -4.79159 -2.38366 10.69874
H -3.38334 -4.02809 9.10081
O -6.53287 -5.99209 1.15964
C -2.2418 -3.01459 0.7058
C -2.64806 -6.9968 1.71008
C -2.34275 -8.3137 2.42657
C -3.72019 -8.93383 2.47079
C -4.53974 -7.84616 1.77336
O -3.65547 -7.34966 0.79748
H -2.90458 -6.06078 3.67762
H -5.03638 -7.03548 3.72134
H -1.86391 -2.32146 1.48752
H -1.70827 -6.59149 1.27779
H -1.69624 -8.93785 1.76927
H -1.84977 -8.17784 3.41336
H -3.71615 -9.84244 1.82734
H -4.09455 -9.19659 3.48364
H -5.48707 -8.28897 1.39395
H -3.20085 -2.63221 0.29552
H -1.49785 -3.06728 -0.11531
H -4.99753 -8.77686 10.07436
H -3.91359 -8.24184 8.73357
H -5.68083 -8.53044 8.42146
H -7.88879 -3.55075 4.67716
H -8.80736 -4.9229 5.37836
H -7.01174 -6.51633 4.49465
H -8.21783 -5.78441 3.38035
$end

$opt
CONSTRAINT
tors           1           2           3           4     +47.368
tors           3           4           5           6     -85.263
tors           4           5           6           7     -85.263
tors           5           6           7           8    -180.000
tors           6           7           8           9     -85.263
tors           7           8           9          10    -142.105
tors           8           9          10          11    -142.105
tors           9          10          11          12     -85.263
tors          11          12          13          14     +47.368
ENDCONSTRAINT
$end

$rem
JOBTYPE                   OPT
METHOD                    B3LYP
DFT_D                     d3_op
BASIS                     STO-3G
GEOM_OPT_MAX_CYCLES       100
GEOM_OPT_TOL_GRADIENT     300
GEOM_OPT_TOL_DISPLACEMENT 1200
GEOM_OPT_TOL_ENERGY       100
SYMMETRY                  False
THRESH                    12
SCF_CONVERGENCE           8
MAX_SUB_FILE_NUM          128
MEM_STATIC                400
MEM_TOTAL                 4000
$end
--------------------------------------------------------------

   15   -1510.1111863855      7.11E-09 Convergence criterion met
 Total energy in the final basis set = -1510.11118639
   14   -1510.1818162416      3.80E-09 Convergence criterion met
 Total energy in the final basis set = -1510.18181624
   14   -1510.2199045579      6.00E-09 Convergence criterion met
 Total energy in the final basis set = -1510.21990456
   14   -1510.2372208252      4.75E-09 Convergence criterion met
 Total energy in the final basis set = -1510.23722083
   14   -1510.2438894619      2.99E-09 Convergence criterion met
 Total energy in the final basis set = -1510.24388946
   14   -1510.2469350195      1.75E-09 Convergence criterion met
 Total energy in the final basis set = -1510.24693502
   13   -1510.2483767462      2.46E-09 Convergence criterion met
 Total energy in the final basis set = -1510.24837675
   13   -1510.2487759405      5.38E-09 Convergence criterion met
   11   -1510.2499586812      5.51E-09 Convergence criterion met
 Total energy in the final basis set = -1510.24995868
   11   -1510.2499865141      4.24E-09 Convergence criterion met
 Total energy in the final basis set = -1510.24998651
   11   -1510.2500095141      3.35E-09 Convergence criterion met
 Total energy in the final basis set = -1510.25000951
   10   -1510.2500220682      8.96E-09 Convergence criterion met
 Total energy in the final basis set = -1510.25002207
   11   -1510.2500269942      2.80E-09 Convergence criterion met
 Total energy in the final basis set = -1510.25002699
   10   -1510.2500281698      4.92E-09 Convergence criterion met
 Total energy in the final basis set = -1510.25002817

             Standard Nuclear Orientation (Angstroms)
    I     Atom           X                Y                Z
 ----------------------------------------------------------------
    1      O      -2.6521489564    -2.5122589179    -0.1409685779
    2      C      -3.3611788947    -1.8038423734     0.6074612718
    3      C      -3.1229179743    -0.2882233856     0.9564572029
    4      C      -2.8246964654     0.5925406924    -0.3336538466
    5      C      -2.6522589028    -0.2520720982    -1.6552305656
    6      O      -1.2923333934    -0.7521184725    -1.8418870864
    7      C      -0.4841638217     0.2933469839    -2.5019021374
    8      C       0.9565129845    -0.2949798894    -2.6756819418
    9      O       1.7191725190    -0.0604351760    -1.4269406153
   10      C       3.0859652942     0.2677066078    -1.7218202544
   11      C       4.0431909654    -0.3925956044    -0.6597871463
   12      C       4.2457452183     0.4589839078     0.6659041678
   13      C       3.5369396026     1.8538806998     0.6291822649
   14      O       2.3656239768     2.1159847565     0.2791270642
   15      O      -4.4930429607    -2.3007244246     1.3269109138
   16      O       4.4652833777     2.8363777553     1.1063591433
   17      O       3.4510431292     0.8941482054    -2.7418183778
   18      C       3.8291355685     4.1743847277     1.1070241323
   19      C       3.4085043483    -1.7186472032    -0.0619805042
   20      C       4.5366292699    -2.5167940613     0.7064419975
   21      C       4.6644904286    -1.6714925599     2.0279927923
   22      C       3.6165073269    -0.5228856557     1.7521633910
   23      O       2.5336287324    -1.2122262093     1.0205943405
   24      H       5.0111993248    -0.5731892471    -1.1603653201
   25      H       5.3171757645     0.6346745986     0.8670285248
   26      H       2.8186616935    -2.3117001131    -0.7865430013
   27      H       4.2073381687    -3.5471879725     0.9140298303
   28      H       5.4777327362    -2.5542712793     0.1350503430
   29      H       4.3664835975    -2.2571309829     2.9123740963
   30      H       5.6815808496    -1.2802770144     2.1892982306
   31      H       3.2177981769    -0.0195239790     2.6541961180
   32      O      -3.5749359513    -0.5598459758    -2.4364526317
   33      C      -4.6982993506    -3.7345208547     1.0168542145
   34      C      -4.4403624950     0.4151640443     1.4858070980
   35      C      -4.0743376910     1.8454363066     2.0510538029
   36      C      -3.8887224875     2.6655774128     0.7209009372
   37      C      -4.1031169703     1.5344915080    -0.3582164107
   38      O      -5.1760910730     0.7017225763     0.2317187526
   39      H      -2.2890092330    -0.2270920652     1.6802487852
   40      H      -1.9011619927     1.1775228934    -0.1784066573
   41      H      -3.8254709397    -4.3474741967     1.3217874333
   42      H      -5.0491692523    -0.2223223886     2.1546270639
   43      H      -4.8999841318     2.2432144821     2.6618567766
   44      H      -3.1600209312     1.8233733588     2.6654313310
   45      H      -4.6597196526     3.4459860078     0.6182872040
   46      H      -2.8955192691     3.1360737799     0.6439839338
   47      H      -4.3969422849     1.8831309167    -1.3673402901
   48      H      -4.8801662719    -3.8943371989    -0.0654256085
   49      H      -5.5893245770    -4.0449524689     1.5929602390
   50      H       4.5978435692     4.8784397214     1.4751022608
   51      H       2.9452671684     4.2060159481     1.7764682009
   52      H       3.5087245953     4.4733740992     0.0880577241
   53      H       0.8855204936    -1.3897563081    -2.8614238458
   54      H       1.4730052723     0.1964236249    -3.5291630228
   55      H      -0.4229969084     1.2305986680    -1.9022198287
   56      H      -0.9010198522     0.5487959505    -3.5043638697
 ----------------------------------------------------------------

    9   -1510.2500286192      3.80E-09 Convergence criterion met
 Total energy in the final basis set = -1510.25002862
 Final energy is   -1510.25002861916
 **  OPTIMIZATION CONVERGED  **

                    Orbital Energies (a.u.)
 --------------------------------------------------------------

 Alpha MOs
 -- Occupied --
-18.937 -18.933 -18.917 -18.893 -18.891 -18.889 -18.882 -18.877
-18.876 -18.872 -10.100 -10.098 -10.097 -10.095 -10.066 -10.066
-10.064 -10.062 -10.061 -10.059 -10.055 -10.053 -10.038 -10.037
-10.035 -10.029 -10.021 -10.020 -10.017 -10.016  -1.013  -1.009
 -1.004  -0.995  -0.970  -0.965  -0.937  -0.934  -0.932  -0.923
 -0.763  -0.757  -0.724  -0.718  -0.710  -0.701  -0.693  -0.665
 -0.658  -0.603  -0.594  -0.577  -0.546  -0.542  -0.537  -0.534
 -0.514  -0.508  -0.484  -0.475  -0.462  -0.456  -0.445  -0.441
 -0.433  -0.428  -0.415  -0.414  -0.409  -0.409  -0.406  -0.403
 -0.388  -0.380  -0.373  -0.370  -0.362  -0.354  -0.348  -0.346
 -0.341  -0.339  -0.334  -0.329  -0.327  -0.324  -0.321  -0.310
 -0.307  -0.306  -0.303  -0.298  -0.291  -0.285  -0.279  -0.275
 -0.272  -0.257  -0.251  -0.237  -0.234  -0.232  -0.229  -0.180
 -0.174  -0.164  -0.156  -0.155  -0.150  -0.146  -0.144  -0.143
 -0.138

          Ground-State Mulliken Net Atomic Charges

     Atom                 Charge (a.u.)
  ----------------------------------------
      1 O                    -0.206807
      2 C                     0.209768
      3 C                    -0.076146
      4 C                    -0.084104
      5 C                     0.221341
      6 O                    -0.187251
      7 C                    -0.044660
      8 C                    -0.047419
      9 O                    -0.170339
     10 C                     0.211744
     11 C                    -0.079044
     12 C                    -0.079860
     13 C                     0.205918
     14 O                    -0.210261
     15 O                    -0.168352
     16 O                    -0.169446
     17 O                    -0.212001
     18 C                    -0.129041
     19 C                     0.028390
     20 C                    -0.144949
     21 C                    -0.143249
     22 C                     0.026263
     23 O                    -0.181812
     24 H                     0.084785
     25 H                     0.086275
     26 H                     0.086654
     27 H                     0.078534
     28 H                     0.073310
     29 H                     0.078049
     30 H                     0.073872
     31 H                     0.082109
     32 O                    -0.181540
     33 C                    -0.127410
     34 C                     0.022949
     35 C                    -0.145056
     36 C                    -0.143422
     37 C                     0.023342
     38 O                    -0.189474
     39 H                     0.088589
     40 H                     0.082315
     41 H                     0.089051
     42 H                     0.092186
     43 H                     0.077034
     44 H                     0.073065
     45 H                     0.076949
     46 H                     0.073107
     47 H                     0.084015
     48 H                     0.093064
     49 H                     0.090463
     50 H                     0.090698
     51 H                     0.087948
     52 H                     0.090320
     53 H                     0.089232
     54 H                     0.093200
     55 H                     0.080811
     56 H                     0.076293
  ----------------------------------------
  Sum of atomic charges =    -0.000000

                    Cartesian Multipole Moments
 -----------------------------------------------------------------
    Charge (ESU x 10^10)
                 0.0000
    Dipole Moment (Debye)
         X       2.6483      Y       0.9941      Z       2.6229
       Tot       3.8576
    Quadrupole Moments (Debye-Ang)
        XX    -158.9746     XY      -3.0741     YY    -147.4035
        XZ      -2.5079     YZ      -0.2363     ZZ    -158.1639

 Total job time:  55.09s(wall), 2623.88s(cpu)
        *  Thank you very much for using Q-Chem.  Have a nice day.  *
