 Q-Chem 5.0, Q-Chem, Inc., Pleasanton, CA (2017)
 Q-Chem 5.0.1 for Intel X86 EM64T Linux

User input:
--------------------------------------------------------------
$molecule
0  1
O -2.6521489564 -2.5122589179 -0.1409685779
C -3.3611788947 -1.8038423734 0.6074612718
C -3.1229179743 -0.2882233856 0.9564572029
C -2.8246964654 0.5925406924 -0.3336538466
C -2.6522589028 -0.2520720982 -1.6552305656
O -1.2923333934 -0.7521184725 -1.8418870864
C -0.4841638217 0.2933469839 -2.5019021374
C 0.9565129845 -0.2949798894 -2.6756819418
O 1.719172519 -0.060435176 -1.4269406153
C 3.0859652942 0.2677066078 -1.7218202544
C 4.0431909654 -0.3925956044 -0.6597871463
C 4.2457452183 0.4589839078 0.6659041678
C 3.5369396026 1.8538806998 0.6291822649
O 2.3656239768 2.1159847565 0.2791270642
O -4.4930429607 -2.3007244246 1.3269109138
O 4.4652833777 2.8363777553 1.1063591433
O 3.4510431292 0.8941482054 -2.7418183778
C 3.8291355685 4.1743847277 1.1070241323
C 3.4085043483 -1.7186472032 -0.0619805042
C 4.5366292699 -2.5167940613 0.7064419975
C 4.6644904286 -1.6714925599 2.0279927923
C 3.6165073269 -0.5228856557 1.752163391
O 2.5336287324 -1.2122262093 1.0205943405
H 5.0111993248 -0.5731892471 -1.1603653201
H 5.3171757645 0.6346745986 0.8670285248
H 2.8186616935 -2.3117001131 -0.7865430013
H 4.2073381687 -3.5471879725 0.9140298303
H 5.4777327362 -2.5542712793 0.135050343
H 4.3664835975 -2.2571309829 2.9123740963
H 5.6815808496 -1.2802770144 2.1892982306
H 3.2177981769 -0.019523979 2.654196118
O -3.5749359513 -0.5598459758 -2.4364526317
C -4.6982993506 -3.7345208547 1.0168542145
C -4.440362495 0.4151640443 1.485807098
C -4.074337691 1.8454363066 2.0510538029
C -3.8887224875 2.6655774128 0.7209009372
C -4.1031169703 1.534491508 -0.3582164107
O -5.176091073 0.7017225763 0.2317187526
H -2.289009233 -0.2270920652 1.6802487852
H -1.9011619927 1.1775228934 -0.1784066573
H -3.8254709397 -4.3474741967 1.3217874333
H -5.0491692523 -0.2223223886 2.1546270639
H -4.8999841318 2.2432144821 2.6618567766
H -3.1600209312 1.8233733588 2.665431331
H -4.6597196526 3.4459860078 0.618287204
H -2.8955192691 3.1360737799 0.6439839338
H -4.3969422849 1.8831309167 -1.3673402901
H -4.8801662719 -3.8943371989 -0.0654256085
H -5.589324577 -4.0449524689 1.592960239
H 4.5978435692 4.8784397214 1.4751022608
H 2.9452671684 4.2060159481 1.7764682009
H 3.5087245953 4.4733740992 0.0880577241
H 0.8855204936 -1.3897563081 -2.8614238458
H 1.4730052723 0.1964236249 -3.5291630228
H -0.4229969084 1.230598668 -1.9022198287
H -0.9010198522 0.5487959505 -3.5043638697
$end

$rem
JOBTYPE                   OPT
METHOD                    B3LYP
DFT_D                     d3_op
BASIS                     STO-3G
GEOM_OPT_MAX_CYCLES       100
GEOM_OPT_TOL_GRADIENT     300
GEOM_OPT_TOL_DISPLACEMENT 1200
GEOM_OPT_TOL_ENERGY       100
SYMMETRY                  False
THRESH                    12
SCF_CONVERGENCE           8
MAX_SUB_FILE_NUM          128
MEM_STATIC                400
MEM_TOTAL                 4000
$end
--------------------------------------------------------------

   16   -1510.2499435818      5.47E-09 Convergence criterion met
 Total energy in the final basis set = -1510.24994358
   14   -1510.2546348669      5.46E-09 Convergence criterion met
 Total energy in the final basis set = -1510.25463487
   14   -1510.2586439915      4.14E-09 Convergence criterion met
 Total energy in the final basis set = -1510.25864399
   15   -1510.2615720509      2.47E-09 Convergence criterion met
 Total energy in the final basis set = -1510.26157205
   14   -1510.2642185890      4.51E-09 Convergence criterion met
 Total energy in the final basis set = -1510.26421859
   14   -1510.2664302985      7.48E-09 Convergence criterion met
 Total energy in the final basis set = -1510.26643030
   14   -1510.2618625529      2.23E-09 Convergence criterion met
 Total energy in the final basis set = -1510.26186255
   14   -1510.2683334580      2.71E-09 Convergence criterion met
   12   -1510.2958258793      5.26E-09 Convergence criterion met
 Total energy in the final basis set = -1510.29582588
   12   -1510.2958273154      7.16E-09 Convergence criterion met
 Total energy in the final basis set = -1510.29582732
   11   -1510.2958607470      9.28E-09 Convergence criterion met
 Total energy in the final basis set = -1510.29586075
   11   -1510.2958604962      3.21E-09 Convergence criterion met
 Total energy in the final basis set = -1510.29586050
   10   -1510.2958659197      6.12E-09 Convergence criterion met
 Total energy in the final basis set = -1510.29586592
   10   -1510.2958677541      4.08E-09 Convergence criterion met
 Total energy in the final basis set = -1510.29586775

             Standard Nuclear Orientation (Angstroms)
    I     Atom           X                Y                Z
 ----------------------------------------------------------------
    1      O       2.6868749258    -1.3164786563     1.3987166708
    2      C       2.0459674807    -1.1875831135     0.3316138366
    3      C       1.5530830105     0.1251809296    -0.3371907429
    4      C       1.5922715231     1.3825912824     0.6186054259
    5      C       2.4039158650     1.1794527943     1.9682130623
    6      O       1.7279034780     0.8669975712     3.2056796581
    7      C       0.3152917244     0.4517632022     3.1451207863
    8      C       0.1416175009    -1.0938114989     2.8498793422
    9      O      -0.3237756263    -1.3415927952     1.4626117038
   10      C      -1.7356580194    -1.1251184391     1.3797920513
   11      C      -2.2625768836    -1.3544074321    -0.0860834825
   12      C      -2.8460825208    -0.0439565466    -0.7625000260
   13      C      -2.3654998469     1.2754321795    -0.0644429529
   14      O      -1.4828085937     1.3944500080     0.8170457209
   15      O       1.6514767667    -2.3104116444    -0.4831166686
   16      O      -3.0623796663     2.3755897869    -0.6404953464
   17      O      -2.4615793732    -0.8780610801     2.3687175373
   18      C      -2.5837011428     3.6494558196    -0.0507344000
   19      C      -1.2050221418    -1.8242758308    -1.1791430689
   20      C      -2.0049411454    -2.5674667393    -2.3139852926
   21      C      -2.7667306410    -1.3628737481    -2.9870365148
   22      C      -2.1732047441    -0.1317661670    -2.1957392037
   23      O      -0.7996645388    -0.5664295249    -1.8572060665
   24      H      -3.0707582593    -2.1040134200    -0.0032420993
   25      H      -3.9493530374    -0.0467294805    -0.8159399864
   26      H      -0.2822535179    -2.3163262996    -0.7954607211
   27      H      -1.3093477888    -3.0448834989    -3.0224612381
   28      H      -2.6875728529    -3.3340613540    -1.9140460287
   29      H      -2.5305283245    -1.2800521213    -4.0596885948
   30      H      -3.8602193552    -1.4336496999    -2.8709542236
   31      H      -2.1587069466     0.8268763501    -2.7502312711
   32      O       3.6249300502     1.4306937047     2.0688787035
   33      C       2.0913859740    -3.5732665067     0.1532428385
   34      C       2.4882851600     0.6099833410    -1.5347813940
   35      C       1.6050544026     1.5520961179    -2.4407522197
   36      C       1.4929412566     2.8206495749    -1.5167503575
   37      C       2.4030473840     2.3980517816    -0.2919521844
   38      O       3.4459240829     1.5415185400    -0.9023770169
   39      H       0.5316944484    -0.0458423414    -0.7424187394
   40      H       0.5641577575     1.7357010980     0.8123702638
   41      H       1.5846556377    -3.7323435940     1.1271752479
   42      H       3.0199414071    -0.2015177137    -2.0686523629
   43      H       2.1258276426     1.7838937025    -3.3835432543
   44      H       0.6302977830     1.0915195828    -2.6681807352
   45      H       1.8962851783     3.7199072638    -2.0086797885
   46      H       0.4562118484     3.0252738642    -1.2039950681
   47      H       2.8704950004     3.2351286532     0.2611472051
   48      H       3.1874106540    -3.5879432575     0.3191587256
   49      H       1.8097550649    -4.3824551305    -0.5454438992
   50      H      -3.1738213965     4.4487237833    -0.5350299429
   51      H      -1.5046498150     3.8082136729    -0.2533934694
   52      H      -2.7462182471     3.6757788978     1.0458493083
   53      H       1.1291893206    -1.5934822236     2.9222703364
   54      H      -0.5739105170    -1.5377562297     3.5725824070
   55      H      -0.2934434622     1.0211273934     2.4106110832
   56      H      -0.0787481522     0.6619356175     4.1604541097
 ----------------------------------------------------------------

    9   -1510.2958676236      3.76E-09 Convergence criterion met
 Total energy in the final basis set = -1510.29586762
 Final energy is   -1510.29586762364
 **  OPTIMIZATION CONVERGED  **

                    Orbital Energies (a.u.)
 --------------------------------------------------------------

 Alpha MOs
 -- Occupied --
-18.962 -18.935 -18.935 -18.910 -18.905 -18.904 -18.874 -18.874
-18.872 -18.844 -10.126 -10.104 -10.096 -10.082 -10.078 -10.076
-10.065 -10.061 -10.061 -10.056 -10.054 -10.046 -10.046 -10.045
-10.033 -10.029 -10.015 -10.011 -10.011 -10.007  -1.037  -1.015
 -1.007  -0.989  -0.979  -0.961  -0.956  -0.938  -0.934  -0.910
 -0.777  -0.748  -0.735  -0.722  -0.709  -0.693  -0.692  -0.680
 -0.660  -0.617  -0.590  -0.584  -0.558  -0.549  -0.535  -0.528
 -0.525  -0.501  -0.490  -0.478  -0.466  -0.462  -0.457  -0.451
 -0.438  -0.431  -0.427  -0.422  -0.418  -0.413  -0.407  -0.395
 -0.392  -0.387  -0.379  -0.376  -0.368  -0.362  -0.354  -0.348
 -0.344  -0.342  -0.335  -0.331  -0.325  -0.323  -0.318  -0.314
 -0.312  -0.303  -0.300  -0.294  -0.292  -0.289  -0.285  -0.273
 -0.268  -0.265  -0.251  -0.250  -0.241  -0.220  -0.216  -0.201
 -0.184  -0.178  -0.176  -0.167  -0.153  -0.150  -0.141  -0.131
 -0.121

          Ground-State Mulliken Net Atomic Charges

     Atom                 Charge (a.u.)
  ----------------------------------------
      1 O                    -0.212315
      2 C                     0.218304
      3 C                    -0.096356
      4 C                    -0.092318
      5 C                     0.210103
      6 O                    -0.176198
      7 C                    -0.059409
      8 C                    -0.058346
      9 O                    -0.176975
     10 C                     0.210470
     11 C                    -0.083019
     12 C                    -0.077258
     13 C                     0.220868
     14 O                    -0.215090
     15 O                    -0.172230
     16 O                    -0.164334
     17 O                    -0.221079
     18 C                    -0.127996
     19 C                     0.014174
     20 C                    -0.143017
     21 C                    -0.143622
     22 C                     0.025731
     23 O                    -0.192504
     24 H                     0.085968
     25 H                     0.092042
     26 H                     0.112183
     27 H                     0.080671
     28 H                     0.075009
     29 H                     0.081040
     30 H                     0.076276
     31 H                     0.086896
     32 O                    -0.206651
     33 C                    -0.129123
     34 C                     0.025642
     35 C                    -0.145577
     36 C                    -0.144833
     37 C                     0.026693
     38 O                    -0.187410
     39 H                     0.111137
     40 H                     0.086583
     41 H                     0.087369
     42 H                     0.079793
     43 H                     0.072931
     44 H                     0.079050
     45 H                     0.074301
     46 H                     0.063085
     47 H                     0.084285
     48 H                     0.092851
     49 H                     0.088033
     50 H                     0.096603
     51 H                     0.090497
     52 H                     0.095151
     53 H                     0.103044
     54 H                     0.090434
     55 H                     0.101882
     56 H                     0.086561
  ----------------------------------------
  Sum of atomic charges =    -0.000000

                    Cartesian Multipole Moments
 -----------------------------------------------------------------
    Charge (ESU x 10^10)
                -0.0000
    Dipole Moment (Debye)
         X      -6.0210      Y      -1.1771      Z      -3.5130
       Tot       7.0696
    Quadrupole Moments (Debye-Ang)
        XX    -176.3688     XY      -8.9291     YY    -142.9130
        XZ      -3.6358     YZ      -1.2570     ZZ    -164.8541

 Total job time:  151.99s(wall), 7240.82s(cpu)
        *  Thank you very much for using Q-Chem.  Have a nice day.  *
