 Q-Chem 5.0, Q-Chem, Inc., Pleasanton, CA (2017)
 Q-Chem 5.0.1 for Intel X86 EM64T Linux

User input:
--------------------------------------------------------------
$molecule
0  1
O -3.94934 -3.66094 2.70899
C -3.26408 -4.56952 2.26188
C -3.36658 -6.02376 2.66595
C -4.66266 -6.76517 2.29943
C -5.63801 -6.02118 1.41441
O -6.68853 -5.56779 2.16023
C -7.41893 -4.51469 1.52247
C -6.45786 -3.46108 0.98173
O -5.39113 -4.09629 0.2596
C -5.77367 -5.04516 -0.63059
C -5.29092 -4.76433 -2.03371
C -5.28642 -5.97989 -2.97216
C -6.08007 -7.18172 -2.50056
O -7.27868 -7.35108 -2.67154
O -2.32828 -4.25572 1.32526
O -5.35574 -8.17735 -1.92537
O -6.94712 -5.38676 -0.77968
C -5.8846 -9.37964 -1.50363
C -6.12882 -3.75647 -2.84693
C -5.26466 -3.13658 -3.94363
C -5.11161 -4.31649 -4.88319
C -6.00577 -5.34715 -4.18371
O -7.0123 -4.56517 -3.5838
H -4.25241 -4.37464 -1.92405
H -4.26294 -6.32973 -3.23477
H -6.59118 -2.9651 -2.21821
H -5.88074 -2.35793 -4.44788
H -4.31285 -2.68181 -3.59402
H -5.54364 -4.03582 -5.86951
H -4.07294 -4.68961 -5.01472
H -6.3526 -6.11407 -4.91124
O -6.0498 -6.94472 0.69905
C -2.12513 -2.99002 0.81564
C -2.29885 -6.94025 2.02019
C -2.02706 -8.13408 2.92927
C -3.31458 -8.90273 2.76594
C -4.00798 -8.05714 1.68923
O -2.95221 -7.53301 0.92768
H -3.19161 -6.01768 3.76584
H -5.20711 -7.03151 3.23613
H -1.84475 -2.28871 1.63015
H -1.33538 -6.43307 1.79787
H -1.20212 -8.71754 2.46009
H -1.74978 -7.88869 3.97705
H -3.06694 -9.91621 2.37781
H -3.93832 -8.98978 3.68154
H -4.70864 -8.72859 1.14963
H -3.04562 -2.62873 0.3093
H -1.3019 -3.02495 0.07317
H -5.07409 -10.00219 -1.07246
H -6.33337 -9.92237 -2.36266
H -6.65793 -9.20823 -0.72489
H -7.01667 -2.74995 0.33607
H -6.02013 -2.87769 1.81358
H -8.04808 -4.01403 2.28838
H -8.2204 -4.91935 0.87539
$end

$opt
CONSTRAINT
tors           1           2           3           4     +66.316
tors           3           4           5           6    -104.211
tors           4           5           6           7    +161.053
tors           5           6           7           8     -47.368
tors           6           7           8           9     +47.368
tors           7           8           9          10     +47.368
tors           8           9          10          11    +123.158
tors           9          10          11          12    +161.053
tors          11          12          13          14     +85.263
ENDCONSTRAINT
$end

$rem
JOBTYPE                   OPT
METHOD                    B3LYP
DFT_D                     d3_op
BASIS                     STO-3G
GEOM_OPT_MAX_CYCLES       100
GEOM_OPT_TOL_GRADIENT     300
GEOM_OPT_TOL_DISPLACEMENT 1200
GEOM_OPT_TOL_ENERGY       100
SYMMETRY                  False
THRESH                    12
SCF_CONVERGENCE           8
MAX_SUB_FILE_NUM          128
MEM_STATIC                400
MEM_TOTAL                 4000
$end
--------------------------------------------------------------

   16   -1509.9627851009      8.21E-09 Convergence criterion met
 Total energy in the final basis set = -1509.96278510
   16   -1510.0561710703      2.20E-09 Convergence criterion met
 Total energy in the final basis set = -1510.05617107
   14   -1510.1211935619      6.57E-09 Convergence criterion met
 Total energy in the final basis set = -1510.12119356
   15   -1510.1640559424      3.26E-09 Convergence criterion met
 Total energy in the final basis set = -1510.16405594
   15   -1510.1910153780      3.71E-09 Convergence criterion met
 Total energy in the final basis set = -1510.19101538
   14   -1510.2077890759      8.64E-09 Convergence criterion met
 Total energy in the final basis set = -1510.20778908
   14   -1510.2187120134      9.63E-09 Convergence criterion met
 Total energy in the final basis set = -1510.21871201
   14   -1510.2260466737      8.75E-09 Convergence criterion met
   11   -1510.2402379527      4.46E-09 Convergence criterion met
 Total energy in the final basis set = -1510.24023795
   11   -1510.2402579039      5.55E-09 Convergence criterion met
 Total energy in the final basis set = -1510.24025790
   11   -1510.2402807883      3.75E-09 Convergence criterion met
 Total energy in the final basis set = -1510.24028079
   10   -1510.2402890149      7.83E-09 Convergence criterion met
 Total energy in the final basis set = -1510.24028901
    9   -1510.2402933150      7.44E-09 Convergence criterion met
 Total energy in the final basis set = -1510.24029332
   10   -1510.2402950232      6.83E-09 Convergence criterion met
 Total energy in the final basis set = -1510.24029502

             Standard Nuclear Orientation (Angstroms)
    I     Atom           X                Y                Z
 ----------------------------------------------------------------
    1      O      -2.5039654995    -2.3504007519     0.2461749243
    2      C      -2.9117604229    -1.4041571695    -0.4667046477
    3      C      -3.9014558412    -0.2766768923     0.0034671694
    4      C      -3.2230738960     0.6380714301     1.1204463442
    5      C      -1.6602077618     0.3928809933     1.1069988992
    6      O      -1.4143686749    -0.4200219543     2.2459864403
    7      C      -0.2466866038    -1.2831477168     2.5733887659
    8      C       0.3763850137    -2.3071429036     1.5145019404
    9      O       0.6804214995    -1.9301806084     0.1211718097
   10      C       1.4103442487    -0.6588640857     0.0615216137
   11      C       2.7612889946    -0.8927257165    -0.7015556749
   12      C       3.4478728580     0.4243055199    -1.2678690770
   13      C       2.6792050628     1.7386318394    -0.8696037841
   14      O       2.7945672337     2.4003766062     0.1835109254
   15      O      -2.4380138336    -1.1420666913    -1.7843463808
   16      O       1.6982063233     1.9740530221    -1.8851321014
   17      O       1.2078209455     0.2978654314     0.8319107235
   18      C       0.6812395243     2.9445353358    -1.4093193044
   19      C       3.8823565712    -1.4079285278     0.3102734717
   20      C       5.0318568186    -2.0685692563    -0.5496181034
   21      C       5.7171219132    -0.7931871845    -1.1657819488
   22      C       4.8483321860     0.3615027187    -0.5278991440
   23      O       4.4962355623    -0.1635497570     0.8140625330
   24      H       2.5953606798    -1.6332472918    -1.5042046568
   25      H       3.5440394529     0.3777991565    -2.3666098197
   26      H       3.5073377913    -2.0270707370     1.1479721105
   27      H       5.7237134108    -2.6251793788     0.1026587035
   28      H       4.6367622190    -2.7548788139    -1.3155439610
   29      H       6.7693280217    -0.7071575020    -0.8515928986
   30      H       5.6741207206    -0.7804017427    -2.2665531429
   31      H       5.3554959707     1.3405997806    -0.4310311716
   32      O      -0.9182054878     0.8422645688     0.2127871840
   33      C      -1.3408705198    -2.0882246847    -2.1129309791
   34      C      -4.3051150028     0.8089342364    -1.0793256444
   35      C      -5.6339221057     1.5007538207    -0.5800761550
   36      C      -5.0894709835     2.3521908900     0.6275097855
   37      C      -3.5361950393     2.0738516976     0.5298629916
   38      O      -3.2965668262     1.8817475927    -0.9204375092
   39      H      -4.7989813167    -0.7724570527     0.4166190791
   40      H      -3.6389311670     0.4585932674     2.1262440714
   41      H      -1.7304010994    -3.1157989086    -2.2630155525
   42      H      -4.3164134365     0.4380886412    -2.1219704423
   43      H      -6.0491228386     2.1462533787    -1.3706135469
   44      H      -6.4024656796     0.7708370170    -0.2792749638
   45      H      -5.2999645242     3.4252995979     0.4959063384
   46      H      -5.5047585877     2.0282338762     1.5954538336
   47      H      -2.8865321019     2.8797012987     0.9226720700
   48      H      -0.5700975950    -2.0994665429    -1.3036817496
   49      H      -0.9037973893    -1.7207577213    -3.0591376947
   50      H       0.1970452130     3.3641672308    -2.3100568431
   51      H       1.1456191798     3.7542238312    -0.8126256004
   52      H      -0.0730082337     2.4089812661    -0.7897197456
   53      H       1.3041422129    -2.6895353676     2.0004131967
   54      H      -0.3322628590    -3.1544598612     1.4045940542
   55      H      -0.6251903840    -1.9081007244     3.4103097275
   56      H       0.5751259392    -0.6399114419     2.9608293298
 ----------------------------------------------------------------

    9   -1510.2402956993      6.86E-09 Convergence criterion met
 Total energy in the final basis set = -1510.24029570
 Final energy is   -1510.24029569931
 **  OPTIMIZATION CONVERGED  **

                    Orbital Energies (a.u.)
 --------------------------------------------------------------

 Alpha MOs
 -- Occupied --
-18.928 -18.928 -18.923 -18.911 -18.903 -18.889 -18.881 -18.879
-18.862 -18.859 -10.104 -10.104 -10.091 -10.083 -10.080 -10.078
-10.065 -10.057 -10.054 -10.053 -10.041 -10.039 -10.033 -10.032
-10.031 -10.030 -10.023 -10.020 -10.016 -10.015  -1.018  -1.004
 -0.995  -0.990  -0.971  -0.963  -0.948  -0.936  -0.926  -0.917
 -0.761  -0.757  -0.726  -0.719  -0.712  -0.704  -0.697  -0.648
 -0.643  -0.622  -0.595  -0.579  -0.546  -0.541  -0.536  -0.531
 -0.513  -0.504  -0.481  -0.460  -0.455  -0.451  -0.447  -0.445
 -0.433  -0.430  -0.428  -0.413  -0.405  -0.401  -0.400  -0.395
 -0.387  -0.379  -0.367  -0.362  -0.356  -0.354  -0.349  -0.346
 -0.342  -0.338  -0.334  -0.331  -0.325  -0.324  -0.320  -0.311
 -0.307  -0.304  -0.302  -0.299  -0.288  -0.279  -0.274  -0.272
 -0.269  -0.260  -0.242  -0.235  -0.233  -0.228  -0.227  -0.181
 -0.174  -0.168  -0.161  -0.152  -0.146  -0.145  -0.138  -0.136
 -0.130

          Ground-State Mulliken Net Atomic Charges

     Atom                 Charge (a.u.)
  ----------------------------------------
      1 O                    -0.224864
      2 C                     0.203087
      3 C                    -0.079495
      4 C                    -0.075208
      5 C                     0.222999
      6 O                    -0.180989
      7 C                    -0.040731
      8 C                    -0.051270
      9 O                    -0.181738
     10 C                     0.213762
     11 C                    -0.076418
     12 C                    -0.079734
     13 C                     0.210760
     14 O                    -0.207388
     15 O                    -0.166685
     16 O                    -0.176089
     17 O                    -0.170930
     18 C                    -0.140242
     19 C                     0.025419
     20 C                    -0.142710
     21 C                    -0.144634
     22 C                     0.025759
     23 O                    -0.185423
     24 H                     0.084381
     25 H                     0.084599
     26 H                     0.077990
     27 H                     0.078081
     28 H                     0.074365
     29 H                     0.078138
     30 H                     0.074223
     31 H                     0.087044
     32 O                    -0.199583
     33 C                    -0.142683
     34 C                     0.024275
     35 C                    -0.143082
     36 C                    -0.145005
     37 C                     0.024291
     38 O                    -0.186201
     39 H                     0.081748
     40 H                     0.086419
     41 H                     0.078243
     42 H                     0.089897
     43 H                     0.076916
     44 H                     0.071951
     45 H                     0.077052
     46 H                     0.072711
     47 H                     0.082944
     48 H                     0.108008
     49 H                     0.084022
     50 H                     0.083348
     51 H                     0.087743
     52 H                     0.108489
     53 H                     0.077494
     54 H                     0.099796
     55 H                     0.093580
     56 H                     0.091570
  ----------------------------------------
  Sum of atomic charges =    -0.000000

                    Cartesian Multipole Moments
 -----------------------------------------------------------------
    Charge (ESU x 10^10)
                -0.0000
    Dipole Moment (Debye)
         X      -0.5022      Y      -2.5458      Z      -0.0848
       Tot       2.5963
    Quadrupole Moments (Debye-Ang)
        XX    -145.0400     XY     -10.8249     YY    -158.0076
        XZ      -8.5725     YZ      -1.2236     ZZ    -156.6280

 Total job time:  80.54s(wall), 3841.58s(cpu)
        *  Thank you very much for using Q-Chem.  Have a nice day.  *
