 Q-Chem 5.0, Q-Chem, Inc., Pleasanton, CA (2017)
 Q-Chem 5.0.1 for Intel X86 EM64T Linux

User input:
--------------------------------------------------------------
$molecule
0  1
O -2.5039654995 -2.3504007519 0.2461749243
C -2.9117604229 -1.4041571695 -0.4667046477
C -3.9014558412 -0.2766768923 0.0034671694
C -3.223073896 0.6380714301 1.1204463442
C -1.6602077618 0.3928809933 1.1069988992
O -1.4143686749 -0.4200219543 2.2459864403
C -0.2466866038 -1.2831477168 2.5733887659
C 0.3763850137 -2.3071429036 1.5145019404
O 0.6804214995 -1.9301806084 0.1211718097
C 1.4103442487 -0.6588640857 0.0615216137
C 2.7612889946 -0.8927257165 -0.7015556749
C 3.447872858 0.4243055199 -1.267869077
C 2.6792050628 1.7386318394 -0.8696037841
O 2.7945672337 2.4003766062 0.1835109254
O -2.4380138336 -1.1420666913 -1.7843463808
O 1.6982063233 1.9740530221 -1.8851321014
O 1.2078209455 0.2978654314 0.8319107235
C 0.6812395243 2.9445353358 -1.4093193044
C 3.8823565712 -1.4079285278 0.3102734717
C 5.0318568186 -2.0685692563 -0.5496181034
C 5.7171219132 -0.7931871845 -1.1657819488
C 4.848332186 0.3615027187 -0.527899144
O 4.4962355623 -0.163549757 0.814062533
H 2.5953606798 -1.6332472918 -1.5042046568
H 3.5440394529 0.3777991565 -2.3666098197
H 3.5073377913 -2.027070737 1.1479721105
H 5.7237134108 -2.6251793788 0.1026587035
H 4.636762219 -2.7548788139 -1.315543961
H 6.7693280217 -0.707157502 -0.8515928986
H 5.6741207206 -0.7804017427 -2.2665531429
H 5.3554959707 1.3405997806 -0.4310311716
O -0.9182054878 0.8422645688 0.212787184
C -1.3408705198 -2.0882246847 -2.1129309791
C -4.3051150028 0.8089342364 -1.0793256444
C -5.6339221057 1.5007538207 -0.580076155
C -5.0894709835 2.35219089 0.6275097855
C -3.5361950393 2.0738516976 0.5298629916
O -3.2965668262 1.8817475927 -0.9204375092
H -4.7989813167 -0.7724570527 0.4166190791
H -3.638931167 0.4585932674 2.1262440714
H -1.7304010994 -3.1157989086 -2.2630155525
H -4.3164134365 0.4380886412 -2.1219704423
H -6.0491228386 2.1462533787 -1.3706135469
H -6.4024656796 0.770837017 -0.2792749638
H -5.2999645242 3.4252995979 0.4959063384
H -5.5047585877 2.0282338762 1.5954538336
H -2.8865321019 2.8797012987 0.92267207
H -0.570097595 -2.0994665429 -1.3036817496
H -0.9037973893 -1.7207577213 -3.0591376947
H 0.197045213 3.3641672308 -2.3100568431
H 1.1456191798 3.7542238312 -0.8126256004
H -0.0730082337 2.4089812661 -0.7897197456
H 1.3041422129 -2.6895353676 2.0004131967
H -0.332262859 -3.1544598612 1.4045940542
H -0.625190384 -1.9081007244 3.4103097275
H 0.5751259392 -0.6399114419 2.9608293298
$end

$rem
JOBTYPE                   OPT
METHOD                    B3LYP
DFT_D                     d3_op
BASIS                     STO-3G
GEOM_OPT_MAX_CYCLES       100
GEOM_OPT_TOL_GRADIENT     300
GEOM_OPT_TOL_DISPLACEMENT 1200
GEOM_OPT_TOL_ENERGY       100
SYMMETRY                  False
THRESH                    12
SCF_CONVERGENCE           8
MAX_SUB_FILE_NUM          128
MEM_STATIC                400
MEM_TOTAL                 4000
$end
--------------------------------------------------------------

   16   -1510.2400966997      5.38E-09 Convergence criterion met
 Total energy in the final basis set = -1510.24009670
   15   -1510.2499401398      2.95E-09 Convergence criterion met
 Total energy in the final basis set = -1510.24994014
   15   -1510.2548522373      5.89E-09 Convergence criterion met
 Total energy in the final basis set = -1510.25485224
   14   -1510.2687409309      8.31E-09 Convergence criterion met
 Total energy in the final basis set = -1510.26874093
   14   -1510.2728127172      6.96E-09 Convergence criterion met
 Total energy in the final basis set = -1510.27281272
   14   -1510.2799171925      6.38E-09 Convergence criterion met
 Total energy in the final basis set = -1510.27991719
   14   -1510.2849829807      7.82E-09 Convergence criterion met
 Total energy in the final basis set = -1510.28498298
   14   -1510.2889075373      5.71E-09 Convergence criterion met
   11   -1510.3009437186      5.61E-09 Convergence criterion met
 Total energy in the final basis set = -1510.30094372
   11   -1510.3009401642      6.40E-09 Convergence criterion met
 Total energy in the final basis set = -1510.30094016
   11   -1510.3009396226      2.65E-09 Convergence criterion met
 Total energy in the final basis set = -1510.30093962
   10   -1510.3009443312      6.97E-09 Convergence criterion met
 Total energy in the final basis set = -1510.30094433
   10   -1510.3009572096      3.95E-09 Convergence criterion met
 Total energy in the final basis set = -1510.30095721
   10   -1510.3009600006      8.82E-09 Convergence criterion met
 Total energy in the final basis set = -1510.30096000

             Standard Nuclear Orientation (Angstroms)
    I     Atom           X                Y                Z
 ----------------------------------------------------------------
    1      O      -1.9603287700    -3.2265961929     0.2627440685
    2      C      -1.7546196751    -2.3015820739    -0.5519395390
    3      C      -2.6714632559    -1.0431703550    -0.8015614806
    4      C      -2.6871242034     0.0783345818     0.3323174311
    5      C      -1.7237859322    -0.1146691214     1.5563831606
    6      O      -2.0114545895    -1.3421021849     2.2321883418
    7      C      -0.9179637738    -1.6387769496     3.1912776090
    8      C       0.2575688280    -2.3689416141     2.4314702889
    9      O       0.4618464103    -1.7512644269     1.1016873292
   10      C       1.3278636922    -0.6012082090     1.1779429998
   11      C       1.3384561487     0.0829965879    -0.2233000591
   12      C       1.9845470382     1.5293704438    -0.2119276694
   13      C       2.5072453498     1.9953573428     1.1951337335
   14      O       3.6901600644     2.0518314401     1.5926220165
   15      O      -0.6799227857    -2.2996033821    -1.4984363262
   16      O       1.3736616403     2.4607624101     1.9422411644
   17      O       1.9531247223    -0.2792371224     2.2111943538
   18      C       1.7859181359     2.7929767757     3.3223059717
   19      C       2.3098835339    -0.6658578512    -1.2375919299
   20      C       1.9410319704    -0.1819721034    -2.6944211903
   21      C       2.5628928331     1.2638091992    -2.6966937721
   22      C       3.1719155952     1.3384620073    -1.2409065558
   23      O       3.6297372653    -0.0476249348    -0.9839526897
   24      H       0.2990169881     0.1341381017    -0.6292321103
   25      H       1.2454987325     2.2700897345    -0.5664682343
   26      H       2.3645091545    -1.7622575962    -1.1037846906
   27      H       2.4135210906    -0.8286901037    -3.4508906426
   28      H       0.8513756550    -0.1778005060    -2.8548256625
   29      H       3.3562910151     1.3620247987    -3.4547339143
   30      H       1.8084030885     2.0477655991    -2.8690066085
   31      H       4.0103923006     2.0489058514    -1.1070880659
   32      O      -0.8635240219     0.7144828250     1.9309876851
   33      C       0.1572348338    -3.5055881614    -1.3090144377
   34      C      -2.2020754780    -0.1887732144    -2.0515062320
   35      C      -3.3901695078     0.7342372430    -2.5260112986
   36      C      -3.3855355044     1.8447277334    -1.4094144430
   37      C      -2.2091681209     1.3460359850    -0.4905561287
   38      O      -1.2391662477     0.7715697466    -1.4577472855
   39      H      -3.6981566872    -1.4274482594    -0.9448523839
   40      H      -3.7155435599     0.2056009847     0.7178192710
   41      H      -0.4537894401    -4.4306266275    -1.3056308531
   42      H      -1.7119086809    -0.7846090864    -2.8440022798
   43      H      -3.1735404090     1.1591757004    -3.5189690034
   44      H      -4.3438869738     0.1851001035    -2.5770766914
   45      H      -3.1543189657     2.8370926730    -1.8280965412
   46      H      -4.3403021169     1.9045168298    -0.8631618769
   47      H      -1.7118246873     2.1110557687     0.1374560616
   48      H       0.7122689832    -3.4324796562    -0.3517641144
   49      H       0.8651887503    -3.5248939996    -2.1574639382
   50      H       0.8782380913     3.1631900056     3.8334446540
   51      H       2.5706314015     3.5772817238     3.3422359240
   52      H       2.1697095776     1.8958282952     3.8500190641
   53      H       1.1853677880    -2.3210196106     3.0404093191
   54      H      -0.0193507092    -3.4226273213     2.2298864687
   55      H      -1.3439807256    -2.3026162653     3.9690497588
   56      H      -0.5471646480    -0.6970286468     3.6483253127
 ----------------------------------------------------------------

    9   -1510.3009598262      4.21E-09 Convergence criterion met
 Total energy in the final basis set = -1510.30095983
 Final energy is   -1510.30095982624
 **  OPTIMIZATION CONVERGED  **

                    Orbital Energies (a.u.)
 --------------------------------------------------------------

 Alpha MOs
 -- Occupied --
-18.938 -18.934 -18.929 -18.908 -18.907 -18.878 -18.878 -18.873
-18.873 -18.848 -10.103 -10.100 -10.097 -10.076 -10.072 -10.071
-10.067 -10.066 -10.061 -10.046 -10.045 -10.044 -10.044 -10.044
-10.028 -10.027 -10.016 -10.011 -10.008 -10.006  -1.022  -1.010
 -1.004  -0.985  -0.983  -0.956  -0.943  -0.935  -0.932  -0.911
 -0.770  -0.748  -0.731  -0.718  -0.711  -0.703  -0.688  -0.661
 -0.643  -0.618  -0.598  -0.574  -0.550  -0.545  -0.532  -0.524
 -0.516  -0.499  -0.486  -0.474  -0.461  -0.452  -0.447  -0.443
 -0.433  -0.428  -0.422  -0.414  -0.413  -0.410  -0.396  -0.393
 -0.390  -0.376  -0.375  -0.369  -0.352  -0.350  -0.347  -0.344
 -0.342  -0.337  -0.334  -0.331  -0.325  -0.319  -0.318  -0.313
 -0.311  -0.300  -0.297  -0.293  -0.289  -0.286  -0.283  -0.267
 -0.261  -0.256  -0.251  -0.244  -0.242  -0.230  -0.219  -0.189
 -0.175  -0.168  -0.162  -0.159  -0.152  -0.150  -0.148  -0.131
 -0.128

          Ground-State Mulliken Net Atomic Charges

     Atom                 Charge (a.u.)
  ----------------------------------------
      1 O                    -0.211471
      2 C                     0.213462
      3 C                    -0.078736
      4 C                    -0.078928
      5 C                     0.209028
      6 O                    -0.165173
      7 C                    -0.053158
      8 C                    -0.053232
      9 O                    -0.182984
     10 C                     0.216285
     11 C                    -0.092946
     12 C                    -0.080238
     13 C                     0.213764
     14 O                    -0.218702
     15 O                    -0.171416
     16 O                    -0.170678
     17 O                    -0.207148
     18 C                    -0.127239
     19 C                     0.024434
     20 C                    -0.143663
     21 C                    -0.143894
     22 C                     0.024443
     23 O                    -0.192103
     24 H                     0.111888
     25 H                     0.082843
     26 H                     0.076662
     27 H                     0.071534
     28 H                     0.079149
     29 H                     0.073957
     30 H                     0.073211
     31 H                     0.084917
     32 O                    -0.210528
     33 C                    -0.130485
     34 C                     0.024063
     35 C                    -0.144053
     36 C                    -0.143814
     37 C                     0.023625
     38 O                    -0.188803
     39 H                     0.085788
     40 H                     0.086932
     41 H                     0.088426
     42 H                     0.093826
     43 H                     0.079421
     44 H                     0.075357
     45 H                     0.080125
     46 H                     0.075883
     47 H                     0.097559
     48 H                     0.096303
     49 H                     0.087944
     50 H                     0.084190
     51 H                     0.083689
     52 H                     0.090288
     53 H                     0.096272
     54 H                     0.093485
     55 H                     0.091523
     56 H                     0.099115
  ----------------------------------------
  Sum of atomic charges =     0.000000

                    Cartesian Multipole Moments
 -----------------------------------------------------------------
    Charge (ESU x 10^10)
                 0.0000
    Dipole Moment (Debye)
         X      -4.2938      Y      -0.6975      Z      -1.4706
       Tot       4.5919
    Quadrupole Moments (Debye-Ang)
        XX    -168.6532     XY      -7.2343     YY    -154.5161
        XZ      -1.0824     YZ      -1.2153     ZZ    -150.4122

 Total job time:  146.36s(wall), 6988.63s(cpu)
        *  Thank you very much for using Q-Chem.  Have a nice day.  *
