 Q-Chem 5.0, Q-Chem, Inc., Pleasanton, CA (2017)
 Q-Chem 5.0.1 for Intel X86 EM64T Linux

User input:
--------------------------------------------------------------
$molecule
0  1
O -1.5709793154 -0.7888790522 1.9160014952
C -2.4772780456 -1.0270372393 1.0867329699
C -3.895092696 -0.3507901636 1.0733403374
C -3.9815264112 1.0422910473 0.3173470225
C -2.9089319655 1.3201822687 -0.8053055301
O -1.6945855277 0.6210287167 -0.5415622508
C -0.5549129048 1.1923038048 -1.292480092
C 0.6985809 1.1319257411 -0.346576853
O 1.096638039 -0.2710171378 -0.0735724067
C 1.96945755 -0.7413416005 -1.1482404366
C 3.5098886393 -0.8399478012 -0.8429461236
C 4.4325398188 0.4231649203 -0.5571071244
C 3.7920212868 1.7753438023 -0.0896453252
O 3.9141537872 2.8838948581 -0.6601075361
O -2.3736472331 -1.973423809 0.0225869378
O 3.1659316076 1.5995783428 1.1836795865
O 1.4864779174 -1.1469225801 -2.2291689932
C 2.7435617755 2.9120188218 1.7271577647
C 3.8499412684 -1.7669421149 0.421267308
C 5.1879499283 -2.5298224801 0.0787803985
C 6.2168639748 -1.3397675362 0.1359997296
C 5.2996307915 -0.1568437973 0.6485917828
O 4.2724278052 -0.8252816964 1.4770859882
H 3.9090543615 -1.327351729 -1.7514334573
H 5.0454526729 0.6509898918 -1.4473805035
H 3.01075043 -2.3966095964 0.7754185552
H 5.4046870431 -3.2849698466 0.8514523557
H 5.1551360353 -3.025416125 -0.9045026522
H 7.028253017 -1.5370506361 0.8539674624
H 6.6628001747 -1.116694544 -0.8465757839
H 5.8260096693 0.6194773405 1.236822818
O -3.0528643737 2.1199939157 -1.756555669
C -0.9797605658 -2.4751295869 -0.0481730963
C -5.0749260184 -1.153819916 0.368033645
C -6.4135118477 -0.7403206515 1.0927758931
C -6.5535182107 0.7521773315 0.6100556688
C -5.368757743 0.8578224708 -0.4304806868
O -5.2226842488 -0.5195146904 -0.9628037998
H -4.1493768827 -0.1765624545 2.134871411
H -3.9704601598 1.8939903606 1.0228055324
H -0.7622403927 -3.1708116965 0.7883942023
H -4.8965066776 -2.2410655932 0.2626901732
H -7.2507950252 -1.3584050594 0.7306711999
H -6.3503017008 -0.8337048694 2.1886405658
H -7.5214017816 0.9331383111 0.1165905798
H -6.4386948625 1.4736989901 1.4350848536
H -5.5195883662 1.5799354725 -1.2566298814
H -0.248757225 -1.6312352694 -0.0222732372
H -0.9025602159 -3.0218492792 -1.005837331
H 2.2063062985 2.6902621335 2.6673989984
H 2.0710854961 3.4535826214 1.0316800819
H 3.6179743203 3.559432899 1.9430677674
H 1.5165960289 1.7263869695 -0.8022252315
H 0.434956816 1.5662982408 0.6388036927
H -0.7813501941 2.2363703138 -1.6002199954
H -0.3618078765 0.5874571898 -2.2068754188
$end

$rem
JOBTYPE                   OPT
METHOD                    B3LYP
DFT_D                     d3_op
BASIS                     STO-3G
GEOM_OPT_MAX_CYCLES       100
GEOM_OPT_TOL_GRADIENT     300
GEOM_OPT_TOL_DISPLACEMENT 1200
GEOM_OPT_TOL_ENERGY       100
SYMMETRY                  False
THRESH                    12
SCF_CONVERGENCE           8
MAX_SUB_FILE_NUM          128
MEM_STATIC                400
MEM_TOTAL                 4000
$end
--------------------------------------------------------------

   16   -1510.2523936495      5.78E-09 Convergence criterion met
 Total energy in the final basis set = -1510.25239365
   15   -1510.2550462840      2.50E-09 Convergence criterion met
 Total energy in the final basis set = -1510.25504628
   14   -1510.2588526653      7.18E-09 Convergence criterion met
 Total energy in the final basis set = -1510.25885267
   14   -1510.2650926558      6.20E-09 Convergence criterion met
 Total energy in the final basis set = -1510.26509266
   14   -1510.2696963489      3.07E-09 Convergence criterion met
 Total energy in the final basis set = -1510.26969635
   14   -1510.2732934946      9.95E-09 Convergence criterion met
 Total energy in the final basis set = -1510.27329349
   14   -1510.2760975408      3.74E-09 Convergence criterion met
 Total energy in the final basis set = -1510.27609754
   14   -1510.2784034889      5.58E-09 Convergence criterion met
   11   -1510.2996787787      5.11E-09 Convergence criterion met
 Total energy in the final basis set = -1510.29967878
   11   -1510.2996896072      7.04E-09 Convergence criterion met
 Total energy in the final basis set = -1510.29968961
   11   -1510.2996958687      4.54E-09 Convergence criterion met
 Total energy in the final basis set = -1510.29969587
   11   -1510.2996993373      6.57E-09 Convergence criterion met
 Total energy in the final basis set = -1510.29969934
   10   -1510.2996980836      8.53E-09 Convergence criterion met
 Total energy in the final basis set = -1510.29969808
    9   -1510.2996997041      5.68E-09 Convergence criterion met
 Total energy in the final basis set = -1510.29969970

             Standard Nuclear Orientation (Angstroms)
    I     Atom           X                Y                Z
 ----------------------------------------------------------------
    1      O       1.1015165992    -1.1213231313     2.0803313674
    2      C       1.8461603348    -0.3800850682     1.3953518597
    3      C       3.3976224994    -0.5260416810     1.2167384091
    4      C       3.8555178908    -0.5076727058    -0.3030744497
    5      C       2.6508194568    -0.4575175601    -1.3064075884
    6      O       1.8168671707    -1.5857028285    -1.0000868764
    7      C       0.6234306446    -1.6309466875    -1.8751666938
    8      C      -0.5947923646    -2.1099392361    -0.9981553377
    9      O      -1.5691819654    -1.0255304892    -0.7305699517
   10      C      -2.5249125401    -0.9301296874    -1.8017671603
   11      C      -3.6664915571     0.0621127126    -1.4105958607
   12      C      -4.1992942872    -0.0718758492     0.0830853594
   13      C      -3.4449419080    -1.1730522298     0.9219710765
   14      O      -3.5912249373    -2.4107792421     0.7962773977
   15      O       1.4342035058     0.7730487287     0.6754079387
   16      O      -2.6014362319    -0.5476353001     1.8873149020
   17      O      -2.4234836475    -1.5779206101    -2.8653663166
   18      C      -1.8084519288    -1.5609027655     2.6278461207
   19      C      -3.1946098883     1.5853733055    -1.4206827146
   20      C      -4.4854550588     2.4921983239    -1.5038357850
   21      C      -5.0484103242     2.3506563627    -0.0413222478
   22      C      -3.9676518188     1.4027153897     0.6144747136
   23      O      -2.7050892523     1.8096258142    -0.0453813515
   24      H      -4.4807480150    -0.0973815742    -2.1393094434
   25      H      -5.2719142157    -0.3381192054     0.0761321971
   26      H      -2.4036351041     1.8189249026    -2.1598347067
   27      H      -4.2056266946     3.5334617351    -1.7303169798
   28      H      -5.1940423681     2.1414194755    -2.2711072859
   29      H      -5.0740414311     3.3222585381     0.4770302467
   30      H      -6.0574636027     1.9094017397    -0.0150468149
   31      H      -3.8692962068     1.4786580034     1.7136708812
   32      O       2.4324144534     0.3563479405    -2.2269191382
   33      C      -0.0214747349     1.0256395600     0.8174432292
   34      C       4.1664197248     0.7572321084     1.7583962626
   35      C       5.7075384017     0.4166222404     1.8474696237
   36      C       6.1253322451     0.4861494725     0.3309730848
   37      C       4.7376286046     0.8066862898    -0.3490846115
   38      O       4.0788905270     1.7063213660     0.6268085170
   39      H       3.7163599860    -1.4491411129     1.7310069962
   40      H       4.4553868695    -1.4065939248    -0.5374960201
   41      H      -0.3294946926     1.0236058997     1.8807605225
   42      H       3.7291717843     1.2030153253     2.6729884587
   43      H       6.2355463399     1.1735593324     2.4488268012
   44      H       5.8866183976    -0.5755183755     2.2917107385
   45      H       6.8414000596     1.3027871509     0.1471915147
   46      H       6.5619974128    -0.4570926112    -0.0344053103
   47      H       4.7827566124     1.2847211500    -1.3469451348
   48      H      -0.6352572428     0.2800537879     0.2606102905
   49      H      -0.1936227513     2.0285978242     0.3881702236
   50      H      -0.7248634057    -1.3879031803     2.4208929790
   51      H      -2.1162476956    -2.5737874347     2.3006262196
   52      H      -2.0107365666    -1.4382796282     3.7093070679
   53      H      -1.1076643828    -2.9622028886    -1.4893197159
   54      H      -0.2177465616    -2.4206947273    -0.0019041862
   55      H       0.8020352071    -2.3474150433    -2.7057706541
   56      H       0.4410745460    -0.6259493266    -2.3147684663
 ----------------------------------------------------------------

    9   -1510.2996998376      2.37E-09 Convergence criterion met
 Total energy in the final basis set = -1510.29969984
 Final energy is   -1510.29969983764
 **  OPTIMIZATION CONVERGED  **

                    Orbital Energies (a.u.)
 --------------------------------------------------------------

 Alpha MOs
 -- Occupied --
-18.950 -18.932 -18.931 -18.921 -18.892 -18.890 -18.887 -18.880
-18.874 -18.858 -10.111 -10.103 -10.101 -10.093 -10.078 -10.073
-10.066 -10.060 -10.060 -10.058 -10.044 -10.038 -10.037 -10.036
-10.036 -10.030 -10.023 -10.021 -10.020 -10.019  -1.025  -1.015
 -1.005  -0.999  -0.974  -0.969  -0.949  -0.939  -0.933  -0.924
 -0.767  -0.763  -0.730  -0.724  -0.712  -0.706  -0.699  -0.647
 -0.643  -0.618  -0.597  -0.585  -0.549  -0.546  -0.539  -0.537
 -0.515  -0.510  -0.489  -0.480  -0.467  -0.464  -0.443  -0.436
 -0.436  -0.431  -0.426  -0.414  -0.412  -0.406  -0.402  -0.397
 -0.389  -0.381  -0.370  -0.366  -0.364  -0.358  -0.356  -0.347
 -0.340  -0.338  -0.334  -0.332  -0.329  -0.324  -0.321  -0.310
 -0.309  -0.306  -0.305  -0.303  -0.300  -0.290  -0.288  -0.278
 -0.275  -0.255  -0.252  -0.244  -0.240  -0.233  -0.232  -0.194
 -0.176  -0.170  -0.165  -0.164  -0.158  -0.149  -0.147  -0.143
 -0.142

          Ground-State Mulliken Net Atomic Charges

     Atom                 Charge (a.u.)
  ----------------------------------------
      1 O                    -0.222078
      2 C                     0.217148
      3 C                    -0.077861
      4 C                    -0.077571
      5 C                     0.217673
      6 O                    -0.179831
      7 C                    -0.053679
      8 C                    -0.050218
      9 O                    -0.168656
     10 C                     0.212989
     11 C                    -0.080148
     12 C                    -0.078836
     13 C                     0.212178
     14 O                    -0.228534
     15 O                    -0.168565
     16 O                    -0.173111
     17 O                    -0.205983
     18 C                    -0.154058
     19 C                     0.025394
     20 C                    -0.143114
     21 C                    -0.144657
     22 C                     0.025565
     23 O                    -0.188518
     24 H                     0.087906
     25 H                     0.084218
     26 H                     0.083702
     27 H                     0.079072
     28 H                     0.074718
     29 H                     0.078413
     30 H                     0.073950
     31 H                     0.092276
     32 O                    -0.209404
     33 C                    -0.142514
     34 C                     0.026085
     35 C                    -0.144174
     36 C                    -0.143677
     37 C                     0.024771
     38 O                    -0.184445
     39 H                     0.084660
     40 H                     0.084553
     41 H                     0.085841
     42 H                     0.082819
     43 H                     0.078069
     44 H                     0.073576
     45 H                     0.078225
     46 H                     0.072845
     47 H                     0.090020
     48 H                     0.108798
     49 H                     0.092689
     50 H                     0.110829
     51 H                     0.091469
     52 H                     0.075767
     53 H                     0.099060
     54 H                     0.104831
     55 H                     0.087927
     56 H                     0.101596
  ----------------------------------------
  Sum of atomic charges =    -0.000000

                    Cartesian Multipole Moments
 -----------------------------------------------------------------
    Charge (ESU x 10^10)
                -0.0000
    Dipole Moment (Debye)
         X       0.2698      Y       0.1553      Z       0.2973
       Tot       0.4305
    Quadrupole Moments (Debye-Ang)
        XX    -139.5493     XY     -14.6433     YY    -165.3428
        XZ       3.9685     YZ       0.8495     ZZ    -161.5857

 Total job time:  159.76s(wall), 7622.32s(cpu)
        *  Thank you very much for using Q-Chem.  Have a nice day.  *
