 Q-Chem 5.0, Q-Chem, Inc., Pleasanton, CA (2017)
 Q-Chem 5.0.1 for Intel X86 EM64T Linux

User input:
--------------------------------------------------------------
$molecule
0  1
O -3.94934 -3.66094 2.70899
C -3.26408 -4.56952 2.26188
C -3.36658 -6.02376 2.66595
C -4.41631 -6.88207 1.94122
C -5.12384 -6.23632 0.77054
O -5.1749 -4.8831 0.94829
C -6.17187 -4.24646 0.14206
C -6.8363 -3.11693 0.92233
O -5.8847 -2.07142 1.1758
C -5.74093 -1.16022 0.18172
C -6.41917 0.15435 0.48594
C -7.95149 0.08944 0.56362
C -8.54883 -1.29816 0.68393
O -9.36804 -1.78598 -0.08125
O -2.26327 -4.24051 1.39909
O -8.70963 -1.67953 1.99279
O -5.05783 -1.36259 -0.81042
C -9.67591 -2.5535 2.45961
C -6.06817 0.78754 1.84449
C -6.26799 2.2998 1.76511
C -7.78002 2.38051 1.67304
C -8.14746 0.90293 1.86765
O -7.12066 0.40454 2.69414
H -6.10554 0.8511 -0.3254
H -8.4451 0.58162 -0.30368
H -5.0403 0.54382 2.19115
H -5.94752 2.71687 2.74692
H -5.71643 2.81924 0.95219
H -8.14886 3.00038 2.52007
H -8.17771 2.77064 0.71121
H -9.18334 0.81244 2.26287
O -5.78089 -6.87517 -0.04459
C -2.01318 -2.96319 0.94333
C -2.0848 -6.81572 2.30988
C -1.98631 -8.08276 3.16029
C -3.05427 -8.93421 2.51504
C -3.50692 -8.00085 1.3898
O -2.3358 -7.31805 1.024
H -3.46342 -6.0382 3.77433
H -5.19888 -7.30501 2.60882
H -1.7778 -2.2908 1.79571
H -1.15205 -6.22215 2.43152
H -0.99511 -8.54972 2.961
H -2.10297 -7.91779 4.25302
H -2.56934 -9.83733 2.08123
H -3.89066 -9.23742 3.1813
H -3.99105 -8.59643 0.58464
H -2.89557 -2.57642 0.39194
H -1.14395 -2.9864 0.25474
H -9.54729 -2.68647 3.55316
H -9.58729 -3.54267 1.96263
H -10.68734 -2.13636 2.26815
H -7.43622 -3.00686 0.0073
H -7.25214 -3.55784 1.85102
H -6.97663 -4.96501 -0.17508
H -5.67479 -3.87382 -0.78579
$end

$opt
CONSTRAINT
tors           1           2           3           4     +85.263
tors           3           4           5           6     -28.421
tors           4           5           6           7    -161.053
tors           5           6           7           8    +142.105
tors           6           7           8           9     +66.316
tors           7           8           9          10     +85.263
tors           8           9          10          11    +104.211
tors           9          10          11          12     -66.316
tors          11          12          13          14    -123.158
ENDCONSTRAINT
$end

$rem
JOBTYPE                   OPT
METHOD                    B3LYP
DFT_D                     d3_op
BASIS                     STO-3G
GEOM_OPT_MAX_CYCLES       100
GEOM_OPT_TOL_GRADIENT     300
GEOM_OPT_TOL_DISPLACEMENT 1200
GEOM_OPT_TOL_ENERGY       100
SYMMETRY                  False
THRESH                    12
SCF_CONVERGENCE           8
MAX_SUB_FILE_NUM          128
MEM_STATIC                400
MEM_TOTAL                 4000
$end
--------------------------------------------------------------

   15   -1510.0651671294      7.20E-09 Convergence criterion met
 Total energy in the final basis set = -1510.06516713
   14   -1510.1432646382      7.61E-09 Convergence criterion met
 Total energy in the final basis set = -1510.14326464
   14   -1510.1918842598      8.30E-09 Convergence criterion met
 Total energy in the final basis set = -1510.19188426
   14   -1510.2200584754      6.04E-09 Convergence criterion met
 Total energy in the final basis set = -1510.22005848
   14   -1510.2344202523      5.63E-09 Convergence criterion met
 Total energy in the final basis set = -1510.23442025
   14   -1510.2427828667      3.88E-09 Convergence criterion met
 Total energy in the final basis set = -1510.24278287
   14   -1510.2472545020      2.74E-09 Convergence criterion met
 Total energy in the final basis set = -1510.24725450
    2   -1510.2472545020      1.18E-09 Convergence criterion met
   12   -1510.2523484181      2.65E-09 Convergence criterion met
 Total energy in the final basis set = -1510.25234842
   10   -1510.2523572004      7.86E-09 Convergence criterion met
 Total energy in the final basis set = -1510.25235720
    9   -1510.2523638715      8.81E-09 Convergence criterion met
 Total energy in the final basis set = -1510.25236387
    9   -1510.2523743647      7.97E-09 Convergence criterion met
 Total energy in the final basis set = -1510.25237436
    9   -1510.2523806557      7.18E-09 Convergence criterion met
 Total energy in the final basis set = -1510.25238066
    9   -1510.2523892593      5.75E-09 Convergence criterion met
 Total energy in the final basis set = -1510.25238926

             Standard Nuclear Orientation (Angstroms)
    I     Atom           X                Y                Z
 ----------------------------------------------------------------
    1      O      -1.5709793154    -0.7888790522     1.9160014952
    2      C      -2.4772780456    -1.0270372393     1.0867329699
    3      C      -3.8950926960    -0.3507901636     1.0733403374
    4      C      -3.9815264112     1.0422910473     0.3173470225
    5      C      -2.9089319655     1.3201822687    -0.8053055301
    6      O      -1.6945855277     0.6210287167    -0.5415622508
    7      C      -0.5549129048     1.1923038048    -1.2924800920
    8      C       0.6985809000     1.1319257411    -0.3465768530
    9      O       1.0966380390    -0.2710171378    -0.0735724067
   10      C       1.9694575500    -0.7413416005    -1.1482404366
   11      C       3.5098886393    -0.8399478012    -0.8429461236
   12      C       4.4325398188     0.4231649203    -0.5571071244
   13      C       3.7920212868     1.7753438023    -0.0896453252
   14      O       3.9141537872     2.8838948581    -0.6601075361
   15      O      -2.3736472331    -1.9734238090     0.0225869378
   16      O       3.1659316076     1.5995783428     1.1836795865
   17      O       1.4864779174    -1.1469225801    -2.2291689932
   18      C       2.7435617755     2.9120188218     1.7271577647
   19      C       3.8499412684    -1.7669421149     0.4212673080
   20      C       5.1879499283    -2.5298224801     0.0787803985
   21      C       6.2168639748    -1.3397675362     0.1359997296
   22      C       5.2996307915    -0.1568437973     0.6485917828
   23      O       4.2724278052    -0.8252816964     1.4770859882
   24      H       3.9090543615    -1.3273517290    -1.7514334573
   25      H       5.0454526729     0.6509898918    -1.4473805035
   26      H       3.0107504300    -2.3966095964     0.7754185552
   27      H       5.4046870431    -3.2849698466     0.8514523557
   28      H       5.1551360353    -3.0254161250    -0.9045026522
   29      H       7.0282530170    -1.5370506361     0.8539674624
   30      H       6.6628001747    -1.1166945440    -0.8465757839
   31      H       5.8260096693     0.6194773405     1.2368228180
   32      O      -3.0528643737     2.1199939157    -1.7565556690
   33      C      -0.9797605658    -2.4751295869    -0.0481730963
   34      C      -5.0749260184    -1.1538199160     0.3680336450
   35      C      -6.4135118477    -0.7403206515     1.0927758931
   36      C      -6.5535182107     0.7521773315     0.6100556688
   37      C      -5.3687577430     0.8578224708    -0.4304806868
   38      O      -5.2226842488    -0.5195146904    -0.9628037998
   39      H      -4.1493768827    -0.1765624545     2.1348714110
   40      H      -3.9704601598     1.8939903606     1.0228055324
   41      H      -0.7622403927    -3.1708116965     0.7883942023
   42      H      -4.8965066776    -2.2410655932     0.2626901732
   43      H      -7.2507950252    -1.3584050594     0.7306711999
   44      H      -6.3503017008    -0.8337048694     2.1886405658
   45      H      -7.5214017816     0.9331383111     0.1165905798
   46      H      -6.4386948625     1.4736989901     1.4350848536
   47      H      -5.5195883662     1.5799354725    -1.2566298814
   48      H      -0.2487572250    -1.6312352694    -0.0222732372
   49      H      -0.9025602159    -3.0218492792    -1.0058373310
   50      H       2.2063062985     2.6902621335     2.6673989984
   51      H       2.0710854961     3.4535826214     1.0316800819
   52      H       3.6179743203     3.5594328990     1.9430677674
   53      H       1.5165960289     1.7263869695    -0.8022252315
   54      H       0.4349568160     1.5662982408     0.6388036927
   55      H      -0.7813501941     2.2363703138    -1.6002199954
   56      H      -0.3618078765     0.5874571898    -2.2068754188
 ----------------------------------------------------------------

    9   -1510.2523900271      3.79E-09 Convergence criterion met
 Total energy in the final basis set = -1510.25239003
 Final energy is   -1510.25239002709
 **  OPTIMIZATION CONVERGED  **

                    Orbital Energies (a.u.)
 --------------------------------------------------------------

 Alpha MOs
 -- Occupied --
-18.944 -18.936 -18.920 -18.913 -18.912 -18.898 -18.882 -18.879
-18.873 -18.847 -10.119 -10.108 -10.100 -10.083 -10.082 -10.072
-10.070 -10.069 -10.068 -10.053 -10.051 -10.050 -10.046 -10.036
-10.031 -10.027 -10.026 -10.026 -10.016 -10.014  -1.021  -1.018
 -1.013  -0.988  -0.979  -0.963  -0.948  -0.943  -0.935  -0.913
 -0.770  -0.756  -0.730  -0.723  -0.714  -0.705  -0.697  -0.668
 -0.639  -0.615  -0.605  -0.583  -0.552  -0.545  -0.539  -0.531
 -0.527  -0.506  -0.489  -0.484  -0.467  -0.455  -0.447  -0.440
 -0.435  -0.432  -0.426  -0.420  -0.418  -0.406  -0.404  -0.395
 -0.392  -0.380  -0.373  -0.370  -0.361  -0.357  -0.356  -0.352
 -0.347  -0.340  -0.333  -0.328  -0.326  -0.324  -0.322  -0.316
 -0.314  -0.313  -0.307  -0.302  -0.294  -0.290  -0.283  -0.281
 -0.271  -0.260  -0.254  -0.241  -0.233  -0.230  -0.226  -0.186
 -0.181  -0.175  -0.164  -0.160  -0.155  -0.151  -0.149  -0.139
 -0.129

          Ground-State Mulliken Net Atomic Charges

     Atom                 Charge (a.u.)
  ----------------------------------------
      1 O                    -0.224092
      2 C                     0.215131
      3 C                    -0.082465
      4 C                    -0.075563
      5 C                     0.214502
      6 O                    -0.170609
      7 C                    -0.051418
      8 C                    -0.043739
      9 O                    -0.182157
     10 C                     0.216204
     11 C                    -0.084028
     12 C                    -0.079017
     13 C                     0.200255
     14 O                    -0.214667
     15 O                    -0.172512
     16 O                    -0.158541
     17 O                    -0.178314
     18 C                    -0.128944
     19 C                     0.027403
     20 C                    -0.142032
     21 C                    -0.145366
     22 C                     0.027904
     23 O                    -0.179342
     24 H                     0.086108
     25 H                     0.087600
     26 H                     0.088460
     27 H                     0.080024
     28 H                     0.075496
     29 H                     0.079986
     30 H                     0.074823
     31 H                     0.084013
     32 O                    -0.215666
     33 C                    -0.142347
     34 C                     0.024095
     35 C                    -0.142359
     36 C                    -0.145734
     37 C                     0.023416
     38 O                    -0.190806
     39 H                     0.079968
     40 H                     0.084462
     41 H                     0.074500
     42 H                     0.088699
     43 H                     0.076745
     44 H                     0.072492
     45 H                     0.077429
     46 H                     0.072181
     47 H                     0.087918
     48 H                     0.106955
     49 H                     0.080487
     50 H                     0.095775
     51 H                     0.087356
     52 H                     0.088415
     53 H                     0.083401
     54 H                     0.099341
     55 H                     0.094514
     56 H                     0.093657
  ----------------------------------------
  Sum of atomic charges =    -0.000000

                    Cartesian Multipole Moments
 -----------------------------------------------------------------
    Charge (ESU x 10^10)
                -0.0000
    Dipole Moment (Debye)
         X       2.4654      Y       0.6160      Z       1.2745
       Tot       2.8429
    Quadrupole Moments (Debye-Ang)
        XX    -141.6726     XY      -6.5272     YY    -156.5409
        XZ     -11.3846     YZ       5.6793     ZZ    -168.2887

 Total job time:  63.96s(wall), 3045.31s(cpu)
        *  Thank you very much for using Q-Chem.  Have a nice day.  *
