 Q-Chem 5.0, Q-Chem, Inc., Pleasanton, CA (2017)
 Q-Chem 5.0.1 for Intel X86 EM64T Linux

User input:
--------------------------------------------------------------
$molecule
0  1
O 3.0722958976 -2.9374774623 -0.4530609128
C 3.4829651509 -1.8511633201 0.0127829082
C 4.0769100507 -0.6534125523 -0.8197251951
C 3.067524714 0.559900078 -0.9872005676
C 1.608385249 0.2709219214 -0.4921195812
O 0.6604168492 0.9015598895 -1.3828754807
C -0.2779037631 1.8494929914 -0.7373671158
C -0.3375070416 1.9321845778 0.8428217744
O -0.8358918801 0.7623642877 1.591944603
C -2.054055392 0.1445175653 1.1437701132
C -3.161534603 0.98768389 0.3924888221
C -3.8418291259 0.1538113367 -0.7703968933
C -3.1271473178 -1.2227090584 -1.02798262
O -3.6291052847 -2.3646212742 -0.9954037248
O 3.5997640901 -1.5661003729 1.4081784295
O -1.7597453456 -0.932650817 -1.3470887487
O -2.2461024641 -1.0392415533 1.5014659668
C -0.9750195351 -2.1844879305 -1.4340711634
C -4.4088186308 1.1644475697 1.3741660132
C -5.4091875478 2.205765719 0.7283431245
C -6.0817662851 1.3293799375 -0.3930262949
C -5.3098294899 -0.035103656 -0.2117410502
O -5.1168291203 -0.1271144469 1.2549315224
H -2.7984372698 1.9672648198 0.050432983
H -3.8401562054 0.7292253318 -1.7142895322
H -4.1381743969 1.3635123234 2.4294692881
H -6.145283775 2.5460386023 1.4741334374
H -4.8853560418 3.0868191249 0.3237201457
H -7.1583474815 1.1916853205 -0.2043998914
H -5.9497245183 1.7512973172 -1.4020448612
H -5.8217267589 -0.9403710885 -0.5918830217
O 1.2779650151 -0.4476331317 0.4748103807
C 2.9555003823 -2.6403354451 2.1968593618
C 5.2549772314 0.0670965269 -0.0391359257
C 5.9853066025 1.0721849547 -1.0179656203
C 4.9637876102 2.2691536074 -1.0540805652
C 3.8043762216 1.6962534131 -0.1468748519
O 4.5329417469 0.9558651166 0.9032564231
H 4.3930027057 -1.0458498073 -1.8021219053
H 2.9908723467 0.8637116098 -2.046298579
H 3.3316502227 -3.6431878087 1.9091166082
H 5.9241041996 -0.6179442836 0.515663869
H 6.9565507564 1.3816242612 -0.6007175285
H 6.1541579705 0.6290455334 -2.0125046193
H 5.3913763195 3.1772263104 -0.5992202371
H 4.6205870159 2.5109083572 -2.0726750368
H 3.134851298 2.4550584233 0.3031579067
H 1.8543376828 -2.61881942 2.0638301353
H 3.2033772748 -2.434128693 3.2540991387
H 0.0286908909 -1.8933881838 -1.7934577448
H -1.4338542269 -2.9078348217 -2.1380153628
H -0.8856235845 -2.6611968107 -0.4362638293
H 0.6817632295 2.1049361727 1.2455657655
H -0.9454734214 2.8373269414 1.0779061345
H -1.2779777821 1.6155112285 -1.1518276645
H 0.002366871 2.8723071639 -1.0831081886
$end

$rem
JOBTYPE                   OPT
METHOD                    B3LYP
DFT_D                     d3_op
BASIS                     STO-3G
GEOM_OPT_MAX_CYCLES       100
GEOM_OPT_TOL_GRADIENT     300
GEOM_OPT_TOL_DISPLACEMENT 1200
GEOM_OPT_TOL_ENERGY       100
SYMMETRY                  False
THRESH                    12
SCF_CONVERGENCE           8
MAX_SUB_FILE_NUM          128
MEM_STATIC                400
MEM_TOTAL                 4000
$end
--------------------------------------------------------------

   16   -1510.2489912718      5.76E-09 Convergence criterion met
 Total energy in the final basis set = -1510.24899127
   14   -1510.2527025738      7.65E-09 Convergence criterion met
 Total energy in the final basis set = -1510.25270257
   14   -1510.2561037472      8.87E-09 Convergence criterion met
 Total energy in the final basis set = -1510.25610375
   14   -1510.2595703543      7.35E-09 Convergence criterion met
 Total energy in the final basis set = -1510.25957035
   14   -1510.2620939148      4.96E-09 Convergence criterion met
 Total energy in the final basis set = -1510.26209391
   14   -1510.2644503553      6.36E-09 Convergence criterion met
 Total energy in the final basis set = -1510.26445036
   14   -1510.2654279496      9.09E-09 Convergence criterion met
 Total energy in the final basis set = -1510.26542795
   13   -1510.2664237185      7.21E-09 Convergence criterion met
   13   -1510.2785135081      7.55E-09 Convergence criterion met
 Total energy in the final basis set = -1510.27851351
   13   -1510.2787698609      2.90E-09 Convergence criterion met
 Total energy in the final basis set = -1510.27876986
   12   -1510.2787312575      5.47E-09 Convergence criterion met
 Total energy in the final basis set = -1510.27873126
   11   -1510.2787530545      6.50E-09 Convergence criterion met
 Total energy in the final basis set = -1510.27875305
   11   -1510.2787579120      4.67E-09 Convergence criterion met
 Total energy in the final basis set = -1510.27875791
   11   -1510.2787619748      4.56E-09 Convergence criterion met
 Total energy in the final basis set = -1510.27876197

             Standard Nuclear Orientation (Angstroms)
    I     Atom           X                Y                Z
 ----------------------------------------------------------------
    1      O      -4.1004389579    -1.5307570614    -2.9571453443
    2      C      -4.3120966069    -0.6274774727    -2.1189527628
    3      C      -4.4244648580    -0.8124894638    -0.5588298154
    4      C      -3.0994181332    -0.4683780688     0.2379118625
    5      C      -1.9386911367     0.0381164237    -0.6815521841
    6      O      -0.8146382495     0.3528205275     0.1398304556
    7      C       0.3296008201     0.8329419639    -0.6762457520
    8      C       1.0406292245    -0.3474579571    -1.4377751617
    9      O       1.5223562954    -1.3877252557    -0.5070845247
   10      C       2.5662294338    -0.9728208546     0.3970690626
   11      C       3.6725884557     0.0542151373    -0.0773685807
   12      C       4.0356485927     1.1087908625     1.0529999518
   13      C       3.0702496498     1.0378359064     2.2878509130
   14      O       3.3396398749     0.7947133165     3.4802103190
   15      O      -4.6234502953     0.7312403008    -2.4549111990
   16      O       1.7526419653     1.3264143892     1.7938654346
   17      O       2.6306168081    -1.5591189851     1.5009625773
   18      C       0.7060750421     1.0769795305     2.8093378041
   19      C       5.0604828771    -0.7165331396    -0.1987935760
   20      C       6.1097951944     0.2372607646    -0.8981697365
   21      C       6.4710138403     1.2147597809     0.2816924409
   22      C       5.5163127085     0.6789357517     1.4180506363
   23      O       5.5216655204    -0.7873604943     1.2042384463
   24      H       3.4039629856     0.5542936868    -1.0196542623
   25      H       4.0011221671     2.1363037950     0.6463262107
   26      H       4.9831623836    -1.7316808406    -0.6346297261
   27      H       6.9878042842    -0.3374447485    -1.2327037313
   28      H       5.6783090847     0.7601288438    -1.7668809148
   29      H       7.5250184449     1.1081307440     0.5837805178
   30      H       6.2783507445     2.2712772626     0.0358777785
   31      H       5.8136229111     0.9185399755     2.4574843201
   32      O      -1.9540199810     0.1665671628    -1.9269342717
   33      C      -4.4681462846     0.9299799048    -3.9121265579
   34      C      -5.4433065027     0.2036306901     0.1132115244
   35      C      -5.8055845511    -0.3356761555     1.5539470163
   36      C      -4.4898072040     0.0063366172     2.3474463310
   37      C      -3.6184334005     0.6760072530     1.2137367290
   38      O      -4.6115025954     1.3987772492     0.3900877888
   39      H      -4.7182808134    -1.8613953073    -0.3774227184
   40      H      -2.7293897565    -1.3387732268     0.8099583213
   41      H      -5.1249937109     0.2501802737    -4.4929654850
   42      H      -6.3072087104     0.4750548456    -0.5230619337
   43      H      -6.6743814598     0.2055725293     1.9611539791
   44      H      -6.0316220441    -1.4138327049     1.5483434950
   45      H      -4.6821951889     0.7262798093     3.1586470669
   46      H      -4.0036994956    -0.8858986186     2.7736991827
   47      H      -2.8247503960     1.3625410207     1.5674064173
   48      H      -3.4183384480     0.7624898188    -4.2291854701
   49      H      -4.7522689645     1.9797727817    -4.1107267636
   50      H      -0.2076670385     0.8212405875     2.2355759240
   51      H       0.5290238433     1.9831542772     3.4244473384
   52      H       0.9898420946     0.2387822815     3.4756823810
   53      H       0.3064978020    -0.8632900319    -2.0899632704
   54      H       1.8431348827     0.0664759501    -2.0857279190
   55      H       1.0242362704     1.2668824208     0.0812745302
   56      H      -0.0005787279     1.5975005883    -1.4118767938
 ----------------------------------------------------------------

   11   -1510.2787628178      2.90E-09 Convergence criterion met
 Total energy in the final basis set = -1510.27876282
 Final energy is   -1510.27876281783
 **  OPTIMIZATION CONVERGED  **

                    Orbital Energies (a.u.)
 --------------------------------------------------------------

 Alpha MOs
 -- Occupied --
-18.943 -18.941 -18.930 -18.919 -18.893 -18.889 -18.888 -18.887
-18.880 -18.856 -10.109 -10.109 -10.103 -10.088 -10.079 -10.067
-10.066 -10.063 -10.063 -10.062 -10.058 -10.053 -10.045 -10.043
-10.041 -10.032 -10.026 -10.024 -10.021 -10.019  -1.023  -1.018
 -1.005  -0.996  -0.975  -0.970  -0.947  -0.945  -0.937  -0.921
 -0.769  -0.763  -0.728  -0.726  -0.714  -0.710  -0.700  -0.665
 -0.651  -0.621  -0.605  -0.586  -0.552  -0.546  -0.543  -0.537
 -0.518  -0.511  -0.487  -0.477  -0.467  -0.464  -0.455  -0.448
 -0.435  -0.434  -0.430  -0.424  -0.415  -0.411  -0.406  -0.401
 -0.399  -0.392  -0.381  -0.365  -0.363  -0.362  -0.357  -0.350
 -0.343  -0.338  -0.336  -0.333  -0.332  -0.326  -0.322  -0.316
 -0.312  -0.310  -0.305  -0.303  -0.298  -0.293  -0.282  -0.277
 -0.274  -0.265  -0.251  -0.243  -0.241  -0.238  -0.234  -0.192
 -0.185  -0.170  -0.164  -0.162  -0.159  -0.153  -0.145  -0.145
 -0.137

          Ground-State Mulliken Net Atomic Charges

     Atom                 Charge (a.u.)
  ----------------------------------------
      1 O                    -0.221680
      2 C                     0.213556
      3 C                    -0.081702
      4 C                    -0.079012
      5 C                     0.215717
      6 O                    -0.173503
      7 C                    -0.067183
      8 C                    -0.050745
      9 O                    -0.173290
     10 C                     0.207672
     11 C                    -0.083758
     12 C                    -0.079236
     13 C                     0.219897
     14 O                    -0.198781
     15 O                    -0.170382
     16 O                    -0.181489
     17 O                    -0.194922
     18 C                    -0.133877
     19 C                     0.025853
     20 C                    -0.144464
     21 C                    -0.143596
     22 C                     0.025331
     23 O                    -0.183009
     24 H                     0.076303
     25 H                     0.083413
     26 H                     0.084911
     27 H                     0.079851
     28 H                     0.071946
     29 H                     0.079760
     30 H                     0.072950
     31 H                     0.091723
     32 O                    -0.210162
     33 C                    -0.127291
     34 C                     0.026374
     35 C                    -0.144306
     36 C                    -0.143864
     37 C                     0.025019
     38 O                    -0.187718
     39 H                     0.083529
     40 H                     0.088966
     41 H                     0.085688
     42 H                     0.087273
     43 H                     0.077641
     44 H                     0.074069
     45 H                     0.077880
     46 H                     0.074394
     47 H                     0.082835
     48 H                     0.090677
     49 H                     0.086680
     50 H                     0.101817
     51 H                     0.084052
     52 H                     0.099875
     53 H                     0.100103
     54 H                     0.078574
     55 H                     0.112123
     56 H                     0.087518
  ----------------------------------------
  Sum of atomic charges =     0.000000

                    Cartesian Multipole Moments
 -----------------------------------------------------------------
    Charge (ESU x 10^10)
                 0.0000
    Dipole Moment (Debye)
         X       0.3983      Y       2.8425      Z      -1.2476
       Tot       3.1296
    Quadrupole Moments (Debye-Ang)
        XX    -152.1288     XY      11.9567     YY    -164.6728
        XZ     -19.5730     YZ      -1.1390     ZZ    -164.6484

 Total job time:  99.48s(wall), 4743.17s(cpu)
        *  Thank you very much for using Q-Chem.  Have a nice day.  *
