 Q-Chem 5.0, Q-Chem, Inc., Pleasanton, CA (2017)
 Q-Chem 5.0.1 for Intel X86 EM64T Linux

User input:
--------------------------------------------------------------
$molecule
0  1
O -3.94934 -3.66094 2.70899
C -3.26408 -4.56952 2.26188
C -3.36658 -6.02376 2.66595
C -4.06137 -6.97914 1.68189
C -4.41791 -6.40938 0.32677
O -5.62324 -6.90466 -0.08227
C -5.55841 -7.56976 -1.34825
C -4.19822 -7.33418 -1.99672
O -4.05049 -5.94579 -2.33352
C -5.10533 -5.38631 -2.9765
C -5.89035 -6.38242 -3.79636
C -7.41174 -6.17377 -3.7855
C -7.89085 -4.83063 -3.27253
O -8.59443 -4.04548 -3.89145
O -2.26299 -4.24971 1.39371
O -7.648 -4.58185 -1.9576
O -5.17081 -4.17646 -3.13592
C -8.0566 -3.44737 -1.28891
C -5.62095 -6.14333 -5.31889
C -5.88112 -7.41886 -6.12679
C -7.38141 -7.54572 -5.95397
C -7.69151 -6.18728 -5.30604
O -6.67682 -5.33461 -5.77044
H -5.72697 -7.46613 -3.75296
H -7.98359 -6.95971 -3.24908
H -4.59784 -5.76438 -5.53662
H -5.65878 -7.16319 -7.18842
H -5.29745 -8.32261 -5.8481
H -7.83981 -7.65419 -6.96149
H -7.71394 -8.36991 -5.28599
H -8.7328 -5.88061 -5.54979
O -4.11131 -5.28226 -0.01983
C -1.99342 -2.972 0.94948
C -1.98806 -6.69606 2.79672
C -2.08632 -7.92916 3.69403
C -2.81233 -8.88732 2.77448
C -2.94322 -8.0251 1.515
O -1.76789 -7.25094 1.52266
H -3.89021 -6.03036 3.64873
H -4.97099 -7.44386 2.12824
H -1.7368 -2.31464 1.80749
H -1.2031 -6.00567 3.17674
H -1.05501 -8.31356 3.86248
H -2.57777 -7.74465 4.67354
H -2.13962 -9.74908 2.56518
H -3.79163 -9.2573 3.14777
H -3.09645 -8.68191 0.63287
H -2.87362 -2.56085 0.41042
H -1.1308 -3.00399 0.25291
H -7.7197 -3.50718 -0.23366
H -9.16464 -3.36952 -1.30755
H -7.60761 -2.54566 -1.75746
H -3.33253 -7.66246 -1.38539
H -4.01128 -7.98026 -2.88062
H -6.53314 -7.42581 -1.79685
H -5.59835 -8.65902 -1.13442
$end

$opt
CONSTRAINT
tors           1           2           3           4    +104.211
tors           3           4           5           6    -142.105
tors           4           5           6           7    -123.158
tors           5           6           7           8      -9.474
tors           6           7           8           9     -66.316
tors           7           8           9          10     -47.368
tors           8           9          10          11     -28.421
tors           9          10          11          12    +142.105
tors          11          12          13          14    +123.158
ENDCONSTRAINT
$end

$rem
JOBTYPE                   OPT
METHOD                    B3LYP
DFT_D                     d3_op
BASIS                     STO-3G
GEOM_OPT_MAX_CYCLES       100
GEOM_OPT_TOL_GRADIENT     300
GEOM_OPT_TOL_DISPLACEMENT 1200
GEOM_OPT_TOL_ENERGY       100
SYMMETRY                  False
THRESH                    12
SCF_CONVERGENCE           8
MAX_SUB_FILE_NUM          128
MEM_STATIC                400
MEM_TOTAL                 4000
$end
--------------------------------------------------------------

   15   -1510.0638146556      9.87E-09 Convergence criterion met
 Total energy in the final basis set = -1510.06381466
   15   -1510.1454441946      5.32E-09 Convergence criterion met
 Total energy in the final basis set = -1510.14544419
   14   -1510.1920250343      3.11E-09 Convergence criterion met
 Total energy in the final basis set = -1510.19202503
   13   -1510.2183221274      8.30E-09 Convergence criterion met
 Total energy in the final basis set = -1510.21832213
   13   -1510.2310954523      6.62E-09 Convergence criterion met
 Total energy in the final basis set = -1510.23109545
   13   -1510.2375089096      5.99E-09 Convergence criterion met
 Total energy in the final basis set = -1510.23750891
   13   -1510.2412199898      3.71E-09 Convergence criterion met
 Total energy in the final basis set = -1510.24121999
   13   -1510.2435787756      4.01E-09 Convergence criterion met
   10   -1510.2487905971      8.64E-09 Convergence criterion met
 Total energy in the final basis set = -1510.24879060
   10   -1510.2487995609      7.25E-09 Convergence criterion met
 Total energy in the final basis set = -1510.24879956
   10   -1510.2488057072      6.81E-09 Convergence criterion met
 Total energy in the final basis set = -1510.24880571
    9   -1510.2488095172      8.23E-09 Convergence criterion met
 Total energy in the final basis set = -1510.24880952
    9   -1510.2488115925      4.43E-09 Convergence criterion met
 Total energy in the final basis set = -1510.24881159
    9   -1510.2488128979      3.01E-09 Convergence criterion met
 Total energy in the final basis set = -1510.24881290

             Standard Nuclear Orientation (Angstroms)
    I     Atom           X                Y                Z
 ----------------------------------------------------------------
    1      O       3.0722958976    -2.9374774623    -0.4530609128
    2      C       3.4829651509    -1.8511633201     0.0127829082
    3      C       4.0769100507    -0.6534125523    -0.8197251951
    4      C       3.0675247140     0.5599000780    -0.9872005676
    5      C       1.6083852490     0.2709219214    -0.4921195812
    6      O       0.6604168492     0.9015598895    -1.3828754807
    7      C      -0.2779037631     1.8494929914    -0.7373671158
    8      C      -0.3375070416     1.9321845778     0.8428217744
    9      O      -0.8358918801     0.7623642877     1.5919446030
   10      C      -2.0540553920     0.1445175653     1.1437701132
   11      C      -3.1615346030     0.9876838900     0.3924888221
   12      C      -3.8418291259     0.1538113367    -0.7703968933
   13      C      -3.1271473178    -1.2227090584    -1.0279826200
   14      O      -3.6291052847    -2.3646212742    -0.9954037248
   15      O       3.5997640901    -1.5661003729     1.4081784295
   16      O      -1.7597453456    -0.9326508170    -1.3470887487
   17      O      -2.2461024641    -1.0392415533     1.5014659668
   18      C      -0.9750195351    -2.1844879305    -1.4340711634
   19      C      -4.4088186308     1.1644475697     1.3741660132
   20      C      -5.4091875478     2.2057657190     0.7283431245
   21      C      -6.0817662851     1.3293799375    -0.3930262949
   22      C      -5.3098294899    -0.0351036560    -0.2117410502
   23      O      -5.1168291203    -0.1271144469     1.2549315224
   24      H      -2.7984372698     1.9672648198     0.0504329830
   25      H      -3.8401562054     0.7292253318    -1.7142895322
   26      H      -4.1381743969     1.3635123234     2.4294692881
   27      H      -6.1452837750     2.5460386023     1.4741334374
   28      H      -4.8853560418     3.0868191249     0.3237201457
   29      H      -7.1583474815     1.1916853205    -0.2043998914
   30      H      -5.9497245183     1.7512973172    -1.4020448612
   31      H      -5.8217267589    -0.9403710885    -0.5918830217
   32      O       1.2779650151    -0.4476331317     0.4748103807
   33      C       2.9555003823    -2.6403354451     2.1968593618
   34      C       5.2549772314     0.0670965269    -0.0391359257
   35      C       5.9853066025     1.0721849547    -1.0179656203
   36      C       4.9637876102     2.2691536074    -1.0540805652
   37      C       3.8043762216     1.6962534131    -0.1468748519
   38      O       4.5329417469     0.9558651166     0.9032564231
   39      H       4.3930027057    -1.0458498073    -1.8021219053
   40      H       2.9908723467     0.8637116098    -2.0462985790
   41      H       3.3316502227    -3.6431878087     1.9091166082
   42      H       5.9241041996    -0.6179442836     0.5156638690
   43      H       6.9565507564     1.3816242612    -0.6007175285
   44      H       6.1541579705     0.6290455334    -2.0125046193
   45      H       5.3913763195     3.1772263104    -0.5992202371
   46      H       4.6205870159     2.5109083572    -2.0726750368
   47      H       3.1348512980     2.4550584233     0.3031579067
   48      H       1.8543376828    -2.6188194200     2.0638301353
   49      H       3.2033772748    -2.4341286930     3.2540991387
   50      H       0.0286908909    -1.8933881838    -1.7934577448
   51      H      -1.4338542269    -2.9078348217    -2.1380153628
   52      H      -0.8856235845    -2.6611968107    -0.4362638293
   53      H       0.6817632295     2.1049361727     1.2455657655
   54      H      -0.9454734214     2.8373269414     1.0779061345
   55      H      -1.2779777821     1.6155112285    -1.1518276645
   56      H       0.0023668710     2.8723071639    -1.0831081886
 ----------------------------------------------------------------

    9   -1510.2488137804      2.84E-09 Convergence criterion met
 Total energy in the final basis set = -1510.24881378
 Final energy is   -1510.24881378038
 **  OPTIMIZATION CONVERGED  **

                    Orbital Energies (a.u.)
 --------------------------------------------------------------

 Alpha MOs
 -- Occupied --
-18.931 -18.924 -18.923 -18.915 -18.900 -18.893 -18.889 -18.874
-18.872 -18.861 -10.109 -10.100 -10.094 -10.090 -10.087 -10.082
-10.067 -10.062 -10.061 -10.058 -10.052 -10.050 -10.039 -10.039
-10.037 -10.036 -10.025 -10.023 -10.023 -10.021  -1.014  -1.006
 -0.999  -0.997  -0.973  -0.971  -0.942  -0.934  -0.930  -0.924
 -0.765  -0.764  -0.727  -0.724  -0.719  -0.707  -0.706  -0.653
 -0.650  -0.624  -0.601  -0.589  -0.551  -0.546  -0.540  -0.538
 -0.515  -0.507  -0.482  -0.470  -0.467  -0.460  -0.448  -0.442
 -0.438  -0.434  -0.432  -0.423  -0.410  -0.408  -0.402  -0.399
 -0.395  -0.386  -0.376  -0.364  -0.363  -0.358  -0.356  -0.349
 -0.347  -0.340  -0.335  -0.333  -0.330  -0.327  -0.317  -0.313
 -0.308  -0.307  -0.306  -0.305  -0.295  -0.284  -0.282  -0.278
 -0.272  -0.249  -0.247  -0.242  -0.238  -0.235  -0.234  -0.177
 -0.169  -0.166  -0.164  -0.153  -0.151  -0.147  -0.147  -0.141
 -0.140

          Ground-State Mulliken Net Atomic Charges

     Atom                 Charge (a.u.)
  ----------------------------------------
      1 O                    -0.220159
      2 C                     0.209256
      3 C                    -0.080528
      4 C                    -0.082414
      5 C                     0.213000
      6 O                    -0.189375
      7 C                    -0.050965
      8 C                    -0.048583
      9 O                    -0.165904
     10 C                     0.214730
     11 C                    -0.084332
     12 C                    -0.079819
     13 C                     0.215151
     14 O                    -0.205747
     15 O                    -0.163066
     16 O                    -0.177452
     17 O                    -0.194443
     18 C                    -0.128115
     19 C                     0.025307
     20 C                    -0.144530
     21 C                    -0.143895
     22 C                     0.025235
     23 O                    -0.183354
     24 H                     0.073759
     25 H                     0.080547
     26 H                     0.083031
     27 H                     0.078823
     28 H                     0.070050
     29 H                     0.079007
     30 H                     0.072277
     31 H                     0.092247
     32 O                    -0.178479
     33 C                    -0.127467
     34 C                     0.027269
     35 C                    -0.144905
     36 C                    -0.142493
     37 C                     0.025652
     38 O                    -0.182446
     39 H                     0.084169
     40 H                     0.085749
     41 H                     0.087495
     42 H                     0.086959
     43 H                     0.078483
     44 H                     0.074289
     45 H                     0.077940
     46 H                     0.073852
     47 H                     0.076996
     48 H                     0.095973
     49 H                     0.089229
     50 H                     0.091937
     51 H                     0.088817
     52 H                     0.096723
     53 H                     0.093577
     54 H                     0.078506
     55 H                     0.093425
     56 H                     0.079013
  ----------------------------------------
  Sum of atomic charges =     0.000000

                    Cartesian Multipole Moments
 -----------------------------------------------------------------
    Charge (ESU x 10^10)
                -0.0000
    Dipole Moment (Debye)
         X       1.3056      Y       5.6654      Z      -2.5619
       Tot       6.3533
    Quadrupole Moments (Debye-Ang)
        XX    -152.1246     XY     -11.4967     YY    -157.2814
        XZ       0.2236     YZ      -1.0894     ZZ    -161.5922

 Total job time:  70.85s(wall), 3374.73s(cpu)
        *  Thank you very much for using Q-Chem.  Have a nice day.  *
