 Q-Chem 5.0, Q-Chem, Inc., Pleasanton, CA (2017)
 Q-Chem 5.0.1 for Intel X86 EM64T Linux

User input:
--------------------------------------------------------------
$molecule
0  1
O -3.94934 -3.66094 2.70899
C -3.26408 -4.56952 2.26188
C -3.36658 -6.02376 2.66595
C -3.63629 -7.04588 1.54953
C -3.59671 -6.52161 0.1312
O -3.52642 -5.15766 0.14248
C -4.47264 -4.55234 1.0299
C -5.70293 -5.4423 1.17304
O -5.91564 -5.76446 2.55646
C -7.13046 -5.4245 3.05422
C -7.15013 -5.35647 4.56275
C -7.83199 -6.54535 5.2555
C -8.06667 -7.7679 4.3912
O -7.19265 -8.47934 3.91738
O -2.00843 -4.20398 1.80806
O -9.3651 -8.12769 4.21321
O -8.15196 -5.33502 2.38411
C -9.7748 -9.22305 3.4822
C -5.81076 -5.34702 5.32868
C -5.99714 -4.72834 6.71742
C -6.76092 -5.82666 7.42298
C -6.78408 -6.89082 6.32514
O -5.56943 -6.69821 5.63677
H -7.644 -4.38625 4.79586
H -8.81716 -6.24685 5.6796
H -5.0162 -4.7761 4.81454
H -4.98803 -4.64769 7.18227
H -6.48302 -3.72901 6.72997
H -6.15523 -6.17868 8.28764
H -7.78422 -5.55381 7.76057
H -6.94501 -7.9004 6.76418
O -3.48788 -7.19559 -0.88142
C -1.57551 -2.91942 1.53331
C -1.9937 -6.54527 3.17247
C -2.16394 -7.79212 4.04339
C -2.52912 -8.81353 2.9936
C -2.40321 -7.96067 1.72659
O -1.37152 -7.05731 2.02417
H -3.98259 -6.14102 3.56407
H -4.54486 -7.67281 1.68863
H -0.70949 -2.68031 2.18372
H -1.41774 -5.77987 3.73907
H -1.16046 -8.0491 4.45256
H -2.88475 -7.69266 4.88325
H -1.75528 -9.61339 2.99843
H -3.53949 -9.26469 3.09924
H -2.22782 -8.62334 0.85028
H -2.36665 -2.15695 1.69462
H -1.2527 -2.86667 0.47326
H -10.88249 -9.27911 3.50056
H -9.36191 -10.15495 3.92432
H -9.43858 -9.12609 2.42765
H -6.57411 -4.84584 0.79212
H -5.88994 -6.31566 0.51097
H -4.88145 -4.00903 0.14097
H -4.73204 -3.45605 0.77937
$end

$opt
CONSTRAINT
tors           1           2           3           4    +123.158
tors           3           4           5           6      -9.474
tors           4           5           6           7     -47.368
tors           5           6           7           8     -28.421
tors           6           7           8           9    +123.158
tors           7           8           9          10    +123.158
tors           8           9          10          11    -161.053
tors           9          10          11          12    -104.211
tors          11          12          13          14     +66.316
ENDCONSTRAINT
$end

$rem
JOBTYPE                   OPT
METHOD                    B3LYP
DFT_D                     d3_op
BASIS                     STO-3G
GEOM_OPT_MAX_CYCLES       100
GEOM_OPT_TOL_GRADIENT     300
GEOM_OPT_TOL_DISPLACEMENT 1200
GEOM_OPT_TOL_ENERGY       100
SYMMETRY                  False
THRESH                    12
SCF_CONVERGENCE           8
MAX_SUB_FILE_NUM          128
MEM_STATIC                400
MEM_TOTAL                 4000
$end
--------------------------------------------------------------

   17   -1509.7093980126      8.26E-09 Convergence criterion met
 Total energy in the final basis set = -1509.70939801
   14   -1509.8231162051      6.88E-09 Convergence criterion met
 Total energy in the final basis set = -1509.82311621
   14   -1509.9082791460      6.56E-09 Convergence criterion met
 Total energy in the final basis set = -1509.90827915
   14   -1509.9726935687      5.52E-09 Convergence criterion met
 Total energy in the final basis set = -1509.97269357
   14   -1510.0206313095      5.73E-09 Convergence criterion met
 Total energy in the final basis set = -1510.02063131
   14   -1510.0575671869      6.51E-09 Convergence criterion met
 Total energy in the final basis set = -1510.05756719
   14   -1510.0870765671      6.08E-09 Convergence criterion met
 Total energy in the final basis set = -1510.08707657
   14   -1510.1116667250      5.03E-09 Convergence criterion met
   11   -1510.2611662722      2.39E-09 Convergence criterion met
 Total energy in the final basis set = -1510.26116627
   11   -1510.2611727697      2.55E-09 Convergence criterion met
 Total energy in the final basis set = -1510.26117277
    9   -1510.2611750674      6.11E-09 Convergence criterion met
 Total energy in the final basis set = -1510.26117507
    9   -1510.2611771085      3.86E-09 Convergence criterion met
 Total energy in the final basis set = -1510.26117711
    9   -1510.2611781334      3.96E-09 Convergence criterion met
 Total energy in the final basis set = -1510.26117813
    9   -1510.2611794863      4.85E-09 Convergence criterion met
 Total energy in the final basis set = -1510.26117949

             Standard Nuclear Orientation (Angstroms)
    I     Atom           X                Y                Z
 ----------------------------------------------------------------
    1      O       1.4813035440    -1.9833722420     1.2138924868
    2      C       2.1363469716    -1.3850060352     0.3165127980
    3      C       1.5646075611    -0.3521398159    -0.7070938112
    4      C       2.2470463669     1.0808029570    -0.7228224114
    5      C       3.0236514382     1.7310479604     0.5119976092
    6      O       3.0170595376     1.1629224790     1.8396823301
    7      C       1.6809399948     0.7666340018     2.3578829720
    8      C       0.4352882554     1.5700810084     1.8134147486
    9      O      -0.4837419794     0.5813587072     1.2183820453
   10      C      -1.7917363734     0.5970789288     1.7758839467
   11      C      -2.4773243644    -0.7751601615     1.4196169647
   12      C      -3.5436568669    -0.6017999811     0.2460707634
   13      C      -3.6678260606     0.8824384988    -0.2384843217
   14      O      -2.7962983578     1.5638926937    -0.8225486420
   15      O       3.5325137049    -1.5566282914     0.1212558298
   16      O      -4.9743065833     1.3640135740     0.0928147862
   17      O      -2.2488962359     1.5225865323     2.4813006698
   18      C      -5.1116969175     2.7798405075    -0.3227053906
   19      C      -1.4796742615    -1.8221772083     0.7658098052
   20      C      -2.1998086308    -3.2272164726     0.7088067300
   21      C      -3.1901864137    -3.0292946237    -0.4975043860
   22      C      -2.9004484486    -1.5263059601    -0.8774403752
   23      O      -1.4439828585    -1.3902789646    -0.6536407005
   24      H      -2.9602809995    -1.1595374207     2.3360938504
   25      H      -4.5433408084    -0.9556226127     0.5527964145
   26      H      -0.4371338295    -1.8385590291     1.1652546575
   27      H      -1.4675143072    -4.0239550968     0.5037384198
   28      H      -2.7211800170    -3.4638471146     1.6501144938
   29      H      -2.9387083028    -3.6923410123    -1.3407303322
   30      H      -4.2435823545    -3.1946792198    -0.2203795904
   31      H      -3.1635579381    -1.2383988824    -1.9139552262
   32      O       3.8003108763     2.6933111951     0.3154044303
   33      C       4.0890848736    -2.5219652561     1.1012254445
   34      C       1.9608428926    -0.8391040251    -2.1714508582
   35      C       1.2271072218     0.0627206003    -3.2430151101
   36      C       2.1453272413     1.3416886115    -3.2530206665
   37      C       3.1201873288     1.0058440784    -2.0574953684
   38      O       3.3837842899    -0.4349896957    -2.2628495608
   39      H       0.4698839044    -0.2913151837    -0.5488824227
   40      H       1.4312876747     1.8016167698    -0.9222930558
   41      H       4.5536790355    -3.3601837357     0.5466682212
   42      H       1.8555051232    -1.9302419476    -2.3279586042
   43      H       1.2102906001    -0.4357796118    -4.2248569956
   44      H       0.1910190947     0.2859126527    -2.9405838152
   45      H       2.7124029110     1.4202016027    -4.1947530449
   46      H       1.5841300859     2.2768671600    -3.0971589237
   47      H       4.0623123467     1.5864267197    -2.0194630670
   48      H       3.2753723987    -2.8953629408     1.7551152357
   49      H       4.8604784564    -2.0045925803     1.7040123207
   50      H      -6.1436081345     3.0766673878    -0.0599116075
   51      H      -4.9550443723     2.9020741884    -1.4139225996
   52      H      -4.3903508079     3.4305525879     0.2124710683
   53      H      -0.0923521232     2.1041285407     2.6334351636
   54      H       0.7249398858     2.3216173737     1.0512594235
   55      H       1.7654317985     0.9262835629     3.4529637270
   56      H       1.4812796324    -0.3132307538     2.1860898732
 ----------------------------------------------------------------

    9   -1510.2611794835      3.66E-09 Convergence criterion met
 Total energy in the final basis set = -1510.26117948
 Final energy is   -1510.26117948355
 **  OPTIMIZATION CONVERGED  **

                    Orbital Energies (a.u.)
 --------------------------------------------------------------

 Alpha MOs
 -- Occupied --
-18.949 -18.937 -18.937 -18.921 -18.885 -18.884 -18.882 -18.880
-18.880 -18.874 -10.109 -10.106 -10.100 -10.099 -10.075 -10.065
-10.064 -10.062 -10.061 -10.057 -10.054 -10.045 -10.039 -10.037
-10.032 -10.031 -10.020 -10.016 -10.015 -10.014  -1.022  -1.019
 -1.011  -1.001  -0.968  -0.966  -0.945  -0.943  -0.937  -0.932
 -0.763  -0.757  -0.726  -0.718  -0.712  -0.699  -0.696  -0.664
 -0.662  -0.616  -0.598  -0.586  -0.546  -0.541  -0.537  -0.533
 -0.514  -0.509  -0.493  -0.480  -0.468  -0.460  -0.451  -0.436
 -0.432  -0.428  -0.422  -0.417  -0.414  -0.411  -0.406  -0.402
 -0.395  -0.385  -0.381  -0.374  -0.366  -0.360  -0.359  -0.353
 -0.346  -0.342  -0.333  -0.330  -0.325  -0.323  -0.323  -0.308
 -0.307  -0.304  -0.301  -0.297  -0.295  -0.287  -0.283  -0.276
 -0.271  -0.257  -0.251  -0.248  -0.238  -0.232  -0.228  -0.186
 -0.179  -0.179  -0.166  -0.164  -0.161  -0.152  -0.148  -0.144
 -0.138

          Ground-State Mulliken Net Atomic Charges

     Atom                 Charge (a.u.)
  ----------------------------------------
      1 O                    -0.226986
      2 C                     0.219422
      3 C                    -0.089508
      4 C                    -0.084703
      5 C                     0.205834
      6 O                    -0.176910
      7 C                    -0.065972
      8 C                    -0.054681
      9 O                    -0.175375
     10 C                     0.213319
     11 C                    -0.078609
     12 C                    -0.080473
     13 C                     0.205182
     14 O                    -0.216657
     15 O                    -0.153361
     16 O                    -0.167304
     17 O                    -0.214901
     18 C                    -0.128703
     19 C                     0.011036
     20 C                    -0.145619
     21 C                    -0.143781
     22 C                     0.025672
     23 O                    -0.195697
     24 H                     0.085710
     25 H                     0.086260
     26 H                     0.109433
     27 H                     0.076990
     28 H                     0.071898
     29 H                     0.076554
     30 H                     0.073164
     31 H                     0.081160
     32 O                    -0.195240
     33 C                    -0.135205
     34 C                     0.027604
     35 C                    -0.145518
     36 C                    -0.141530
     37 C                     0.025475
     38 O                    -0.186376
     39 H                     0.116908
     40 H                     0.083341
     41 H                     0.089489
     42 H                     0.081206
     43 H                     0.076331
     44 H                     0.081595
     45 H                     0.076849
     46 H                     0.074410
     47 H                     0.090219
     48 H                     0.101962
     49 H                     0.092187
     50 H                     0.091103
     51 H                     0.088536
     52 H                     0.091452
     53 H                     0.098255
     54 H                     0.087820
     55 H                     0.086510
     56 H                     0.100226
  ----------------------------------------
  Sum of atomic charges =    -0.000000

                    Cartesian Multipole Moments
 -----------------------------------------------------------------
    Charge (ESU x 10^10)
                -0.0000
    Dipole Moment (Debye)
         X      -2.9433      Y      -2.0512      Z      -0.2315
       Tot       3.5950
    Quadrupole Moments (Debye-Ang)
        XX    -164.0400     XY      -6.9849     YY    -156.6510
        XZ       4.6990     YZ      -4.8761     ZZ    -158.2713

 Total job time:  129.16s(wall), 6161.56s(cpu)
        *  Thank you very much for using Q-Chem.  Have a nice day.  *
