 Q-Chem 5.0, Q-Chem, Inc., Pleasanton, CA (2017)
 Q-Chem 5.0.1 for Intel X86 EM64T Linux

User input:
--------------------------------------------------------------
$molecule
0  1
O 1.481303544 -1.983372242 1.2138924868
C 2.1363469716 -1.3850060352 0.316512798
C 1.5646075611 -0.3521398159 -0.7070938112
C 2.2470463669 1.080802957 -0.7228224114
C 3.0236514382 1.7310479604 0.5119976092
O 3.0170595376 1.162922479 1.8396823301
C 1.6809399948 0.7666340018 2.357882972
C 0.4352882554 1.5700810084 1.8134147486
O -0.4837419794 0.5813587072 1.2183820453
C -1.7917363734 0.5970789288 1.7758839467
C -2.4773243644 -0.7751601615 1.4196169647
C -3.5436568669 -0.6017999811 0.2460707634
C -3.6678260606 0.8824384988 -0.2384843217
O -2.7962983578 1.5638926937 -0.822548642
O 3.5325137049 -1.5566282914 0.1212558298
O -4.9743065833 1.364013574 0.0928147862
O -2.2488962359 1.5225865323 2.4813006698
C -5.1116969175 2.7798405075 -0.3227053906
C -1.4796742615 -1.8221772083 0.7658098052
C -2.1998086308 -3.2272164726 0.70880673
C -3.1901864137 -3.0292946237 -0.497504386
C -2.9004484486 -1.5263059601 -0.8774403752
O -1.4439828585 -1.3902789646 -0.6536407005
H -2.9602809995 -1.1595374207 2.3360938504
H -4.5433408084 -0.9556226127 0.5527964145
H -0.4371338295 -1.8385590291 1.1652546575
H -1.4675143072 -4.0239550968 0.5037384198
H -2.721180017 -3.4638471146 1.6501144938
H -2.9387083028 -3.6923410123 -1.3407303322
H -4.2435823545 -3.1946792198 -0.2203795904
H -3.1635579381 -1.2383988824 -1.9139552262
O 3.8003108763 2.6933111951 0.3154044303
C 4.0890848736 -2.5219652561 1.1012254445
C 1.9608428926 -0.8391040251 -2.1714508582
C 1.2271072218 0.0627206003 -3.2430151101
C 2.1453272413 1.3416886115 -3.2530206665
C 3.1201873288 1.0058440784 -2.0574953684
O 3.3837842899 -0.4349896957 -2.2628495608
H 0.4698839044 -0.2913151837 -0.5488824227
H 1.4312876747 1.8016167698 -0.9222930558
H 4.5536790355 -3.3601837357 0.5466682212
H 1.8555051232 -1.9302419476 -2.3279586042
H 1.2102906001 -0.4357796118 -4.2248569956
H 0.1910190947 0.2859126527 -2.9405838152
H 2.712402911 1.4202016027 -4.1947530449
H 1.5841300859 2.27686716 -3.0971589237
H 4.0623123467 1.5864267197 -2.019463067
H 3.2753723987 -2.8953629408 1.7551152357
H 4.8604784564 -2.0045925803 1.7040123207
H -6.1436081345 3.0766673878 -0.0599116075
H -4.9550443723 2.9020741884 -1.4139225996
H -4.3903508079 3.4305525879 0.2124710683
H -0.0923521232 2.1041285407 2.6334351636
H 0.7249398858 2.3216173737 1.0512594235
H 1.7654317985 0.9262835629 3.452963727
H 1.4812796324 -0.3132307538 2.1860898732
$end

$rem
JOBTYPE                   OPT
METHOD                    B3LYP
DFT_D                     d3_op
BASIS                     STO-3G
GEOM_OPT_MAX_CYCLES       100
GEOM_OPT_TOL_GRADIENT     300
GEOM_OPT_TOL_DISPLACEMENT 1200
GEOM_OPT_TOL_ENERGY       100
SYMMETRY                  False
THRESH                    12
SCF_CONVERGENCE           8
MAX_SUB_FILE_NUM          128
MEM_STATIC                400
MEM_TOTAL                 4000
$end
--------------------------------------------------------------

   16   -1510.2613469344      6.22E-09 Convergence criterion met
 Total energy in the final basis set = -1510.26134693
   15   -1510.2627466988      2.92E-09 Convergence criterion met
 Total energy in the final basis set = -1510.26274670
   15   -1510.2608680661      1.82E-09 Convergence criterion met
 Total energy in the final basis set = -1510.26086807
   14   -1510.2514638302      9.64E-09 Convergence criterion met
 Total energy in the final basis set = -1510.25146383
   15   -1510.2486888839      3.51E-09 Convergence criterion met
 Total energy in the final basis set = -1510.24868888
   14   -1510.2566947933      5.39E-09 Convergence criterion met
 Total energy in the final basis set = -1510.25669479
   14   -1510.2627610258      4.31E-09 Convergence criterion met
 Total energy in the final basis set = -1510.26276103
   14   -1510.2676883543      3.03E-09 Convergence criterion met
   12   -1510.2917310754      6.55E-09 Convergence criterion met
 Total energy in the final basis set = -1510.29173108
   12   -1510.2917621702      4.25E-09 Convergence criterion met
 Total energy in the final basis set = -1510.29176217
   12   -1510.2917602065      5.46E-09 Convergence criterion met
 Total energy in the final basis set = -1510.29176021
   10   -1510.2917769884      8.45E-09 Convergence criterion met
 Total energy in the final basis set = -1510.29177699
    9   -1510.2917713072      6.53E-09 Convergence criterion met
 Total energy in the final basis set = -1510.29177131
    9   -1510.2917713588      4.84E-09 Convergence criterion met
 Total energy in the final basis set = -1510.29177136

             Standard Nuclear Orientation (Angstroms)
    I     Atom           X                Y                Z
 ----------------------------------------------------------------
    1      O      -1.4630486840    -2.2420827125    -1.1148207110
    2      C      -2.0470704099    -1.3096932851    -0.4998255359
    3      C      -1.4591121778    -0.4620367821     0.6560971539
    4      C      -1.5434994326     1.1102478423     0.4910723894
    5      C      -2.6197526667     1.6557494940    -0.5361167648
    6      O      -2.3246448120     1.7807294338    -1.9490538261
    7      C      -1.1540371962     1.0637092041    -2.4811433108
    8      C       0.2588577567     1.6779191296    -2.1096116496
    9      O       0.9852113213     0.8106778513    -1.1504329906
   10      C       1.6303005796    -0.2601729373    -1.8544582467
   11      C       2.3670560275    -1.2153032526    -0.8634103070
   12      C       3.0562053505    -0.5487703556     0.4024740980
   13      C       2.6752889037     0.9586123782     0.6485783772
   14      O       1.9035840246     1.4214054955     1.5173061690
   15      O      -3.3696428557    -0.8668595581    -0.8000354026
   16      O       3.4537162223     1.7618569273    -0.2449025206
   17      O       1.5735869961    -0.3956420864    -3.0965095096
   18      C       3.1221702727     3.1920419897    -0.0553567505
   19      C       1.3869363046    -2.2721113846    -0.1655178581
   20      C       2.2578936292    -3.5134801279     0.2587885854
   21      C       3.0938291648    -2.9050484179     1.4493523000
   22      C       2.4793985294    -1.4538568612     1.5607030404
   23      O       1.0738555990    -1.6500407379     1.1403925845
   24      H       3.1194771559    -1.7521506558    -1.4680020614
   25      H       4.1561081492    -0.6166737698     0.3215424573
   26      H       0.4238430111    -2.4677484842    -0.7014400803
   27      H       1.6080214688    -4.3335388732     0.6040453413
   28      H       2.8909197412    -3.8856404089    -0.5622667213
   29      H       2.9349605029    -3.4658177050     2.3841649790
   30      H       4.1742145632    -2.8747727456     1.2355737077
   31      H       2.5184749530    -0.9887562374     2.5647046827
   32      O      -3.7250656914     2.1219219257    -0.1854957008
   33      C      -3.9339868604    -1.6055389296    -1.9544935780
   34      C      -2.1926018799    -0.6675204268     2.0636147984
   35      C      -1.0972728746    -0.4044936465     3.1644510694
   36      C      -0.8742125117     1.1415911964     2.9754061997
   37      C      -2.0264821729     1.5009840981     1.9489868269
   38      O      -3.0879964022     0.4985397716     2.2026234392
   39      H      -0.3954551161    -0.7626812534     0.7768902442
   40      H      -0.5419250395     1.5111092208     0.2627765153
   41      H      -4.8593688730    -2.1202220100    -1.6308366062
   42      H      -2.7616951643    -1.6121770139     2.1638975870
   43      H      -1.4936191819    -0.6404457391     4.1652839303
   44      H      -0.1845726662    -0.9940075312     2.9827603479
   45      H      -1.0011193056     1.6947571035     3.9189038262
   46      H       0.1245648875     1.3575443007     2.5526754468
   47      H      -2.4402647476     2.5244518275     2.0292089699
   48      H      -3.1924486577    -2.3447519108    -2.3196749451
   49      H      -4.1780231112    -0.8764739635    -2.7518321987
   50      H       3.7427804939     3.7492242218    -0.7808852627
   51      H       3.3567619518     3.5327312982     0.9738135393
   52      H       2.0495974854     3.3901459638    -0.2544801971
   53      H       0.8605109783     1.8022170951    -3.0337308085
   54      H       0.1352119075     2.6612802518    -1.6137501837
   55      H      -1.2819839164     1.1216240893    -3.5814025893
   56      H      -1.1531385213    -0.0102249518    -2.2004785886
 ----------------------------------------------------------------

    9   -1510.2917715161      2.66E-09 Convergence criterion met
 Total energy in the final basis set = -1510.29177152
 Final energy is   -1510.29177151614
 **  OPTIMIZATION CONVERGED  **

                    Orbital Energies (a.u.)
 --------------------------------------------------------------

 Alpha MOs
 -- Occupied --
-18.950 -18.942 -18.942 -18.919 -18.909 -18.889 -18.883 -18.879
-18.872 -18.862 -10.113 -10.112 -10.104 -10.088 -10.082 -10.075
-10.073 -10.072 -10.061 -10.060 -10.050 -10.048 -10.044 -10.042
-10.030 -10.027 -10.022 -10.011  -9.999  -9.994  -1.030  -1.017
 -1.017  -0.993  -0.988  -0.955  -0.951  -0.944  -0.940  -0.924
 -0.775  -0.748  -0.734  -0.719  -0.706  -0.705  -0.690  -0.672
 -0.657  -0.622  -0.601  -0.584  -0.556  -0.548  -0.536  -0.523
 -0.520  -0.506  -0.494  -0.482  -0.474  -0.459  -0.456  -0.441
 -0.438  -0.429  -0.424  -0.419  -0.415  -0.412  -0.405  -0.399
 -0.395  -0.388  -0.384  -0.375  -0.369  -0.366  -0.358  -0.351
 -0.351  -0.343  -0.335  -0.334  -0.327  -0.319  -0.318  -0.314
 -0.311  -0.308  -0.304  -0.295  -0.289  -0.288  -0.283  -0.278
 -0.266  -0.260  -0.256  -0.245  -0.240  -0.230  -0.216  -0.194
 -0.185  -0.179  -0.170  -0.163  -0.162  -0.161  -0.159  -0.136
 -0.127

          Ground-State Mulliken Net Atomic Charges

     Atom                 Charge (a.u.)
  ----------------------------------------
      1 O                    -0.226658
      2 C                     0.204882
      3 C                    -0.104037
      4 C                    -0.088034
      5 C                     0.208505
      6 O                    -0.177177
      7 C                    -0.053152
      8 C                    -0.053929
      9 O                    -0.175296
     10 C                     0.209649
     11 C                    -0.081923
     12 C                    -0.079549
     13 C                     0.221207
     14 O                    -0.217380
     15 O                    -0.160510
     16 O                    -0.171585
     17 O                    -0.209780
     18 C                    -0.127811
     19 C                     0.014247
     20 C                    -0.142602
     21 C                    -0.144187
     22 C                     0.027427
     23 O                    -0.190797
     24 H                     0.089076
     25 H                     0.088157
     26 H                     0.110793
     27 H                     0.081332
     28 H                     0.076347
     29 H                     0.080298
     30 H                     0.075235
     31 H                     0.090056
     32 O                    -0.196974
     33 C                    -0.135800
     34 C                     0.026320
     35 C                    -0.144361
     36 C                    -0.155675
     37 C                     0.026574
     38 O                    -0.187787
     39 H                     0.116426
     40 H                     0.087264
     41 H                     0.090201
     42 H                     0.077039
     43 H                     0.070672
     44 H                     0.079460
     45 H                     0.070068
     46 H                     0.092080
     47 H                     0.083751
     48 H                     0.100137
     49 H                     0.091631
     50 H                     0.091542
     51 H                     0.090223
     52 H                     0.086626
     53 H                     0.097847
     54 H                     0.091359
     55 H                     0.093654
     56 H                     0.084912
  ----------------------------------------
  Sum of atomic charges =    -0.000000

                    Cartesian Multipole Moments
 -----------------------------------------------------------------
    Charge (ESU x 10^10)
                -0.0000
    Dipole Moment (Debye)
         X       5.0030      Y      -1.2969      Z      -0.5230
       Tot       5.1947
    Quadrupole Moments (Debye-Ang)
        XX    -166.3421     XY       9.6335     YY    -153.2668
        XZ       7.9438     YZ      -3.2818     ZZ    -162.5415

 Total job time:  129.68s(wall), 6189.91s(cpu)
        *  Thank you very much for using Q-Chem.  Have a nice day.  *
