 Q-Chem 5.0, Q-Chem, Inc., Pleasanton, CA (2017)
 Q-Chem 5.0.1 for Intel X86 EM64T Linux

User input:
--------------------------------------------------------------
$molecule
0  1
O -3.94934 -3.66094 2.70899
C -3.26408 -4.56952 2.26188
C -3.36658 -6.02376 2.66595
C -3.18715 -7.07505 1.5585
C -2.74922 -6.56083 0.20502
O -2.63265 -7.60189 -0.67135
C -3.87 -7.94777 -1.30268
C -4.43515 -9.22393 -0.68773
O -5.40087 -9.80893 -1.57544
C -5.97713 -10.95539 -1.13645
C -7.44158 -11.0516 -1.49251
C -7.77637 -10.71317 -2.95253
C -6.60178 -10.6819 -3.90964
O -6.59144 -10.13168 -5.0013
O -2.09995 -4.20831 1.65074
O -5.62495 -11.60871 -3.69668
O -5.35559 -11.83593 -0.55654
C -4.53803 -11.81345 -4.52128
C -8.0536 -12.45732 -1.35897
C -9.56896 -12.34493 -1.1938
C -9.97568 -11.91878 -2.58999
C -8.61746 -11.9595 -3.29809
O -7.93041 -13.00341 -2.64785
H -7.95979 -10.34328 -0.80765
H -8.35138 -9.76975 -3.08247
H -7.62097 -13.05343 -0.52663
H -9.95985 -13.37114 -1.00864
H -9.90336 -11.67139 -0.37556
H -10.65138 -12.69653 -3.01056
H -10.4547 -10.91845 -2.663
H -8.75758 -12.08059 -4.3954
O -3.08226 -5.47111 -0.23805
C -1.74161 -2.91163 1.34359
C -2.20397 -6.42168 3.60017
C -2.5928 -7.64602 4.42736
C -2.5521 -8.72541 3.36702
C -2.05013 -7.91596 2.16675
O -1.21871 -6.93783 2.7391
H -4.32332 -6.1385 3.2251
H -4.13496 -7.61005 1.45922
H -1.67353 -2.30252 2.27023
H -1.88182 -5.59458 4.27085
H -1.7662 -7.82997 5.15069
H -3.55205 -7.55873 4.98149
H -1.79543 -9.48413 3.66718
H -3.5239 -9.22142 3.15388
H -1.56976 -8.59296 1.42682
H -2.4866 -2.46345 0.65193
H -0.74988 -2.91698 0.84681
H -3.90875 -12.62276 -4.09781
H -3.93071 -10.88541 -4.58828
H -4.87643 -12.11719 -5.53501
H -3.59302 -9.94398 -0.57727
H -4.90329 -9.07347 0.29818
H -3.63175 -8.13704 -2.37119
H -4.64968 -7.15106 -1.27613
$end

$opt
CONSTRAINT
tors           1           2           3           4    +142.105
tors           3           4           5           6    -180.000
tors           4           5           6           7     +85.263
tors           5           6           7           8    -104.211
tors           6           7           8           9    -161.053
tors           7           8           9          10    -180.000
tors           8           9          10          11    +142.105
tors           9          10          11          12     +47.368
tors          11          12          13          14    -161.053
ENDCONSTRAINT
$end

$rem
JOBTYPE                   OPT
METHOD                    B3LYP
DFT_D                     d3_op
BASIS                     STO-3G
GEOM_OPT_MAX_CYCLES       100
GEOM_OPT_TOL_GRADIENT     300
GEOM_OPT_TOL_DISPLACEMENT 1200
GEOM_OPT_TOL_ENERGY       100
SYMMETRY                  False
THRESH                    12
SCF_CONVERGENCE           8
MAX_SUB_FILE_NUM          128
MEM_STATIC                400
MEM_TOTAL                 4000
$end
--------------------------------------------------------------

   15   -1510.0965711686      8.48E-09 Convergence criterion met
 Total energy in the final basis set = -1510.09657117
   14   -1510.1700868227      7.41E-09 Convergence criterion met
 Total energy in the final basis set = -1510.17008682
   14   -1510.2105823013      9.25E-09 Convergence criterion met
 Total energy in the final basis set = -1510.21058230
   14   -1510.2304437029      6.58E-09 Convergence criterion met
 Total energy in the final basis set = -1510.23044370
   14   -1510.2389264606      5.37E-09 Convergence criterion met
 Total energy in the final basis set = -1510.23892646
   13   -1510.2429121033      9.77E-09 Convergence criterion met
 Total energy in the final basis set = -1510.24291210
   13   -1510.2451117866      4.30E-09 Convergence criterion met
 Total energy in the final basis set = -1510.24511179
   13   -1510.2464730720      4.11E-09 Convergence criterion met
   12   -1510.2491570121      8.35E-09 Convergence criterion met
 Total energy in the final basis set = -1510.24915701
   11   -1510.2492714176      9.24E-09 Convergence criterion met
 Total energy in the final basis set = -1510.24927142
   11   -1510.2493316636      8.96E-09 Convergence criterion met
 Total energy in the final basis set = -1510.24933166
   11   -1510.2493755819      5.86E-09 Convergence criterion met
 Total energy in the final basis set = -1510.24937558
   11   -1510.2493925697      2.82E-09 Convergence criterion met
 Total energy in the final basis set = -1510.24939257
   10   -1510.2493991382      8.48E-09 Convergence criterion met
 Total energy in the final basis set = -1510.24939914

             Standard Nuclear Orientation (Angstroms)
    I     Atom           X                Y                Z
 ----------------------------------------------------------------
    1      O      -5.9338390162    -0.4822382884     2.4634788643
    2      C      -5.3634161160    -0.3776928473     1.3549912804
    3      C      -4.2783578676     0.6921232373     0.9693893409
    4      C      -3.1032900926     0.1838884394     0.0439940941
    5      C      -2.8367626371    -1.3653728105     0.0234535372
    6      O      -1.7309195851    -1.7262967619    -0.8629243412
    7      C      -0.4394079843    -1.6044690956    -0.1518952217
    8      C       0.3354245674    -0.3064603202    -0.5988703045
    9      O       1.7486351732    -0.5130908422    -0.2124208525
   10      C       2.5426448516     0.6411199975    -0.5883290967
   11      C       3.6124183288     0.9079229462     0.5327694503
   12      C       4.4089842709    -0.3722283008     1.0079172346
   13      C       4.3062092835    -1.5813144838     0.0152960546
   14      O       4.5372230194    -2.7851038520     0.2559667795
   15      O      -5.7687285359    -1.0819398859     0.1771949374
   16      O       4.0760311762    -1.0589650159    -1.3013565779
   17      O       2.2827428812     1.3829754801    -1.5576848029
   18      C       3.9235653236    -2.1554920629    -2.2815006747
   19      C       4.7881549341     1.8746175871     0.0906778870
   20      C       5.3733863021     2.5323488318     1.3998241573
   21      C       6.0988314367     1.2946962011     2.0495508391
   22      C       5.8978315115     0.1930466988     0.9329190088
   23      O       5.8749239903     0.9604721132    -0.3328098426
   24      H       3.0603352006     1.3437520426     1.3869456644
   25      H       4.1296021089    -0.7079951265     2.0215164240
   26      H       4.5189574878     2.5703649672    -0.7280673267
   27      H       6.0896355230     3.3291325059     1.1427627205
   28      H       4.5876041025     2.9548092664     2.0460822478
   29      H       7.1708164287     1.4889224118     2.2120466283
   30      H       5.6461018738     0.9935975908     3.0079226605
   31      H       6.6800300411    -0.5905531139     0.8990728697
   32      O      -3.4664827954    -2.2375575186     0.6538099177
   33      C      -6.8218677731    -2.0657536839     0.5112532439
   34      C      -4.9503518240     1.7440478305    -0.0232648677
   35      C      -3.9596783342     2.9546939403    -0.2633641819
   36      C      -2.9566684513     2.3366291490    -1.3081679022
   37      C      -3.4720756996     0.8462640859    -1.3575451456
   38      O      -4.9410385696     1.0107552715    -1.3109568017
   39      H      -3.9057892452     1.1592709501     1.8970743075
   40      H      -2.1575453771     0.6312628791     0.4011946844
   41      H      -7.6919320585    -1.5849222471     1.0033801948
   42      H      -5.9844209450     2.0321485601     0.2488930166
   43      H      -4.4993456108     3.8200526400    -0.6792481011
   44      H      -3.4606735364     3.2661741972     0.6684444487
   45      H      -3.0631604748     2.8100228564    -2.2974321715
   46      H      -1.9039810201     2.4122294371    -0.9915095239
   47      H      -3.1648896721     0.2588036553    -2.2444391575
   48      H      -6.4329382827    -2.8623107143     1.1783180066
   49      H      -7.1366541431    -2.5117044419    -0.4500485563
   50      H       3.8180304781    -1.6693943479    -3.2687336536
   51      H       3.0198920831    -2.7629385826    -2.0686050987
   52      H       4.8088923530    -2.8232575504    -2.2842151285
   53      H       0.2254181421    -0.1752698315    -1.6986898305
   54      H      -0.0793008776     0.5996476477    -0.1052094326
   55      H       0.1758589561    -2.4815140984    -0.4499501300
   56      H      -0.5470884616    -1.6265692785     0.9531866877
 ----------------------------------------------------------------

   10   -1510.2493998806      8.06E-09 Convergence criterion met
 Total energy in the final basis set = -1510.24939988
 Final energy is   -1510.24939988064
 **  OPTIMIZATION CONVERGED  **

                    Orbital Energies (a.u.)
 --------------------------------------------------------------

 Alpha MOs
 -- Occupied --
-18.942 -18.926 -18.919 -18.915 -18.904 -18.894 -18.890 -18.880
-18.879 -18.865 -10.116 -10.105 -10.103 -10.093 -10.079 -10.074
-10.067 -10.066 -10.065 -10.064 -10.061 -10.056 -10.043 -10.042
-10.040 -10.040 -10.026 -10.024 -10.024 -10.023  -1.018  -1.015
 -1.005  -1.002  -0.975  -0.973  -0.945  -0.940  -0.936  -0.927
 -0.768  -0.767  -0.729  -0.726  -0.713  -0.709  -0.701  -0.663
 -0.655  -0.614  -0.603  -0.587  -0.551  -0.549  -0.542  -0.541
 -0.518  -0.514  -0.489  -0.484  -0.471  -0.465  -0.451  -0.442
 -0.439  -0.433  -0.425  -0.415  -0.414  -0.410  -0.405  -0.402
 -0.400  -0.387  -0.376  -0.370  -0.364  -0.360  -0.356  -0.353
 -0.345  -0.343  -0.340  -0.335  -0.334  -0.328  -0.324  -0.316
 -0.315  -0.312  -0.308  -0.304  -0.298  -0.297  -0.294  -0.277
 -0.277  -0.259  -0.249  -0.245  -0.243  -0.237  -0.237  -0.183
 -0.173  -0.171  -0.165  -0.161  -0.159  -0.150  -0.148  -0.147
 -0.144

          Ground-State Mulliken Net Atomic Charges

     Atom                 Charge (a.u.)
  ----------------------------------------
      1 O                    -0.217980
      2 C                     0.211041
      3 C                    -0.080288
      4 C                    -0.083137
      5 C                     0.226128
      6 O                    -0.198823
      7 C                    -0.046744
      8 C                    -0.050082
      9 O                    -0.189990
     10 C                     0.222022
     11 C                    -0.078403
     12 C                    -0.077732
     13 C                     0.215966
     14 O                    -0.211792
     15 O                    -0.164604
     16 O                    -0.163152
     17 O                    -0.211283
     18 C                    -0.125774
     19 C                     0.024277
     20 C                    -0.142792
     21 C                    -0.144586
     22 C                     0.025116
     23 O                    -0.188097
     24 H                     0.080501
     25 H                     0.086541
     26 H                     0.090748
     27 H                     0.078705
     28 H                     0.072512
     29 H                     0.079052
     30 H                     0.073881
     31 H                     0.084052
     32 O                    -0.170915
     33 C                    -0.126637
     34 C                     0.026194
     35 C                    -0.145194
     36 C                    -0.141906
     37 C                     0.026373
     38 O                    -0.182703
     39 H                     0.083897
     40 H                     0.076807
     41 H                     0.087553
     42 H                     0.084158
     43 H                     0.079521
     44 H                     0.073397
     45 H                     0.080264
     46 H                     0.072190
     47 H                     0.089829
     48 H                     0.090325
     49 H                     0.090246
     50 H                     0.094647
     51 H                     0.088755
     52 H                     0.092881
     53 H                     0.090360
     54 H                     0.069968
     55 H                     0.092215
     56 H                     0.082497
  ----------------------------------------
  Sum of atomic charges =     0.000000

                    Cartesian Multipole Moments
 -----------------------------------------------------------------
    Charge (ESU x 10^10)
                 0.0000
    Dipole Moment (Debye)
         X       1.1691      Y       2.2995      Z       1.1758
       Tot       2.8349
    Quadrupole Moments (Debye-Ang)
        XX    -169.7919     XY      -1.8498     YY    -161.1462
        XZ       9.8830     YZ       8.0554     ZZ    -162.9671

 Total job time:  53.73s(wall), 2556.59s(cpu)
        *  Thank you very much for using Q-Chem.  Have a nice day.  *
