 Q-Chem 5.0, Q-Chem, Inc., Pleasanton, CA (2017)
 Q-Chem 5.0.1 for Intel X86 EM64T Linux

User input:
--------------------------------------------------------------
$molecule
0  1
O -5.9338390162 -0.4822382884 2.4634788643
C -5.363416116 -0.3776928473 1.3549912804
C -4.2783578676 0.6921232373 0.9693893409
C -3.1032900926 0.1838884394 0.0439940941
C -2.8367626371 -1.3653728105 0.0234535372
O -1.7309195851 -1.7262967619 -0.8629243412
C -0.4394079843 -1.6044690956 -0.1518952217
C 0.3354245674 -0.3064603202 -0.5988703045
O 1.7486351732 -0.5130908422 -0.2124208525
C 2.5426448516 0.6411199975 -0.5883290967
C 3.6124183288 0.9079229462 0.5327694503
C 4.4089842709 -0.3722283008 1.0079172346
C 4.3062092835 -1.5813144838 0.0152960546
O 4.5372230194 -2.785103852 0.2559667795
O -5.7687285359 -1.0819398859 0.1771949374
O 4.0760311762 -1.0589650159 -1.3013565779
O 2.2827428812 1.3829754801 -1.5576848029
C 3.9235653236 -2.1554920629 -2.2815006747
C 4.7881549341 1.8746175871 0.090677887
C 5.3733863021 2.5323488318 1.3998241573
C 6.0988314367 1.2946962011 2.0495508391
C 5.8978315115 0.1930466988 0.9329190088
O 5.8749239903 0.9604721132 -0.3328098426
H 3.0603352006 1.3437520426 1.3869456644
H 4.1296021089 -0.7079951265 2.021516424
H 4.5189574878 2.5703649672 -0.7280673267
H 6.089635523 3.3291325059 1.1427627205
H 4.5876041025 2.9548092664 2.0460822478
H 7.1708164287 1.4889224118 2.2120466283
H 5.6461018738 0.9935975908 3.0079226605
H 6.6800300411 -0.5905531139 0.8990728697
O -3.4664827954 -2.2375575186 0.6538099177
C -6.8218677731 -2.0657536839 0.5112532439
C -4.950351824 1.7440478305 -0.0232648677
C -3.9596783342 2.9546939403 -0.2633641819
C -2.9566684513 2.336629149 -1.3081679022
C -3.4720756996 0.8462640859 -1.3575451456
O -4.9410385696 1.0107552715 -1.3109568017
H -3.9057892452 1.1592709501 1.8970743075
H -2.1575453771 0.6312628791 0.4011946844
H -7.6919320585 -1.5849222471 1.0033801948
H -5.984420945 2.0321485601 0.2488930166
H -4.4993456108 3.82005264 -0.6792481011
H -3.4606735364 3.2661741972 0.6684444487
H -3.0631604748 2.8100228564 -2.2974321715
H -1.9039810201 2.4122294371 -0.9915095239
H -3.1648896721 0.2588036553 -2.2444391575
H -6.4329382827 -2.8623107143 1.1783180066
H -7.1366541431 -2.5117044419 -0.4500485563
H 3.8180304781 -1.6693943479 -3.2687336536
H 3.0198920831 -2.7629385826 -2.0686050987
H 4.808892353 -2.8232575504 -2.2842151285
H 0.2254181421 -0.1752698315 -1.6986898305
H -0.0793008776 0.5996476477 -0.1052094326
H 0.1758589561 -2.4815140984 -0.44995013
H -0.5470884616 -1.6265692785 0.9531866877
$end

$rem
JOBTYPE                   OPT
METHOD                    B3LYP
DFT_D                     d3_op
BASIS                     STO-3G
GEOM_OPT_MAX_CYCLES       100
GEOM_OPT_TOL_GRADIENT     300
GEOM_OPT_TOL_DISPLACEMENT 1200
GEOM_OPT_TOL_ENERGY       100
SYMMETRY                  False
THRESH                    12
SCF_CONVERGENCE           8
MAX_SUB_FILE_NUM          128
MEM_STATIC                400
MEM_TOTAL                 4000
$end
--------------------------------------------------------------

   16   -1510.2492911500      5.21E-09 Convergence criterion met
 Total energy in the final basis set = -1510.24929115
   15   -1510.2536190250      2.22E-09 Convergence criterion met
 Total energy in the final basis set = -1510.25361903
   14   -1510.2570645883      8.21E-09 Convergence criterion met
 Total energy in the final basis set = -1510.25706459
   15   -1510.2601892723      2.26E-09 Convergence criterion met
 Total energy in the final basis set = -1510.26018927
   14   -1510.2620668242      8.13E-09 Convergence criterion met
 Total energy in the final basis set = -1510.26206682
   13   -1510.2634927765      7.95E-09 Convergence criterion met
 Total energy in the final basis set = -1510.26349278
   14   -1510.2649026579      1.54E-09 Convergence criterion met
 Total energy in the final basis set = -1510.26490266
   13   -1510.2659971674      5.81E-09 Convergence criterion met
   12   -1510.2826937179      3.05E-09 Convergence criterion met
 Total energy in the final basis set = -1510.28269372
   11   -1510.2827113942      6.39E-09 Convergence criterion met
 Total energy in the final basis set = -1510.28271139
   11   -1510.2827102458      4.56E-09 Convergence criterion met
 Total energy in the final basis set = -1510.28271025
   11   -1510.2827084627      6.37E-09 Convergence criterion met
 Total energy in the final basis set = -1510.28270846
   11   -1510.2827028863      3.65E-09 Convergence criterion met
 Total energy in the final basis set = -1510.28270289
    9   -1510.2827016347      8.82E-09 Convergence criterion met
 Total energy in the final basis set = -1510.28270163

             Standard Nuclear Orientation (Angstroms)
    I     Atom           X                Y                Z
 ----------------------------------------------------------------
    1      O      -4.7667379452    -1.9838837276     0.3037774126
    2      C      -4.3855563935    -1.0736555925    -0.4651830231
    3      C      -4.0164848333     0.3989421928    -0.0397714329
    4      C      -2.5494443306     0.5449834991     0.5444707589
    5      C      -1.7118515023    -0.7749238812     0.4194839339
    6      O      -0.4729448700    -0.8992792998     1.1469607691
    7      C      -0.3552040133    -0.1744347188     2.4284839136
    8      C       0.1679182268     1.3111753644     2.3219850035
    9      O       1.6201246276     1.3493244372     2.0387978991
   10      C       1.8952327365     1.2582377146     0.6389080337
   11      C       3.4505839319     1.1662799013     0.4769998873
   12      C       4.0449296581    -0.2732109726     0.8208399291
   13      C       2.9338061586    -1.3112504356     1.2280816499
   14      O       2.4166485154    -1.4327650731     2.3634443448
   15      O      -4.3241443867    -1.1923189884    -1.8900386342
   16      O       2.5828255311    -2.0941301323     0.0949931973
   17      O       1.0352442940     1.2794375590    -0.2700348602
   18      C       1.4353810974    -2.9808455869     0.4183712124
   19      C       3.9016553495     1.3284661350    -1.0332927589
   20      C       5.4440506544     1.6661205518    -1.0467284544
   21      C       6.0609626018     0.2641628982    -0.6826200603
   22      C       4.7581729769    -0.6227216491    -0.5519663059
   23      O       3.8434866392    -0.0505668177    -1.5669841600
   24      H       3.9038642301     1.9338508028     1.1299134428
   25      H       4.7623736205    -0.1985057588     1.6575148739
   26      H       3.2546183397     2.0001742914    -1.6301931807
   27      H       5.7561988941     1.9974880192    -2.0500045109
   28      H       5.7054906915     2.4500898095    -0.3180688327
   29      H       6.7048864959    -0.1162740579    -1.4912663769
   30      H       6.6436812887     0.2843097695     0.2521708477
   31      H       4.9021120363    -1.7056498304    -0.7281461146
   32      O      -1.9769133142    -1.7013708110    -0.3787590527
   33      C      -4.5836288209    -2.5936110086    -2.2865710979
   34      C      -3.9580047408     1.4176103466    -1.2542519006
   35      C      -4.0108271911     2.8883645148    -0.6791247186
   36      C      -2.5603054386     3.0362643264    -0.0871924779
   37      C      -1.9348672256     1.6322203503    -0.4521958064
   38      O      -2.5655262321     1.2906703134    -1.7437044463
   39      H      -4.7550099686     0.7138506752     0.7196150691
   40      H      -2.5721994157     0.9052594576     1.5857437718
   41      H      -5.5756204015    -2.9446930798    -1.9346939624
   42      H      -4.6765402709     1.1980545186    -2.0663255418
   43      H      -4.1900967807     3.6110494404    -1.4908955118
   44      H      -4.7974435013     3.0113756104     0.0823668096
   45      H      -2.0008785714     3.8460673995    -0.5822666329
   46      H      -2.5634799141     3.2235441046     0.9987122828
   47      H      -0.8228536906     1.5891575200    -0.5229565470
   48      H      -3.8035269126    -3.2721202557    -1.8849302019
   49      H      -4.5542589456    -2.6087335205    -3.3916258731
   50      H       1.2118849096    -3.5312385879    -0.5130648950
   51      H       0.5599302969    -2.3605763121     0.7272266448
   52      H       1.6960653605    -3.6981679057     1.2224864957
   53      H      -0.3995925566     1.8958284722     1.5725840673
   54      H       0.0496836087     1.7862326155     3.3175040499
   55      H       0.4204624506    -0.7518321493     2.9797245120
   56      H      -1.3064379809    -0.1931801434     3.0011638957
 ----------------------------------------------------------------

    9   -1510.2827019071      3.75E-09 Convergence criterion met
 Total energy in the final basis set = -1510.28270191
 Final energy is   -1510.28270190709
 **  OPTIMIZATION CONVERGED  **

                    Orbital Energies (a.u.)
 --------------------------------------------------------------

 Alpha MOs
 -- Occupied --
-18.947 -18.944 -18.927 -18.920 -18.894 -18.891 -18.885 -18.883
-18.863 -18.854 -10.114 -10.110 -10.092 -10.088 -10.086 -10.084
-10.058 -10.057 -10.053 -10.050 -10.048 -10.041 -10.040 -10.036
-10.035 -10.032 -10.020 -10.019 -10.018 -10.017  -1.026  -1.015
 -1.003  -0.995  -0.967  -0.965  -0.952  -0.945  -0.927  -0.921
 -0.764  -0.760  -0.730  -0.720  -0.716  -0.704  -0.702  -0.648
 -0.645  -0.623  -0.600  -0.587  -0.548  -0.543  -0.537  -0.534
 -0.512  -0.510  -0.487  -0.484  -0.465  -0.461  -0.454  -0.443
 -0.433  -0.431  -0.425  -0.423  -0.406  -0.404  -0.402  -0.399
 -0.393  -0.388  -0.382  -0.364  -0.362  -0.360  -0.352  -0.350
 -0.340  -0.336  -0.331  -0.329  -0.326  -0.320  -0.318  -0.313
 -0.311  -0.306  -0.303  -0.299  -0.296  -0.282  -0.279  -0.277
 -0.273  -0.260  -0.251  -0.240  -0.236  -0.230  -0.227  -0.202
 -0.174  -0.167  -0.166  -0.161  -0.156  -0.146  -0.141  -0.140
 -0.135

          Ground-State Mulliken Net Atomic Charges

     Atom                 Charge (a.u.)
  ----------------------------------------
      1 O                    -0.225314
      2 C                     0.213333
      3 C                    -0.080189
      4 C                    -0.085817
      5 C                     0.220081
      6 O                    -0.173280
      7 C                    -0.053738
      8 C                    -0.054153
      9 O                    -0.167059
     10 C                     0.216628
     11 C                    -0.077828
     12 C                    -0.077662
     13 C                     0.204573
     14 O                    -0.224778
     15 O                    -0.167048
     16 O                    -0.165074
     17 O                    -0.207453
     18 C                    -0.144854
     19 C                     0.024930
     20 C                    -0.143858
     21 C                    -0.144642
     22 C                     0.026097
     23 O                    -0.183908
     24 H                     0.085961
     25 H                     0.083822
     26 H                     0.087517
     27 H                     0.078271
     28 H                     0.072003
     29 H                     0.078045
     30 H                     0.072448
     31 H                     0.089486
     32 O                    -0.186744
     33 C                    -0.126472
     34 C                     0.025965
     35 C                    -0.144588
     36 C                    -0.146351
     37 C                     0.007002
     38 O                    -0.185200
     39 H                     0.080356
     40 H                     0.074879
     41 H                     0.085348
     42 H                     0.090103
     43 H                     0.077559
     44 H                     0.071383
     45 H                     0.077447
     46 H                     0.066530
     47 H                     0.108209
     48 H                     0.093702
     49 H                     0.088235
     50 H                     0.087000
     51 H                     0.114226
     52 H                     0.078358
     53 H                     0.093100
     54 H                     0.092394
     55 H                     0.115671
     56 H                     0.085349
  ----------------------------------------
  Sum of atomic charges =    -0.000000

                    Cartesian Multipole Moments
 -----------------------------------------------------------------
    Charge (ESU x 10^10)
                -0.0000
    Dipole Moment (Debye)
         X       0.9557      Y       3.1818      Z       2.5973
       Tot       4.2170
    Quadrupole Moments (Debye-Ang)
        XX    -146.6568     XY      -3.1558     YY    -154.9216
        XZ       0.2918     YZ       6.0396     ZZ    -162.3181

 Total job time:  198.98s(wall), 9490.70s(cpu)
        *  Thank you very much for using Q-Chem.  Have a nice day.  *
