 Q-Chem 5.0, Q-Chem, Inc., Pleasanton, CA (2017)
 Q-Chem 5.0.1 for Intel X86 EM64T Linux

User input:
--------------------------------------------------------------
$molecule
0  1
O 5.6251167289 -2.1683356209 -0.3442309137
C 4.6120241987 -1.4599266208 -0.5364604974
C 4.5487143264 0.1001126531 -0.4086757754
C 3.3476877727 0.8509861267 -1.1157513023
C 2.0879672973 -0.0249849421 -1.493633312
O 1.4210803808 -0.5078732034 -0.2987230967
C 0.0020984382 -0.0860182655 -0.2837127021
C -0.2965612158 0.2556540365 1.2271467588
O -1.4767062174 1.1047857356 1.5292726208
C -2.0866840313 1.6923121905 0.3591996166
C -3.1593397531 0.8510008343 -0.4548302771
C -3.4264826182 -0.6797541634 -0.1668065148
C -3.1354202715 -1.2045324098 1.2836278641
O -3.1764932372 -0.593585187 2.3702716316
O 3.3626047466 -1.9776309065 -0.9908828751
O -2.8110646842 -2.6002281198 1.1623761576
O -1.9023898728 2.901521167 0.0936256771
C -2.5729175112 -3.1811112837 2.5030313237
C -4.6410071046 1.4513361574 -0.3897772325
C -5.2876683027 1.2171144997 -1.8093562454
C -5.4389707618 -0.3501304962 -1.7990573499
C -5.0168356977 -0.6952966204 -0.3150236216
O -5.3928846399 0.507292246 0.4649142479
H -2.8153676395 0.9307304381 -1.5036985596
H -2.9295791078 -1.3403440438 -0.8979132461
H -4.7071672113 2.483569243 0.0055989581
H -6.269080452 1.7149464006 -1.8692916581
H -4.6520937135 1.5837664392 -2.6309312593
H -6.47812503 -0.6622110832 -1.9878959689
H -4.7837722432 -0.8432258782 -2.5351807079
H -5.4977267956 -1.5988783858 0.108186002
O 1.6124032486 -0.1325671659 -2.6440747635
C 3.4264094684 -3.444776312 -1.1670202375
C 4.4239216999 0.6546690521 1.0873925777
C 5.1236188058 2.0689790049 1.1066767057
C 4.094517278 2.9129525562 0.2651716864
C 2.9358769836 1.8603045447 0.0406295768
O 2.9943674416 0.9999977404 1.2452784179
H 5.50399093 0.4583921412 -0.8343694887
H 3.6830587462 1.364749483 -2.0340053589
H 3.6389946959 -3.9584841286 -0.2073191058
H 4.7471321291 -0.0529229673 1.8754481744
H 5.1993266525 2.4430659725 2.1404474184
H 6.1304803984 2.0478078044 0.6601793587
H 3.7224672911 3.7825351114 0.8292964383
H 4.516934682 3.2661417618 -0.6893121957
H 1.9261536601 2.3002668648 -0.0712368394
H 4.2042424531 -3.7321751206 -1.9038603263
H 2.4299750377 -3.7473580711 -1.5382732041
H -2.3488678846 -4.2510457954 2.3377413631
H -3.4640406977 -3.0846021766 3.1562394155
H -1.7133781947 -2.6976278713 3.0114783056
H -0.4184810748 -0.6912989591 1.7957391099
H 0.6137384457 0.7655338186 1.6213822451
H -0.662744377 -0.8995391197 -0.648034514
H -0.1627684997 0.8057750978 -0.9251340344
$end

$rem
JOBTYPE                   OPT
METHOD                    B3LYP
DFT_D                     d3_op
BASIS                     STO-3G
GEOM_OPT_MAX_CYCLES       100
GEOM_OPT_TOL_GRADIENT     300
GEOM_OPT_TOL_DISPLACEMENT 1200
GEOM_OPT_TOL_ENERGY       100
SYMMETRY                  False
THRESH                    12
SCF_CONVERGENCE           8
MAX_SUB_FILE_NUM          128
MEM_STATIC                400
MEM_TOTAL                 4000
$end
--------------------------------------------------------------

   16   -1510.2299542732      4.55E-09 Convergence criterion met
 Total energy in the final basis set = -1510.22995427
   14   -1510.2332674179      6.66E-09 Convergence criterion met
 Total energy in the final basis set = -1510.23326742
   14   -1510.2372183958      7.24E-09 Convergence criterion met
 Total energy in the final basis set = -1510.23721840
   14   -1510.2410893709      9.65E-09 Convergence criterion met
 Total energy in the final basis set = -1510.24108937
   14   -1510.2438237228      6.48E-09 Convergence criterion met
 Total energy in the final basis set = -1510.24382372
   14   -1510.2453412724      5.96E-09 Convergence criterion met
 Total energy in the final basis set = -1510.24534127
   13   -1510.2477887807      7.37E-09 Convergence criterion met
 Total energy in the final basis set = -1510.24778878
   14   -1510.2500788899      3.88E-09 Convergence criterion met
   11   -1510.2841336724      5.38E-09 Convergence criterion met
 Total energy in the final basis set = -1510.28413367
   11   -1510.2841448127      6.56E-09 Convergence criterion met
 Total energy in the final basis set = -1510.28414481
   11   -1510.2841491856      4.98E-09 Convergence criterion met
 Total energy in the final basis set = -1510.28414919
   11   -1510.2841529659      3.59E-09 Convergence criterion met
 Total energy in the final basis set = -1510.28415297
   10   -1510.2841551222      8.98E-09 Convergence criterion met
 Total energy in the final basis set = -1510.28415512
    9   -1510.2841484960      5.57E-09 Convergence criterion met
 Total energy in the final basis set = -1510.28414850

             Standard Nuclear Orientation (Angstroms)
    I     Atom           X                Y                Z
 ----------------------------------------------------------------
    1      O       0.5428307827    -1.2064635544    -1.4086702284
    2      C       1.5169155993    -0.4327201310    -1.5605673639
    3      C       2.7709372260    -0.3023474940    -0.6284237795
    4      C       3.1345186154     1.1758767454    -0.1939122948
    5      C       2.0243688071     2.2324877685    -0.5139297903
    6      O       0.7598897229     1.5692067358    -0.4260024392
    7      C      -0.3744635764     2.5237928879    -0.4162685007
    8      C      -1.1756968373     2.2256884815     0.9129162086
    9      O      -2.6442400198     2.3740468795     0.8107470924
   10      C      -3.3802870381     1.2088858506     0.3883353546
   11      C      -2.6940012358     0.1232658087    -0.5403538305
   12      C      -1.9343658041    -1.0852143877     0.1633150934
   13      C      -1.8967847235    -1.0337127552     1.7223433575
   14      O      -2.7089162619    -1.4808648262     2.5567759591
   15      O       1.7258242711     0.3819297974    -2.7187530082
   16      O      -0.6642116181    -0.3728936793     2.0796164183
   17      O      -4.5975103671     1.1877309936     0.6760326368
   18      C      -0.5173758250    -0.2602948270     3.5480718673
   19      C      -3.8233482569    -0.6684245028    -1.3351371388
   20      C      -3.1527316068    -1.3700563113    -2.5809550584
   21      C      -2.3717831002    -2.5445015887    -1.8834775255
   22      C      -2.7751460753    -2.3179670080    -0.3714404868
   23      O      -4.1580287286    -1.7972741633    -0.4410935202
   24      H      -2.0087031190     0.6271583745    -1.2407481200
   25      H      -0.8884180499    -1.1258562819    -0.2088553596
   26      H      -4.7280041525    -0.0676715790    -1.5503205756
   27      H      -3.9252660837    -1.7483008998    -3.2692771636
   28      H      -2.4894868515    -0.6868256776    -3.1350180120
   29      H      -2.7142272846    -3.5291758758    -2.2389871165
   30      H      -1.2810978015    -2.4643832358    -2.0226443167
   31      H      -2.7323295861    -3.2162406978     0.2742144023
   32      O       2.1683835618     3.4568037156    -0.7201846674
   33      C       0.5536809521     0.3144117296    -3.6218936482
   34      C       2.5416709825    -0.9986545730     0.7797137244
   35      C       3.9583695491    -1.3331317081     1.3844502043
   36      C       4.4696968717     0.1105725865     1.7512248672
   37      C       3.2072692119     0.9898333009     1.3874242750
   38      O       2.0575884911     0.0971625545     1.6527008206
   39      H       3.6259108268    -0.7605242938    -1.1595119385
   40      H       4.0922918916     1.5195766162    -0.6216472515
   41      H      -0.1274684861    -0.4959270631    -3.2929442204
   42      H       1.8082071063    -1.8281880585     0.7570211961
   43      H       3.8540259866    -1.9627881656     2.2825433589
   44      H       4.6122428595    -1.8490319663     0.6634248835
   45      H       4.7040535671     0.1988268199     2.8238456520
   46      H       5.3582211550     0.4066909638     1.1708618350
   47      H       3.1097679811     1.9325205258     1.9606919926
   48      H       0.9156510832     0.1189356382    -4.6493445188
   49      H       0.0180907891     1.2846953753    -3.6012946585
   50      H       0.5236756577     0.0741949393     3.7125113247
   51      H      -0.6886921239    -1.2357948216     4.0448875327
   52      H      -1.2254237599     0.4830024099     3.9689093576
   53      H      -0.8767436103     1.2113707726     1.2879760642
   54      H      -0.8794978665     2.9728529597     1.6768786534
   55      H      -0.9991267049     2.3500394158    -1.3171300698
   56      H       0.0258485631     3.5591064886    -0.4548448683
 ----------------------------------------------------------------

    9   -1510.2841487165      6.14E-09 Convergence criterion met
 Total energy in the final basis set = -1510.28414872
 Final energy is   -1510.28414871648
 **  OPTIMIZATION CONVERGED  **

                    Orbital Energies (a.u.)
 --------------------------------------------------------------

 Alpha MOs
 -- Occupied --
-18.947 -18.944 -18.941 -18.919 -18.899 -18.890 -18.888 -18.883
-18.879 -18.869 -10.120 -10.111 -10.099 -10.091 -10.072 -10.071
-10.071 -10.068 -10.063 -10.052 -10.051 -10.050 -10.050 -10.049
-10.031 -10.030 -10.029 -10.022 -10.014 -10.009  -1.029  -1.019
 -1.013  -0.995  -0.981  -0.962  -0.950  -0.948  -0.940  -0.926
 -0.775  -0.755  -0.736  -0.717  -0.715  -0.700  -0.697  -0.673
 -0.662  -0.617  -0.598  -0.587  -0.556  -0.548  -0.541  -0.532
 -0.522  -0.505  -0.496  -0.480  -0.470  -0.460  -0.456  -0.448
 -0.442  -0.434  -0.426  -0.424  -0.418  -0.417  -0.412  -0.403
 -0.387  -0.384  -0.382  -0.379  -0.368  -0.361  -0.360  -0.355
 -0.347  -0.344  -0.340  -0.334  -0.331  -0.325  -0.320  -0.315
 -0.311  -0.310  -0.306  -0.302  -0.299  -0.290  -0.282  -0.276
 -0.268  -0.259  -0.256  -0.251  -0.245  -0.232  -0.225  -0.191
 -0.186  -0.180  -0.175  -0.165  -0.159  -0.157  -0.154  -0.139
 -0.136

          Ground-State Mulliken Net Atomic Charges

     Atom                 Charge (a.u.)
  ----------------------------------------
      1 O                    -0.224684
      2 C                     0.230699
      3 C                    -0.077819
      4 C                    -0.076681
      5 C                     0.214741
      6 O                    -0.174386
      7 C                    -0.056422
      8 C                    -0.073059
      9 O                    -0.177024
     10 C                     0.202470
     11 C                    -0.085125
     12 C                    -0.094467
     13 C                     0.206883
     14 O                    -0.200092
     15 O                    -0.170834
     16 O                    -0.165462
     17 O                    -0.195651
     18 C                    -0.129567
     19 C                     0.026447
     20 C                    -0.144316
     21 C                    -0.148549
     22 C                     0.025762
     23 O                    -0.186091
     24 H                     0.075577
     25 H                     0.110114
     26 H                     0.087657
     27 H                     0.076377
     28 H                     0.066383
     29 H                     0.073998
     30 H                     0.083010
     31 H                     0.082849
     32 O                    -0.210779
     33 C                    -0.135284
     34 C                     0.025661
     35 C                    -0.143189
     36 C                    -0.144483
     37 C                     0.024510
     38 O                    -0.186888
     39 H                     0.086923
     40 H                     0.088622
     41 H                     0.099674
     42 H                     0.091479
     43 H                     0.079170
     44 H                     0.074687
     45 H                     0.079338
     46 H                     0.075710
     47 H                     0.083259
     48 H                     0.090202
     49 H                     0.084665
     50 H                     0.098699
     51 H                     0.091852
     52 H                     0.087838
     53 H                     0.115358
     54 H                     0.081503
     55 H                     0.079635
     56 H                     0.099100
  ----------------------------------------
  Sum of atomic charges =     0.000000

                    Cartesian Multipole Moments
 -----------------------------------------------------------------
    Charge (ESU x 10^10)
                 0.0000
    Dipole Moment (Debye)
         X       6.1745      Y      -0.9096      Z      -1.7195
       Tot       6.4737
    Quadrupole Moments (Debye-Ang)
        XX    -177.6345     XY      -4.7751     YY    -166.8689
        XZ      13.4608     YZ       2.2605     ZZ    -150.5749

 Total job time:  197.90s(wall), 9431.64s(cpu)
        *  Thank you very much for using Q-Chem.  Have a nice day.  *
