 Q-Chem 5.0, Q-Chem, Inc., Pleasanton, CA (2017)
 Q-Chem 5.0.1 for Intel X86 EM64T Linux

User input:
--------------------------------------------------------------
$molecule
0  1
O -3.94934 -3.66094 2.70899
C -3.26408 -4.56952 2.26188
C -3.36658 -6.02376 2.66595
C -2.76261 -7.06348 1.7078
C -1.9673 -6.5228 0.54022
O -0.8359 -5.90736 0.99475
C 0.3644 -6.45123 0.43553
C 1.46522 -6.48992 1.49043
O 2.49343 -7.4099 1.09129
C 2.20059 -8.1803 0.01433
C 2.50922 -7.49918 -1.29772
C 2.87034 -6.01082 -1.1852
C 3.21644 -5.51816 0.20556
O 3.70232 -6.19807 1.09787
O -2.49787 -4.17296 1.21411
O 3.14464 -4.16831 0.37156
O 1.97433 -9.3764 0.11329
C 3.6296 -3.48059 1.46596
C 3.7604 -8.07273 -1.98122
C 3.72154 -7.75501 -3.47531
C 3.99585 -6.26629 -3.45171
C 4.21437 -6.05042 -1.94972
O 4.80232 -7.25433 -1.51962
H 1.61919 -7.65194 -1.94845
H 2.20278 -5.29095 -1.70864
H 3.88654 -9.16582 -1.8211
H 4.58801 -8.26858 -3.95016
H 2.78527 -8.05716 -3.99221
H 4.94272 -6.07664 -4.00488
H 3.18449 -5.62434 -3.85768
H 4.82181 -5.13224 -1.78356
O -2.18016 -6.8024 -0.63243
C -2.36663 -2.88125 0.7407
C -2.61027 -6.34846 3.96358
C -3.2046 -7.59939 4.61078
C -2.70998 -8.67361 3.66129
C -1.86489 -7.83112 2.70008
O -1.35536 -6.8064 3.5232
H -4.45603 -6.21535 2.795
H -3.54881 -7.72267 1.27567
H -1.95604 -2.22325 1.53607
H -2.60105 -5.50243 4.68513
H -2.70121 -7.73827 5.59428
H -4.3051 -7.56865 4.76213
H -2.05523 -9.37039 4.23068
H -3.50378 -9.24577 3.13424
H -1.11482 -8.46781 2.18176
H -3.35084 -2.49462 0.40042
H -1.66623 -2.8804 -0.11957
H 3.43604 -2.39724 1.32739
H 4.72526 -3.63798 1.55816
H 3.12822 -3.81137 2.39843
H 1.69266 -5.51697 1.98346
H 1.00579 -6.99875 2.36279
H 0.59744 -5.78332 -0.39849
H 0.0827 -7.44684 0.02231
$end

$opt
CONSTRAINT
tors           1           2           3           4    +161.053
tors           3           4           5           6     +66.316
tors           4           5           6           7    +123.158
tors           5           6           7           8    -142.105
tors           6           7           8           9    +161.053
tors           7           8           9          10      -9.474
tors           8           9          10          11     +85.263
tors           9          10          11          12      -9.474
tors          11          12          13          14     +28.421
ENDCONSTRAINT
$end

$rem
JOBTYPE                   OPT
METHOD                    B3LYP
DFT_D                     d3_op
BASIS                     STO-3G
GEOM_OPT_MAX_CYCLES       100
GEOM_OPT_TOL_GRADIENT     300
GEOM_OPT_TOL_DISPLACEMENT 1200
GEOM_OPT_TOL_ENERGY       100
SYMMETRY                  False
THRESH                    12
SCF_CONVERGENCE           8
MAX_SUB_FILE_NUM          128
MEM_STATIC                400
MEM_TOTAL                 4000
$end
--------------------------------------------------------------

   16   -1509.9644218727      6.67E-09 Convergence criterion met
 Total energy in the final basis set = -1509.96442187
   14   -1510.0620939524      6.01E-09 Convergence criterion met
 Total energy in the final basis set = -1510.06209395
   14   -1510.1287646638      5.39E-09 Convergence criterion met
 Total energy in the final basis set = -1510.12876466
   14   -1510.1723534578      4.09E-09 Convergence criterion met
 Total energy in the final basis set = -1510.17235346
   14   -1510.1980075253      3.96E-09 Convergence criterion met
 Total energy in the final basis set = -1510.19800753
   14   -1510.2129568391      2.35E-09 Convergence criterion met
 Total energy in the final basis set = -1510.21295684
   13   -1510.2211714293      8.75E-09 Convergence criterion met
 Total energy in the final basis set = -1510.22117143
   13   -1510.2261508036      7.72E-09 Convergence criterion met
   11   -1510.2300164899      4.63E-09 Convergence criterion met
 Total energy in the final basis set = -1510.23001649
   11   -1510.2300368258      5.67E-09 Convergence criterion met
 Total energy in the final basis set = -1510.23003683
   11   -1510.2300432341      3.41E-09 Convergence criterion met
 Total energy in the final basis set = -1510.23004323
   11   -1510.2300467546      2.00E-09 Convergence criterion met
 Total energy in the final basis set = -1510.23004675
   10   -1510.2300487756      9.55E-09 Convergence criterion met
 Total energy in the final basis set = -1510.23004878
    9   -1510.2300505966      7.70E-09 Convergence criterion met
 Total energy in the final basis set = -1510.23005060

             Standard Nuclear Orientation (Angstroms)
    I     Atom           X                Y                Z
 ----------------------------------------------------------------
    1      O       5.6251167289    -2.1683356209    -0.3442309137
    2      C       4.6120241987    -1.4599266208    -0.5364604974
    3      C       4.5487143264     0.1001126531    -0.4086757754
    4      C       3.3476877727     0.8509861267    -1.1157513023
    5      C       2.0879672973    -0.0249849421    -1.4936333120
    6      O       1.4210803808    -0.5078732034    -0.2987230967
    7      C       0.0020984382    -0.0860182655    -0.2837127021
    8      C      -0.2965612158     0.2556540365     1.2271467588
    9      O      -1.4767062174     1.1047857356     1.5292726208
   10      C      -2.0866840313     1.6923121905     0.3591996166
   11      C      -3.1593397531     0.8510008343    -0.4548302771
   12      C      -3.4264826182    -0.6797541634    -0.1668065148
   13      C      -3.1354202715    -1.2045324098     1.2836278641
   14      O      -3.1764932372    -0.5935851870     2.3702716316
   15      O       3.3626047466    -1.9776309065    -0.9908828751
   16      O      -2.8110646842    -2.6002281198     1.1623761576
   17      O      -1.9023898728     2.9015211670     0.0936256771
   18      C      -2.5729175112    -3.1811112837     2.5030313237
   19      C      -4.6410071046     1.4513361574    -0.3897772325
   20      C      -5.2876683027     1.2171144997    -1.8093562454
   21      C      -5.4389707618    -0.3501304962    -1.7990573499
   22      C      -5.0168356977    -0.6952966204    -0.3150236216
   23      O      -5.3928846399     0.5072922460     0.4649142479
   24      H      -2.8153676395     0.9307304381    -1.5036985596
   25      H      -2.9295791078    -1.3403440438    -0.8979132461
   26      H      -4.7071672113     2.4835692430     0.0055989581
   27      H      -6.2690804520     1.7149464006    -1.8692916581
   28      H      -4.6520937135     1.5837664392    -2.6309312593
   29      H      -6.4781250300    -0.6622110832    -1.9878959689
   30      H      -4.7837722432    -0.8432258782    -2.5351807079
   31      H      -5.4977267956    -1.5988783858     0.1081860020
   32      O       1.6124032486    -0.1325671659    -2.6440747635
   33      C       3.4264094684    -3.4447763120    -1.1670202375
   34      C       4.4239216999     0.6546690521     1.0873925777
   35      C       5.1236188058     2.0689790049     1.1066767057
   36      C       4.0945172780     2.9129525562     0.2651716864
   37      C       2.9358769836     1.8603045447     0.0406295768
   38      O       2.9943674416     0.9999977404     1.2452784179
   39      H       5.5039909300     0.4583921412    -0.8343694887
   40      H       3.6830587462     1.3647494830    -2.0340053589
   41      H       3.6389946959    -3.9584841286    -0.2073191058
   42      H       4.7471321291    -0.0529229673     1.8754481744
   43      H       5.1993266525     2.4430659725     2.1404474184
   44      H       6.1304803984     2.0478078044     0.6601793587
   45      H       3.7224672911     3.7825351114     0.8292964383
   46      H       4.5169346820     3.2661417618    -0.6893121957
   47      H       1.9261536601     2.3002668648    -0.0712368394
   48      H       4.2042424531    -3.7321751206    -1.9038603263
   49      H       2.4299750377    -3.7473580711    -1.5382732041
   50      H      -2.3488678846    -4.2510457954     2.3377413631
   51      H      -3.4640406977    -3.0846021766     3.1562394155
   52      H      -1.7133781947    -2.6976278713     3.0114783056
   53      H      -0.4184810748    -0.6912989591     1.7957391099
   54      H       0.6137384457     0.7655338186     1.6213822451
   55      H      -0.6627443770    -0.8995391197    -0.6480345140
   56      H      -0.1627684997     0.8057750978    -0.9251340344
 ----------------------------------------------------------------

   10   -1510.2300512407      8.38E-09 Convergence criterion met
 Total energy in the final basis set = -1510.23005124
 Final energy is   -1510.23005124072
 **  OPTIMIZATION CONVERGED  **

                    Orbital Energies (a.u.)
 --------------------------------------------------------------

 Alpha MOs
 -- Occupied --
-18.948 -18.929 -18.906 -18.902 -18.895 -18.894 -18.891 -18.881
-18.879 -18.876 -10.107 -10.106 -10.103 -10.095 -10.072 -10.072
-10.066 -10.065 -10.064 -10.063 -10.063 -10.061 -10.043 -10.040
-10.040 -10.036 -10.025 -10.023 -10.023 -10.021  -1.020  -1.009
 -1.003  -1.000  -0.976  -0.973  -0.942  -0.937  -0.932  -0.926
 -0.767  -0.763  -0.727  -0.724  -0.711  -0.706  -0.698  -0.668
 -0.662  -0.611  -0.602  -0.588  -0.550  -0.544  -0.541  -0.539
 -0.520  -0.513  -0.491  -0.475  -0.468  -0.459  -0.449  -0.446
 -0.436  -0.434  -0.426  -0.416  -0.412  -0.411  -0.409  -0.404
 -0.392  -0.382  -0.379  -0.366  -0.363  -0.356  -0.353  -0.349
 -0.345  -0.343  -0.337  -0.335  -0.331  -0.329  -0.325  -0.317
 -0.314  -0.311  -0.308  -0.305  -0.302  -0.296  -0.286  -0.280
 -0.272  -0.253  -0.251  -0.241  -0.237  -0.235  -0.230  -0.185
 -0.177  -0.167  -0.163  -0.157  -0.153  -0.149  -0.147  -0.144
 -0.139

          Ground-State Mulliken Net Atomic Charges

     Atom                 Charge (a.u.)
  ----------------------------------------
      1 O                    -0.213588
      2 C                     0.209949
      3 C                    -0.080528
      4 C                    -0.079548
      5 C                     0.224906
      6 O                    -0.183200
      7 C                    -0.051845
      8 C                    -0.049947
      9 O                    -0.185683
     10 C                     0.217547
     11 C                    -0.084799
     12 C                    -0.081440
     13 C                     0.206958
     14 O                    -0.197622
     15 O                    -0.162473
     16 O                    -0.175966
     17 O                    -0.187116
     18 C                    -0.129608
     19 C                     0.026860
     20 C                    -0.141533
     21 C                    -0.145635
     22 C                     0.025775
     23 O                    -0.186752
     24 H                     0.081401
     25 H                     0.084255
     26 H                     0.088889
     27 H                     0.078897
     28 H                     0.074856
     29 H                     0.078941
     30 H                     0.074174
     31 H                     0.082820
     32 O                    -0.206834
     33 C                    -0.124178
     34 C                     0.027202
     35 C                    -0.141789
     36 C                    -0.144962
     37 C                     0.025269
     38 O                    -0.185812
     39 H                     0.086237
     40 H                     0.084529
     41 H                     0.091919
     42 H                     0.086161
     43 H                     0.079511
     44 H                     0.075216
     45 H                     0.080570
     46 H                     0.074736
     47 H                     0.081926
     48 H                     0.091636
     49 H                     0.095699
     50 H                     0.089013
     51 H                     0.089289
     52 H                     0.087473
     53 H                     0.083523
     54 H                     0.097185
     55 H                     0.079405
     56 H                     0.078130
  ----------------------------------------
  Sum of atomic charges =    -0.000000

                    Cartesian Multipole Moments
 -----------------------------------------------------------------
    Charge (ESU x 10^10)
                -0.0000
    Dipole Moment (Debye)
         X       1.0333      Y      -1.5374      Z      -1.9798
       Tot       2.7113
    Quadrupole Moments (Debye-Ang)
        XX    -157.8529     XY      13.0850     YY    -154.3915
        XZ       8.8568     YZ      -5.5885     ZZ    -165.2397

 Total job time:  66.26s(wall), 3155.96s(cpu)
        *  Thank you very much for using Q-Chem.  Have a nice day.  *
