 Q-Chem 5.0, Q-Chem, Inc., Pleasanton, CA (2017)
 Q-Chem 5.0.1 for Intel X86 EM64T Linux

User input:
--------------------------------------------------------------
$molecule
0  1
O 0.6101153035 -0.7950602584 -0.9151675059
C -0.3859954387 -0.6915522422 -0.2137006742
C -1.7516708358 -0.2504319563 -0.6921736573
C -2.8760630589 -0.1865381603 0.3544936399
C -2.4687860592 -0.3991876107 1.7956722427
O -2.0494598566 0.7819067642 2.3384534269
C -1.9016085106 1.8256692982 1.3699766837
C -0.7663896671 1.4926437337 0.4074214261
O -0.6244337724 0.0680550906 0.2922700969
C 0.6027843779 -0.4221662589 0.5968139136
C 1.6401033289 0.6601768631 0.7789578737
C 3.0966064208 0.1856826192 0.6706659702
C 3.3013034267 -1.1842008685 0.0556590981
O 4.1321158609 -2.0057187438 0.4154382946
O -0.7060601482 -2.1729966808 -0.0299489249
O 2.858919873 -1.368056728 -1.21595963
O 0.8356116954 -1.1768254513 1.6292914289
C 2.9799584465 -2.5399531121 -1.937521463
C 1.8725889014 1.7351136483 -0.4289856227
C 2.4351553502 3.0302539868 0.1586365443
C 3.8380062875 2.5830585456 0.4931162963
C 3.8313226383 1.2057162048 -0.1768927317
O 2.9437742585 1.3138994127 -1.2289430294
H 1.5331507931 1.1770263315 1.7660532903
H 3.5539007802 0.1133292366 1.6836292398
H 1.0391493492 1.9845377733 -1.0942588173
H 2.4958385465 3.7562601099 -0.6851815053
H 1.8711179039 3.5015067612 0.9910338422
H 4.5588826832 3.2815240016 0.0135804276
H 4.0584132637 2.4861538514 1.578631934
H 4.8588993758 0.8699320071 -0.4405483284
O -2.8495854322 -1.3203748848 2.5042236325
C -1.0324775666 -3.0183743087 1.0200106527
C -2.3472560532 0.7044111747 -1.8191457317
C -3.4843045892 0.0527469492 -2.63376952
C -4.5845114134 -0.0191287374 -1.5792881461
C -3.9170916417 0.7210845476 -0.4015526725
O -3.1125941214 1.6498299953 -1.1030206008
H -1.9521143364 -1.1305016999 -1.3576572634
H -3.3862218462 -1.1733973712 0.2712086862
H -0.9564673133 -2.5554207434 2.0151904271
H -1.5625486119 1.1155507122 -2.4906973211
H -3.7872585442 0.7895612376 -3.4124022132
H -3.2465501582 -0.9090362308 -3.1373747631
H -5.456531088 0.5614601458 -1.9545502022
H -4.9219862991 -1.0433048218 -1.3124979397
H -4.6899958147 1.1295479515 0.2848184264
H -0.3233632025 -3.871273696 1.016030295
H -2.0556133338 -3.4177861839 0.8645022548
H 2.520835739 -2.3999456746 -2.9373876303
H 2.444253056 -3.361148729 -1.4136016383
H 4.0492591629 -2.809955972 -2.067221924
H -0.8921087887 2.1020296482 -0.5061541094
H -0.0417749707 2.1031670514 0.942538687
H -1.6480751433 2.7560947873 1.9376124924
H -2.860366551 2.2366754924 1.0412414102
$end

$rem
JOBTYPE                   OPT
METHOD                    B3LYP
DFT_D                     d3_op
BASIS                     STO-3G
GEOM_OPT_MAX_CYCLES       100
GEOM_OPT_TOL_GRADIENT     300
GEOM_OPT_TOL_DISPLACEMENT 1200
GEOM_OPT_TOL_ENERGY       100
SYMMETRY                  False
THRESH                    12
SCF_CONVERGENCE           8
MAX_SUB_FILE_NUM          128
MEM_STATIC                400
MEM_TOTAL                 4000
$end
--------------------------------------------------------------

   19   -1508.6456793933      4.07E-09 Convergence criterion met
 Total energy in the final basis set = -1508.64567939
   15   -1509.0022568255      5.15E-09 Convergence criterion met
 Total energy in the final basis set = -1509.00225683
   15   -1509.2519045162      4.07E-09 Convergence criterion met
 Total energy in the final basis set = -1509.25190452
   15   -1509.4493984026      2.69E-09 Convergence criterion met
 Total energy in the final basis set = -1509.44939840
   14   -1509.6024410616      7.15E-09 Convergence criterion met
 Total energy in the final basis set = -1509.60244106
   14   -1509.7215652000      5.62E-09 Convergence criterion met
 Total energy in the final basis set = -1509.72156520
   14   -1509.8146826439      4.55E-09 Convergence criterion met
 Total energy in the final basis set = -1509.81468264
   14   -1509.8878957824      3.96E-09 Convergence criterion met
   11   -1510.3093659996      4.79E-09 Convergence criterion met
 Total energy in the final basis set = -1510.30936600
   11   -1510.3093779821      3.98E-09 Convergence criterion met
 Total energy in the final basis set = -1510.30937798
   10   -1510.3093845518      9.98E-09 Convergence criterion met
 Total energy in the final basis set = -1510.30938455
   11   -1510.3093846957      3.50E-09 Convergence criterion met
 Total energy in the final basis set = -1510.30938470
    9   -1510.3093876260      8.85E-09 Convergence criterion met
 Total energy in the final basis set = -1510.30938763
    9   -1510.3093897371      6.51E-09 Convergence criterion met
 Total energy in the final basis set = -1510.30938974

             Standard Nuclear Orientation (Angstroms)
    I     Atom           X                Y                Z
 ----------------------------------------------------------------
    1      O       0.4231754257    -0.0822827896     0.5904529550
    2      C      -0.7729625459    -0.9789215931     0.7524785724
    3      C      -1.5948179985    -0.7146970159    -0.5993883372
    4      C      -3.1716598916    -0.6509525475    -0.4757079358
    5      C      -3.8331758828    -0.7569294415     0.9756952545
    6      O      -3.9927895850     0.4124627709     1.7975794736
    7      C      -2.8113085739     1.3012522555     1.7452454072
    8      C      -1.6092458937     0.5880829360     2.4614732727
    9      O      -1.4815637817    -0.8177004054     2.0207320484
   10      C       1.4102929418     0.0191356063     1.6143627208
   11      C       2.4915220333     0.9958601627     1.0203222317
   12      C       3.1430386800     0.3924851250    -0.3023857628
   13      C       2.6343337937    -1.0762726391    -0.5478048793
   14      O       2.8145589072    -2.0344589440     0.2380670458
   15      O      -0.4125735825    -2.3902350904     0.6438910816
   16      O       1.8961081685    -1.1712990569    -1.7623441291
   17      O       1.4180470773    -0.5411209343     2.7330232454
   18      C       1.2631294838    -2.5147303704    -1.8324361139
   19      C       1.8277709490     2.3170154321     0.4389844036
   20      C       2.9698412165     3.3559520864     0.1099881837
   21      C       3.5682572450     2.7476526134    -1.2149011818
   22      C       2.6827937815     1.4530540325    -1.3850283420
   23      O       1.3546884276     1.9054762365    -0.9039041278
   24      H       3.2459990664     1.2089027076     1.7970172690
   25      H       4.2442077324     0.3649899038    -0.2117519565
   26      H       0.9853245337     2.7135134219     1.0381523200
   27      H       2.5399193910     4.3552641640    -0.0628193861
   28      H       3.7132691743     3.4262532680     0.9202420810
   29      H       3.4214476641     3.4264234354    -2.0699936851
   30      H       4.6409044690     2.5116163663    -1.1301127952
   31      H       2.6028126131     1.0527912626    -2.4136765916
   32      O      -4.4223653938    -1.8037686125     1.3287113695
   33      C       0.0000327239    -2.9596974044     1.9532501527
   34      C      -1.2676133489     0.6291099776    -1.3823986330
   35      C      -1.6476738191     0.3926474281    -2.8943325492
   36      C      -3.2235568965     0.3894595388    -2.8268483537
   37      C      -3.4709715399     0.6773848280    -1.2953651071
   38      O      -2.3347781727     1.5738603036    -0.9549812985
   39      H      -1.3260055992    -1.5726326690    -1.2372389877
   40      H      -3.6038214898    -1.5162549590    -1.0084964192
   41      H       0.5867406571    -2.2211665022     2.5419788318
   42      H      -0.2509557660     1.0568298019    -1.1837989108
   43      H      -1.2760343552     1.2236397579    -3.5148507771
   44      H      -1.2354327164    -0.5506597363    -3.2866513487
   45      H      -3.6561126583     1.1931620219    -3.4437666700
   46      H      -3.6618316166    -0.5710742034    -3.1415194412
   47      H      -4.4337116638     1.1667083700    -1.0504422636
   48      H       0.6221085258    -3.8409918905     1.7097210996
   49      H      -0.8857257142    -3.2866630708     2.5345902671
   50      H       0.6350396337    -2.6822840746    -0.9223153211
   51      H       2.0240358217    -3.3164507041    -1.9169559224
   52      H       0.6371519691    -2.5039864148    -2.7431268183
   53      H      -0.6779614577     1.1692471404     2.3011742753
   54      H      -1.7957871909     0.5105448091     3.5518718423
   55      H      -3.0887351778     2.2111200141     2.3127198074
   56      H      -2.5345771375     1.5656020994     0.6851879022
 ----------------------------------------------------------------

    9   -1510.3093904392      6.44E-09 Convergence criterion met
 Total energy in the final basis set = -1510.30939044
 Final energy is   -1510.30939043919
 **  OPTIMIZATION CONVERGED  **

                    Orbital Energies (a.u.)
 --------------------------------------------------------------

 Alpha MOs
 -- Occupied --
-18.935 -18.934 -18.924 -18.916 -18.913 -18.907 -18.907 -18.900
-18.870 -18.856 -10.150 -10.120 -10.101 -10.085 -10.078 -10.073
-10.067 -10.065 -10.050 -10.048 -10.047 -10.046 -10.037 -10.036
-10.033 -10.033 -10.031 -10.030 -10.023 -10.019  -1.040  -1.012
 -0.997  -0.989  -0.986  -0.980  -0.945  -0.941  -0.935  -0.918
 -0.776  -0.764  -0.734  -0.723  -0.718  -0.704  -0.697  -0.657
 -0.656  -0.617  -0.600  -0.583  -0.568  -0.552  -0.548  -0.544
 -0.533  -0.513  -0.489  -0.486  -0.475  -0.470  -0.449  -0.443
 -0.441  -0.437  -0.424  -0.419  -0.414  -0.409  -0.406  -0.401
 -0.393  -0.389  -0.382  -0.378  -0.376  -0.365  -0.350  -0.348
 -0.347  -0.345  -0.340  -0.336  -0.328  -0.326  -0.321  -0.316
 -0.312  -0.310  -0.308  -0.307  -0.297  -0.289  -0.287  -0.278
 -0.272  -0.258  -0.252  -0.244  -0.242  -0.232  -0.226  -0.195
 -0.185  -0.177  -0.169  -0.166  -0.162  -0.160  -0.150  -0.136
 -0.131

          Ground-State Mulliken Net Atomic Charges

     Atom                 Charge (a.u.)
  ----------------------------------------
      1 O                    -0.188949
      2 C                     0.258800
      3 C                    -0.079561
      4 C                    -0.089819
      5 C                     0.205983
      6 O                    -0.180757
      7 C                    -0.085058
      8 C                    -0.055070
      9 O                    -0.186389
     10 C                     0.214657
     11 C                    -0.077388
     12 C                    -0.078222
     13 C                     0.207198
     14 O                    -0.219119
     15 O                    -0.190254
     16 O                    -0.171372
     17 O                    -0.199065
     18 C                    -0.143603
     19 C                     0.028304
     20 C                    -0.143295
     21 C                    -0.143048
     22 C                     0.026695
     23 O                    -0.184552
     24 H                     0.088447
     25 H                     0.086584
     26 H                     0.083998
     27 H                     0.081154
     28 H                     0.076904
     29 H                     0.080479
     30 H                     0.076348
     31 H                     0.095324
     32 O                    -0.206652
     33 C                    -0.144233
     34 C                     0.004890
     35 C                    -0.142361
     36 C                    -0.143373
     37 C                     0.022375
     38 O                    -0.190030
     39 H                     0.089728
     40 H                     0.087281
     41 H                     0.106765
     42 H                     0.123952
     43 H                     0.077971
     44 H                     0.073108
     45 H                     0.078383
     46 H                     0.075498
     47 H                     0.086557
     48 H                     0.084769
     49 H                     0.083912
     50 H                     0.111915
     51 H                     0.083188
     52 H                     0.079855
     53 H                     0.076352
     54 H                     0.092102
     55 H                     0.077941
     56 H                     0.114756
  ----------------------------------------
  Sum of atomic charges =    -0.000000

                    Cartesian Multipole Moments
 -----------------------------------------------------------------
    Charge (ESU x 10^10)
                -0.0000
    Dipole Moment (Debye)
         X       3.4604      Y       3.1559      Z      -2.8497
       Tot       5.4823
    Quadrupole Moments (Debye-Ang)
        XX    -167.2637     XY       1.6675     YY    -160.1001
        XZ       7.4883     YZ       8.6733     ZZ    -160.7501

 Total job time:  310.14s(wall), 14798.00s(cpu)
        *  Thank you very much for using Q-Chem.  Have a nice day.  *
