 Q-Chem 5.0, Q-Chem, Inc., Pleasanton, CA (2017)
 Q-Chem 5.0.1 for Intel X86 EM64T Linux

User input:
--------------------------------------------------------------
$molecule
0  1
O -5.7151614937 -1.2749209316 1.1858249781
C -5.0151262204 -0.5104759625 0.4864486225
C -4.6752080914 -0.7164854059 -1.0452786224
C -3.3648096892 0.0327880312 -1.5141525637
C -3.34860088 1.5474987036 -0.9888451037
O -2.1137077203 2.2604287371 -0.7723780232
C -1.2004598783 1.5918561074 0.1794124411
C 0.2435457785 2.1804231356 -0.0440715132
O 1.1686288031 1.0829564912 -0.4121925068
C 2.1197537481 0.8581338731 0.6465706448
C 2.7935068889 -0.5406679364 0.3948782742
C 4.325882642 -0.5243685053 -0.0092512589
C 4.9501323322 0.8252240507 -0.5096617121
O 6.0936154323 0.9594314688 -0.9984445615
O -4.2537831475 0.5679170486 1.0390506289
O 4.0044808359 1.89007647 -0.4145783487
O 2.2067016076 1.5735676723 1.6682824439
C 4.588365613 3.1585838029 -0.903336261
C 2.8875678158 -1.2913319207 1.794248441
C 3.2975466919 -2.7996863424 1.5600735716
C 4.8426622744 -2.6629596757 1.2929252935
C 5.0075724499 -1.093433458 1.316173727
O 4.0920671353 -0.6774481883 2.4005889583
H 2.1903175708 -1.0875828528 -0.3505700933
H 4.4911263713 -1.2448610617 -0.8317156496
H 2.0085289689 -1.1392561865 2.4499224316
H 3.0914844826 -3.4005807156 2.4599241728
H 2.7576688991 -3.244364579 0.7085169957
H 5.432854428 -3.1204278594 2.1030631826
H 5.1539403916 -3.1052889806 0.3333011148
H 6.0345568009 -0.7233694813 1.5017575206
O -4.3867371637 2.2344912423 -1.1150310526
C -4.4997749029 0.6826879403 2.4936812253
C -4.1730250925 -2.2177614947 -1.1232255589
C -3.7912940537 -2.608938642 -2.6039496733
C -2.3669723755 -1.9547466618 -2.7411377008
C -2.2848823405 -1.143496808 -1.3871582662
O -2.8666351781 -2.1003246715 -0.4175814331
H -5.5540833605 -0.4932769491 -1.6757946821
H -3.4793184384 0.205281588 -2.6029076159
H -4.2337474859 -0.2545149786 3.0240933305
H -4.8325686019 -2.932021556 -0.5929570901
H -3.7533087831 -3.7031470299 -2.7226033378
H -4.5138089223 -2.2007977562 -3.3290947039
H -1.5760212633 -2.7219875093 -2.7663191437
H -2.2677540783 -1.313742967 -3.6316150669
H -1.2551900281 -0.8673361227 -1.0981570357
H -5.56073315 0.9228569091 2.709208097
H -3.8546147381 1.5085607505 2.8457101413
H 3.7882770343 3.9156275851 -0.8090963591
H 4.9051632389 3.0775962239 -1.9632838187
H 5.4631876278 3.46254226 -0.2933266467
H 0.2115747672 2.9131421686 -0.8777170672
H 0.6325468155 2.6668628792 0.8763402595
H -1.1709803761 0.4945899391 0.0571715866
H -1.5427777819 1.8010942922 1.21798372
$end

$rem
JOBTYPE                   OPT
METHOD                    B3LYP
DFT_D                     d3_op
BASIS                     STO-3G
GEOM_OPT_MAX_CYCLES       100
GEOM_OPT_TOL_GRADIENT     300
GEOM_OPT_TOL_DISPLACEMENT 1200
GEOM_OPT_TOL_ENERGY       100
SYMMETRY                  False
THRESH                    12
SCF_CONVERGENCE           8
MAX_SUB_FILE_NUM          128
MEM_STATIC                400
MEM_TOTAL                 4000
$end
--------------------------------------------------------------

   16   -1510.2406946594      4.82E-09 Convergence criterion met
 Total energy in the final basis set = -1510.24069466
   13   -1510.2452399599      6.93E-09 Convergence criterion met
 Total energy in the final basis set = -1510.24523996
   13   -1510.2492377221      7.76E-09 Convergence criterion met
 Total energy in the final basis set = -1510.24923772
   14   -1510.2530545518      6.16E-09 Convergence criterion met
 Total energy in the final basis set = -1510.25305455
   14   -1510.2562894543      6.65E-09 Convergence criterion met
 Total energy in the final basis set = -1510.25628945
   14   -1510.2582683172      3.71E-09 Convergence criterion met
 Total energy in the final basis set = -1510.25826832
   14   -1510.2608181728      3.81E-09 Convergence criterion met
 Total energy in the final basis set = -1510.26081817
   14   -1510.2633373890      3.84E-09 Convergence criterion met
   13   -1510.2910377404      2.47E-09 Convergence criterion met
 Total energy in the final basis set = -1510.29103774
   13   -1510.2912354935      3.31E-09 Convergence criterion met
 Total energy in the final basis set = -1510.29123549
   13   -1510.2912939502      1.54E-09 Convergence criterion met
 Total energy in the final basis set = -1510.29129395
   11   -1510.2913233219      6.51E-09 Convergence criterion met
 Total energy in the final basis set = -1510.29132332
   12   -1510.2913344003      3.86E-09 Convergence criterion met
 Total energy in the final basis set = -1510.29133440
   11   -1510.2913385822      6.94E-09 Convergence criterion met
 Total energy in the final basis set = -1510.29133858

             Standard Nuclear Orientation (Angstroms)
    I     Atom           X                Y                Z
 ----------------------------------------------------------------
    1      O       3.2126400770    -0.0670136152    -2.6630391743
    2      C       3.8178086241    -0.1037309187    -1.5708226456
    3      C       3.4717848335    -0.9758441679    -0.3103864313
    4      C       2.9711231812    -0.1047559339     0.9249636944
    5      C       3.1557277886     1.4648651530     0.7513891291
    6      O       2.6354376146     2.1627867527    -0.3915987087
    7      C       1.3120962434     1.7175184338    -0.8841819730
    8      C       0.1402637219     2.3805319482    -0.0515770566
    9      O      -0.5297036153     1.3778930133     0.8170100445
   10      C      -1.7424056526     0.9199301022     0.1964588023
   11      C      -2.2892681749    -0.3140620283     0.9795113185
   12      C      -3.8445809563    -0.5357684049     0.7807722764
   13      C      -4.5513053784     0.5789698526    -0.0742877693
   14      O      -5.0989143807     0.4470186845    -1.1886129572
   15      O       4.9774528761     0.6672033424    -1.2497145486
   16      O      -4.5604103084     1.7900595935     0.6963813881
   17      O      -2.2351578698     1.4362697694    -0.8313987394
   18      C      -5.1584387655     2.8831300095    -0.1014010731
   19      C      -1.7130301592    -1.6541981522     0.3291598662
   20      C      -2.0208138757    -2.8464155891     1.3210701055
   21      C      -3.5591436395    -3.0695976115     1.0732222287
   22      C      -3.8620006329    -1.9291664403     0.0256541921
   23      O      -2.6338758729    -1.8906066958    -0.8016353467
   24      H      -2.0099140486    -0.2210354853     2.0435803998
   25      H      -4.3539334948    -0.5934653782     1.7597436670
   26      H      -0.6538985173    -1.5651735483    -0.0197511617
   27      H      -1.4338186849    -3.7377755835     1.0475150957
   28      H      -1.7977794772    -2.5849994334     2.3678769502
   29      H      -3.7567000639    -4.0592577070     0.6313133510
   30      H      -4.1596225570    -2.9667212834     1.9913064392
   31      H      -4.7533257172    -2.0813759398    -0.6136704175
   32      O       3.8924664344     2.1124510943     1.5298876203
   33      C       5.2531695786     1.6425386160    -2.3299211271
   34      C       2.2253220593    -1.9139893177    -0.5579802255
   35      C       2.1350287381    -2.9772790331     0.6013269735
   36      C       1.6239385389    -2.0934522991     1.8039404937
   37      C       1.5075334824    -0.6776422961     1.1259611565
   38      O       1.0762078780    -1.0179910217    -0.2597869290
   39      H       4.3696180144    -1.5566747432    -0.0323847696
   40      H       3.5811739284    -0.3386374747     1.8151655933
   41      H       4.4575800500     2.4151406553    -2.3677685165
   42      H       2.1427566916    -2.3074385800    -1.5899649575
   43      H       1.4067138637    -3.7623564471     0.3421720037
   44      H       3.1088555906    -3.4504477286     0.8045218648
   45      H       0.6408384359    -2.4341699866     2.1635887710
   46      H       2.3257311188    -2.0869362700     2.6527913138
   47      H       0.7663198139     0.0371850979     1.5433964882
   48      H       5.3233017915     1.1480259561    -3.3198918461
   49      H       6.2187097640     2.1168538086    -2.0764102365
   50      H      -5.1817090052     3.7695976367     0.5587910451
   51      H      -6.1887479385     2.6356657072    -0.4294136914
   52      H      -4.5462334024     3.1045328273    -0.9998807264
   53      H       0.5433689637     3.1734517729     0.6113952456
   54      H      -0.6224262661     2.8064198620    -0.7374310855
   55      H       1.1927406783     0.5998999618    -0.8640983529
   56      H       1.2667008059     2.0774015408    -1.9313321738
 ----------------------------------------------------------------

   10   -1510.2913377783      3.78E-09 Convergence criterion met
 Total energy in the final basis set = -1510.29133778
 Final energy is   -1510.29133777834
 **  OPTIMIZATION CONVERGED  **

                    Orbital Energies (a.u.)
 --------------------------------------------------------------

 Alpha MOs
 -- Occupied --
-18.939 -18.938 -18.932 -18.922 -18.920 -18.884 -18.883 -18.880
-18.877 -18.863 -10.107 -10.104 -10.101 -10.089 -10.081 -10.072
-10.064 -10.064 -10.054 -10.052 -10.051 -10.050 -10.046 -10.042
-10.038 -10.036 -10.036 -10.031 -10.017 -10.016  -1.019  -1.017
 -1.003  -0.999  -0.998  -0.963  -0.943  -0.942  -0.933  -0.925
 -0.779  -0.759  -0.736  -0.721  -0.721  -0.706  -0.691  -0.666
 -0.654  -0.613  -0.607  -0.580  -0.564  -0.555  -0.539  -0.533
 -0.523  -0.506  -0.488  -0.479  -0.472  -0.455  -0.451  -0.449
 -0.447  -0.429  -0.425  -0.418  -0.414  -0.412  -0.403  -0.402
 -0.389  -0.384  -0.377  -0.372  -0.366  -0.359  -0.356  -0.353
 -0.350  -0.347  -0.342  -0.339  -0.331  -0.328  -0.324  -0.323
 -0.315  -0.311  -0.304  -0.301  -0.297  -0.293  -0.285  -0.277
 -0.267  -0.261  -0.258  -0.250  -0.244  -0.234  -0.226  -0.191
 -0.182  -0.177  -0.166  -0.162  -0.161  -0.157  -0.147  -0.142
 -0.138

          Ground-State Mulliken Net Atomic Charges

     Atom                 Charge (a.u.)
  ----------------------------------------
      1 O                    -0.211137
      2 C                     0.209133
      3 C                    -0.081726
      4 C                    -0.085937
      5 C                     0.207348
      6 O                    -0.182488
      7 C                    -0.076263
      8 C                    -0.061981
      9 O                    -0.179523
     10 C                     0.216855
     11 C                    -0.080556
     12 C                    -0.080348
     13 C                     0.215097
     14 O                    -0.212510
     15 O                    -0.168805
     16 O                    -0.177455
     17 O                    -0.206913
     18 C                    -0.128838
     19 C                     0.005970
     20 C                    -0.146285
     21 C                    -0.144183
     22 C                     0.024950
     23 O                    -0.190737
     24 H                     0.082262
     25 H                     0.082424
     26 H                     0.103401
     27 H                     0.072542
     28 H                     0.068043
     29 H                     0.076582
     30 H                     0.071706
     31 H                     0.088794
     32 O                    -0.197549
     33 C                    -0.128331
     34 C                     0.026809
     35 C                    -0.143329
     36 C                    -0.144634
     37 C                     0.013355
     38 O                    -0.182965
     39 H                     0.090354
     40 H                     0.090361
     41 H                     0.095340
     42 H                     0.097674
     43 H                     0.082491
     44 H                     0.079187
     45 H                     0.082319
     46 H                     0.079388
     47 H                     0.107760
     48 H                     0.090626
     49 H                     0.093003
     50 H                     0.086367
     51 H                     0.087340
     52 H                     0.091572
     53 H                     0.090782
     54 H                     0.101183
     55 H                     0.114490
     56 H                     0.086985
  ----------------------------------------
  Sum of atomic charges =     0.000000

                    Cartesian Multipole Moments
 -----------------------------------------------------------------
    Charge (ESU x 10^10)
                 0.0000
    Dipole Moment (Debye)
         X       1.2288      Y      -2.2031      Z       2.3925
       Tot       3.4767
    Quadrupole Moments (Debye-Ang)
        XX    -161.6954     XY     -10.1479     YY    -153.1688
        XZ     -14.1279     YZ      -8.6614     ZZ    -164.7029

 Total job time:  160.01s(wall), 7631.53s(cpu)
        *  Thank you very much for using Q-Chem.  Have a nice day.  *
