 Q-Chem 5.0, Q-Chem, Inc., Pleasanton, CA (2017)
 Q-Chem 5.0.1 for Intel X86 EM64T Linux

User input:
--------------------------------------------------------------
$molecule
0  1
O -3.94934 -3.66094 2.70899
C -3.26408 -4.56952 2.26188
C -3.36658 -6.02376 2.66595
C -2.12843 -6.90581 2.43612
C -0.86791 -6.19656 1.99324
O 0.22828 -6.91351 2.38025
C 0.2811 -7.14333 3.79221
C 1.22548 -8.30032 4.10147
O 0.51395 -9.3432 4.78631
C 0.86497 -9.5348 6.08216
C -0.14323 -10.35661 6.8495
C 0.34346 -11.75133 7.26922
C 1.83887 -11.98237 7.18508
O 2.39943 -13.0583 7.33575
O -2.81166 -4.34438 1.00135
O 2.69568 -10.93557 7.06322
O 1.57366 -8.73484 6.6885
C 4.07354 -11.0214 7.01169
C -0.52728 -9.78374 8.23393
C -1.89878 -10.31552 8.64915
C -1.56736 -11.76853 8.92728
C -0.04416 -11.74104 8.75428
O 0.32383 -10.43909 9.14349
H -1.07464 -10.40979 6.23844
H -0.13716 -12.5454 6.65657
H -0.52347 -8.67236 8.26894
H -2.15548 -9.81975 9.61299
H -2.72384 -10.14735 7.92385
H -1.84739 -11.9971 9.97946
H -2.0367 -12.50308 8.23731
H 0.4314 -12.57287 9.3197
O -0.78453 -5.57866 0.94741
C -2.8107 -3.122 0.35741
C -3.80926 -6.37112 4.09794
C -4.71132 -7.59672 4.04501
C -3.71359 -8.63789 3.57544
C -2.39413 -7.83656 3.67663
O -2.66435 -6.90828 4.70093
H -4.1763 -6.36529 1.97748
H -2.3078 -7.55899 1.55187
H -2.19757 -2.39177 0.92756
H -4.29782 -5.5332 4.64003
H -5.00405 -7.81686 5.09728
H -5.62866 -7.51295 3.42324
H -3.7462 -9.4887 4.2923
H -3.86828 -9.00935 2.53946
H -1.62148 -8.60227 3.85262
H -3.84885 -2.74113 0.25065
H -2.37182 -3.24491 -0.65374
H 4.49663 -10.00169 6.90463
H 4.38569 -11.63103 6.13693
H 4.46523 -11.47464 7.9472
H 1.6583 -8.71465 3.16559
H 2.12095 -7.92955 4.65429
H -0.42765 -6.77113 4.53933
H 0.94654 -6.29217 4.06227
$end

$opt
CONSTRAINT
tors           1           2           3           4    -157.022
tors           3           4           5           6    +153.537
tors           4           5           6           7     -57.314
tors           5           6           7           8    +161.211
tors           6           7           8           9    -120.744
tors           7           8           9          10    -111.762
tors           8           9          10          11    +164.335
tors           9          10          11          12    +111.588
tors          11          12          13          14    -171.679
ENDCONSTRAINT
$end

$rem
JOBTYPE                   OPT
METHOD                    B3LYP
DFT_D                     d3_op
BASIS                     STO-3G
GEOM_OPT_MAX_CYCLES       100
GEOM_OPT_TOL_GRADIENT     300
GEOM_OPT_TOL_DISPLACEMENT 1200
GEOM_OPT_TOL_ENERGY       100
SYMMETRY                  False
THRESH                    12
SCF_CONVERGENCE           8
MAX_SUB_FILE_NUM          128
MEM_STATIC                400
MEM_TOTAL                 4000
$end
--------------------------------------------------------------

   16   -1510.0252921642      3.73E-09 Convergence criterion met
 Total energy in the final basis set = -1510.02529216
   14   -1510.1072981764      7.88E-09 Convergence criterion met
 Total energy in the final basis set = -1510.10729818
   14   -1510.1564818680      9.39E-09 Convergence criterion met
 Total energy in the final basis set = -1510.15648187
   14   -1510.1857319210      7.72E-09 Convergence criterion met
 Total energy in the final basis set = -1510.18573192
   14   -1510.2018993661      8.18E-09 Convergence criterion met
 Total energy in the final basis set = -1510.20189937
   14   -1510.2119036369      4.49E-09 Convergence criterion met
 Total energy in the final basis set = -1510.21190364
   13   -1510.2182749017      7.67E-09 Convergence criterion met
 Total energy in the final basis set = -1510.21827490
   13   -1510.2224941682      4.72E-09 Convergence criterion met
   11   -1510.2406735174      3.74E-09 Convergence criterion met
 Total energy in the final basis set = -1510.24067352
   10   -1510.2407025836      9.17E-09 Convergence criterion met
 Total energy in the final basis set = -1510.24070258
   11   -1510.2407198892      2.87E-09 Convergence criterion met
 Total energy in the final basis set = -1510.24071989
    9   -1510.2407297939      7.81E-09 Convergence criterion met
 Total energy in the final basis set = -1510.24072979
    9   -1510.2407346435      4.96E-09 Convergence criterion met
 Total energy in the final basis set = -1510.24073464
    9   -1510.2407369047      3.89E-09 Convergence criterion met
 Total energy in the final basis set = -1510.24073690

             Standard Nuclear Orientation (Angstroms)
    I     Atom           X                Y                Z
 ----------------------------------------------------------------
    1      O      -5.7151614937    -1.2749209316     1.1858249781
    2      C      -5.0151262204    -0.5104759625     0.4864486225
    3      C      -4.6752080914    -0.7164854059    -1.0452786224
    4      C      -3.3648096892     0.0327880312    -1.5141525637
    5      C      -3.3486008800     1.5474987036    -0.9888451037
    6      O      -2.1137077203     2.2604287371    -0.7723780232
    7      C      -1.2004598783     1.5918561074     0.1794124411
    8      C       0.2435457785     2.1804231356    -0.0440715132
    9      O       1.1686288031     1.0829564912    -0.4121925068
   10      C       2.1197537481     0.8581338731     0.6465706448
   11      C       2.7935068889    -0.5406679364     0.3948782742
   12      C       4.3258826420    -0.5243685053    -0.0092512589
   13      C       4.9501323322     0.8252240507    -0.5096617121
   14      O       6.0936154323     0.9594314688    -0.9984445615
   15      O      -4.2537831475     0.5679170486     1.0390506289
   16      O       4.0044808359     1.8900764700    -0.4145783487
   17      O       2.2067016076     1.5735676723     1.6682824439
   18      C       4.5883656130     3.1585838029    -0.9033362610
   19      C       2.8875678158    -1.2913319207     1.7942484410
   20      C       3.2975466919    -2.7996863424     1.5600735716
   21      C       4.8426622744    -2.6629596757     1.2929252935
   22      C       5.0075724499    -1.0934334580     1.3161737270
   23      O       4.0920671353    -0.6774481883     2.4005889583
   24      H       2.1903175708    -1.0875828528    -0.3505700933
   25      H       4.4911263713    -1.2448610617    -0.8317156496
   26      H       2.0085289689    -1.1392561865     2.4499224316
   27      H       3.0914844826    -3.4005807156     2.4599241728
   28      H       2.7576688991    -3.2443645790     0.7085169957
   29      H       5.4328544280    -3.1204278594     2.1030631826
   30      H       5.1539403916    -3.1052889806     0.3333011148
   31      H       6.0345568009    -0.7233694813     1.5017575206
   32      O      -4.3867371637     2.2344912423    -1.1150310526
   33      C      -4.4997749029     0.6826879403     2.4936812253
   34      C      -4.1730250925    -2.2177614947    -1.1232255589
   35      C      -3.7912940537    -2.6089386420    -2.6039496733
   36      C      -2.3669723755    -1.9547466618    -2.7411377008
   37      C      -2.2848823405    -1.1434968080    -1.3871582662
   38      O      -2.8666351781    -2.1003246715    -0.4175814331
   39      H      -5.5540833605    -0.4932769491    -1.6757946821
   40      H      -3.4793184384     0.2052815880    -2.6029076159
   41      H      -4.2337474859    -0.2545149786     3.0240933305
   42      H      -4.8325686019    -2.9320215560    -0.5929570901
   43      H      -3.7533087831    -3.7031470299    -2.7226033378
   44      H      -4.5138089223    -2.2007977562    -3.3290947039
   45      H      -1.5760212633    -2.7219875093    -2.7663191437
   46      H      -2.2677540783    -1.3137429670    -3.6316150669
   47      H      -1.2551900281    -0.8673361227    -1.0981570357
   48      H      -5.5607331500     0.9228569091     2.7092080970
   49      H      -3.8546147381     1.5085607505     2.8457101413
   50      H       3.7882770343     3.9156275851    -0.8090963591
   51      H       4.9051632389     3.0775962239    -1.9632838187
   52      H       5.4631876278     3.4625422600    -0.2933266467
   53      H       0.2115747672     2.9131421686    -0.8777170672
   54      H       0.6325468155     2.6668628792     0.8763402595
   55      H      -1.1709803761     0.4945899391     0.0571715866
   56      H      -1.5427777819     1.8010942922     1.2179837200
 ----------------------------------------------------------------

    9   -1510.2407377446      3.32E-09 Convergence criterion met
 Total energy in the final basis set = -1510.24073774
 Final energy is   -1510.24073774464
 **  OPTIMIZATION CONVERGED  **

                    Orbital Energies (a.u.)
 --------------------------------------------------------------

 Alpha MOs
 -- Occupied --
-18.946 -18.942 -18.924 -18.919 -18.892 -18.892 -18.878 -18.876
-18.870 -18.869 -10.106 -10.102 -10.102 -10.099 -10.071 -10.070
-10.069 -10.066 -10.064 -10.063 -10.063 -10.063 -10.042 -10.041
-10.040 -10.035 -10.026 -10.025 -10.023 -10.022  -1.019  -1.017
 -1.006  -0.998  -0.976  -0.973  -0.942  -0.939  -0.934  -0.928
 -0.766  -0.765  -0.727  -0.727  -0.711  -0.705  -0.699  -0.667
 -0.666  -0.614  -0.600  -0.583  -0.552  -0.547  -0.542  -0.540
 -0.519  -0.513  -0.489  -0.484  -0.472  -0.464  -0.452  -0.446
 -0.441  -0.435  -0.421  -0.417  -0.415  -0.412  -0.410  -0.405
 -0.392  -0.388  -0.379  -0.377  -0.366  -0.362  -0.355  -0.348
 -0.340  -0.338  -0.336  -0.334  -0.328  -0.321  -0.319  -0.316
 -0.313  -0.312  -0.309  -0.305  -0.302  -0.298  -0.295  -0.277
 -0.273  -0.258  -0.247  -0.241  -0.239  -0.237  -0.227  -0.185
 -0.182  -0.173  -0.163  -0.159  -0.156  -0.154  -0.151  -0.146
 -0.140

          Ground-State Mulliken Net Atomic Charges

     Atom                 Charge (a.u.)
  ----------------------------------------
      1 O                    -0.214158
      2 C                     0.213894
      3 C                    -0.075005
      4 C                    -0.088276
      5 C                     0.222229
      6 O                    -0.179773
      7 C                    -0.049349
      8 C                    -0.058204
      9 O                    -0.180924
     10 C                     0.219667
     11 C                    -0.079388
     12 C                    -0.079721
     13 C                     0.210461
     14 O                    -0.214350
     15 O                    -0.168917
     16 O                    -0.165222
     17 O                    -0.216307
     18 C                    -0.124892
     19 C                     0.026581
     20 C                    -0.145258
     21 C                    -0.142383
     22 C                     0.025817
     23 O                    -0.184739
     24 H                     0.084293
     25 H                     0.085527
     26 H                     0.084309
     27 H                     0.079109
     28 H                     0.073633
     29 H                     0.079053
     30 H                     0.074387
     31 H                     0.086699
     32 O                    -0.203088
     33 C                    -0.125928
     34 C                     0.022462
     35 C                    -0.146065
     36 C                    -0.140750
     37 C                     0.019877
     38 O                    -0.194789
     39 H                     0.090536
     40 H                     0.081894
     41 H                     0.092382
     42 H                     0.090085
     43 H                     0.079280
     44 H                     0.075676
     45 H                     0.077347
     46 H                     0.075011
     47 H                     0.082975
     48 H                     0.092444
     49 H                     0.091503
     50 H                     0.094364
     51 H                     0.091476
     52 H                     0.092826
     53 H                     0.091229
     54 H                     0.101713
     55 H                     0.087673
     56 H                     0.081077
  ----------------------------------------
  Sum of atomic charges =    -0.000000

                    Cartesian Multipole Moments
 -----------------------------------------------------------------
    Charge (ESU x 10^10)
                -0.0000
    Dipole Moment (Debye)
         X       0.6544      Y      -1.9552      Z      -1.6289
       Tot       2.6276
    Quadrupole Moments (Debye-Ang)
        XX    -176.3244     XY       1.5175     YY    -158.7456
        XZ      -1.2781     YZ       3.6733     ZZ    -157.9300

 Total job time:  95.40s(wall), 4542.97s(cpu)
        *  Thank you very much for using Q-Chem.  Have a nice day.  *
