 Q-Chem 5.0, Q-Chem, Inc., Pleasanton, CA (2017)
 Q-Chem 5.0.1 for Intel X86 EM64T Linux

User input:
--------------------------------------------------------------
$molecule
0  1
O -1.8705540531 -1.7961422535 0.0741257955
C -2.9940653318 -1.8279064222 0.6130279921
C -4.0676288472 -0.7100765427 0.8678861634
C -3.8003946267 0.7803108936 0.4052659798
C -2.3653947425 1.4022096174 0.1579299874
O -1.3135224873 0.8617673499 0.979257489
C -0.1867466634 0.3720334794 0.1432694661
C 0.6075386978 1.5160483721 -0.596063604
O 1.4424558669 0.8189271523 -1.6091810093
C 2.8101941598 1.23782241 -1.5080083522
C 3.7743143352 -0.0106329367 -1.4181129808
C 4.578426645 0.0143525054 -0.0411701329
C 4.2641147365 1.2788412769 0.8315719383
O 3.211087523 1.5232201341 1.4619642674
O -3.5562302476 -3.0332462631 1.1569165641
O 5.4037757136 2.1424338449 0.8044776549
O 3.1713321092 2.4304053801 -1.3929090178
C 5.1044744237 3.3928903705 1.5406988515
C 2.9793104254 -1.3717048039 -1.2779201853
C 3.9899444981 -2.5739274259 -1.4416688767
C 4.7267321216 -2.5492132709 -0.0514701428
C 4.0275258881 -1.3133891774 0.6390296462
O 2.6280651155 -1.397797293 0.1628737248
H 4.4698964008 -0.0122882298 -2.2773653461
H 5.6675107488 -0.0285728435 -0.2154867384
H 2.0642097104 -1.4216416297 -1.8973342321
H 3.4443860435 -3.5186766401 -1.5939369783
H 4.6768807752 -2.421930519 -2.2893398646
H 4.5347833015 -3.4688914061 0.524201752
H 5.8157760029 -2.4127396982 -0.146967357
H 4.0580242277 -1.307447749 1.7458037387
O -2.1884988808 2.3105327903 -0.688594157
C -2.6259734725 -4.1654301937 0.9467691048
C -5.2996655445 -1.056932607 -0.089605284
C -6.5611574143 -0.1851984662 0.2951587923
C -6.1996946314 1.1943063148 -0.3715374834
C -4.7374020937 0.8945086544 -0.8786059993
O -4.8444036097 -0.4935399569 -1.3816021377
H -4.3515712096 -0.7512891208 1.9346771613
H -4.2335750522 1.4236782134 1.1970279664
H -1.6387924318 -3.9773973161 1.4161468541
H -5.4907541875 -2.1439606386 -0.1804589061
H -7.4762948222 -0.6203713498 -0.1366594768
H -6.6887746373 -0.1094895409 1.3870745717
H -6.8633039391 1.4156569813 -1.2230297968
H -6.2365839137 2.0375210758 0.3363297941
H -4.343350046 1.5752423503 -1.6586786682
H -2.4677077294 -4.3699004343 -0.1320899188
H -3.1020327796 -5.0426466608 1.4224347684
H 6.018404787 4.011378197 1.4767498692
H 4.862755112 3.1932828486 2.6047476894
H 4.2542362259 3.9354871418 1.0794541697
H -0.1257206178 2.19818743 -1.0834480111
H 1.2347335967 2.090686892 0.1162007328
H -0.5682962914 -0.3558667037 -0.6018981948
H 0.4931864052 -0.1671909896 0.8343972061
$end

$rem
JOBTYPE                   OPT
METHOD                    B3LYP
DFT_D                     d3_op
BASIS                     STO-3G
GEOM_OPT_MAX_CYCLES       100
GEOM_OPT_TOL_GRADIENT     300
GEOM_OPT_TOL_DISPLACEMENT 1200
GEOM_OPT_TOL_ENERGY       100
SYMMETRY                  False
THRESH                    12
SCF_CONVERGENCE           8
MAX_SUB_FILE_NUM          128
MEM_STATIC                400
MEM_TOTAL                 4000
$end
--------------------------------------------------------------

   16   -1510.2482964904      6.52E-09 Convergence criterion met
 Total energy in the final basis set = -1510.24829649
   14   -1510.2539941941      2.85E-09 Convergence criterion met
 Total energy in the final basis set = -1510.25399419
   14   -1510.2613682477      2.85E-09 Convergence criterion met
 Total energy in the final basis set = -1510.26136825
   14   -1510.2679987648      3.75E-09 Convergence criterion met
 Total energy in the final basis set = -1510.26799876
   14   -1510.2732828536      2.93E-09 Convergence criterion met
 Total energy in the final basis set = -1510.27328285
   13   -1510.2774159239      8.60E-09 Convergence criterion met
 Total energy in the final basis set = -1510.27741592
   14   -1510.2807550120      2.92E-09 Convergence criterion met
 Total energy in the final basis set = -1510.28075501
   14   -1510.2831853396      2.81E-09 Convergence criterion met
   13   -1510.2901123200      4.82E-09 Convergence criterion met
 Total energy in the final basis set = -1510.29011232
   13   -1510.2900747358      2.75E-09 Convergence criterion met
 Total energy in the final basis set = -1510.29007474
   13   -1510.2901918642      5.09E-09 Convergence criterion met
 Total energy in the final basis set = -1510.29019186
   13   -1510.2902263053      3.20E-09 Convergence criterion met
 Total energy in the final basis set = -1510.29022631
   12   -1510.2902370920      4.72E-09 Convergence criterion met
 Total energy in the final basis set = -1510.29023709
   10   -1510.2902383075      9.93E-09 Convergence criterion met
 Total energy in the final basis set = -1510.29023831

             Standard Nuclear Orientation (Angstroms)
    I     Atom           X                Y                Z
 ----------------------------------------------------------------
    1      O       2.7219362549    -1.1962494572    -1.3762659937
    2      C       3.5574020354    -0.4034791329    -1.8661040299
    3      C       4.3114023650     0.7549268005    -1.1336493020
    4      C       3.7479556400     1.0277362617     0.3192964177
    5      C       2.4600392083     0.2022359421     0.6891156595
    6      O       1.3568074767     0.7795510432    -0.0244035342
    7      C       0.1205401106     0.0022364852     0.2207241841
    8      C      -0.5129549029     0.3119468572     1.6297173666
    9      O      -1.9185783202    -0.1600051155     1.6372784962
   10      C      -2.8185776782     0.9476099538     1.4898326655
   11      C      -4.2858863318     0.3915211576     1.3942389393
   12      C      -4.6342582218    -0.3064456191     0.0126137999
   13      C      -3.4468614668    -0.2675946755    -1.0101385523
   14      O      -2.5186322702     0.5735503101    -1.0434572287
   15      O       4.0045676554    -0.4530206517    -3.2231409130
   16      O      -3.5893180441    -1.3304808857    -1.9506894332
   17      O      -2.4795844185     2.1509229241     1.5305350193
   18      C      -2.4661359899    -1.3091258708    -2.9177825532
   19      C      -4.5342245221    -0.8170800274     2.3972164416
   20      C      -6.0922363422    -1.0398357642     2.5393542360
   21      C      -6.4276297003    -1.7329653790     1.1668894168
   22      C      -5.0000074254    -1.7756876102     0.4918382938
   23      O      -4.0834120972    -2.0014693747     1.6311002884
   24      H      -4.9696501713     1.2356065540     1.5914056504
   25      H      -5.5047414874     0.1801723152    -0.4667875913
   26      H      -3.9790767228    -0.7405430635     3.3517942717
   27      H      -6.3088948531    -1.7042614979     3.3908351042
   28      H      -6.6358200167    -0.0923251118     2.6831732128
   29      H      -6.8137460928    -2.7542669367     1.3133750699
   30      H      -7.1551141901    -1.1634509865     0.5668298383
   31      H      -4.8585690340    -2.5499296224    -0.2866087104
   32      O       2.3653912211    -0.7131131060     1.5340906095
   33      C       3.3411144626    -1.5706833155    -3.9346295342
   34      C       5.8010281426     0.3109051670    -0.7934877623
   35      C       6.6117495610     1.5801482491    -0.3151502208
   36      C       6.0574516618     1.7652451725     1.1466427203
   37      C       4.9890248317     0.6059866213     1.2118737823
   38      O       5.6266352608    -0.4873006163     0.4396229000
   39      H       4.2884852618     1.6572498527    -1.7703238478
   40      H       3.5078137767     2.0994031876     0.4402781778
   41      H       2.2446394593    -1.4161540045    -4.0015649324
   42      H       6.2873487232    -0.2894449899    -1.5870085047
   43      H       7.6928636967     1.3687609821    -0.3158388845
   44      H       6.4230982035     2.4557284364    -0.9568531322
   45      H       6.8464149392     1.6045528682     1.8985287129
   46      H       5.6082052469     2.7574162634     1.3113263212
   47      H       4.7149519616     0.2517203518     2.2244997711
   48      H       3.5294962497    -2.5425797716    -3.4346576857
   49      H       3.7745300918    -1.5850637019    -4.9515836947
   50      H      -2.6700820308    -2.1235163441    -3.6369201653
   51      H      -1.4953106141    -1.4936305033    -2.4139863852
   52      H      -2.4086371921    -0.3408000428    -3.4552697459
   53      H       0.0317550304    -0.2274113782     2.4302884938
   54      H      -0.4950295627     1.4074377038     1.8174113607
   55      H       0.3191187226    -1.0863403665     0.1277219592
   56      H      -0.6103468034     0.3153453150    -0.5577130729
 ----------------------------------------------------------------

   10   -1510.2902392542      4.58E-09 Convergence criterion met
 Total energy in the final basis set = -1510.29023925
 Final energy is   -1510.29023925415
 **  OPTIMIZATION CONVERGED  **

                    Orbital Energies (a.u.)
 --------------------------------------------------------------

 Alpha MOs
 -- Occupied --
-18.948 -18.939 -18.918 -18.914 -18.888 -18.887 -18.884 -18.882
-18.863 -18.857 -10.111 -10.103 -10.090 -10.087 -10.072 -10.068
-10.059 -10.059 -10.058 -10.053 -10.049 -10.046 -10.042 -10.037
-10.034 -10.029 -10.020 -10.019 -10.019 -10.017  -1.023  -1.016
 -0.999  -0.993  -0.969  -0.967  -0.946  -0.940  -0.925  -0.920
 -0.763  -0.760  -0.723  -0.721  -0.710  -0.704  -0.682  -0.668
 -0.665  -0.609  -0.595  -0.575  -0.545  -0.541  -0.536  -0.533
 -0.513  -0.507  -0.481  -0.473  -0.465  -0.454  -0.450  -0.439
 -0.433  -0.431  -0.426  -0.417  -0.415  -0.409  -0.409  -0.395
 -0.385  -0.381  -0.374  -0.368  -0.360  -0.355  -0.346  -0.343
 -0.339  -0.336  -0.333  -0.330  -0.325  -0.323  -0.318  -0.312
 -0.309  -0.305  -0.302  -0.298  -0.293  -0.283  -0.279  -0.272
 -0.269  -0.261  -0.255  -0.244  -0.233  -0.231  -0.230  -0.187
 -0.183  -0.173  -0.164  -0.157  -0.149  -0.145  -0.142  -0.142
 -0.137

          Ground-State Mulliken Net Atomic Charges

     Atom                 Charge (a.u.)
  ----------------------------------------
      1 O                    -0.207338
      2 C                     0.215149
      3 C                    -0.077689
      4 C                    -0.081332
      5 C                     0.215542
      6 O                    -0.178348
      7 C                    -0.058992
      8 C                    -0.058413
      9 O                    -0.174216
     10 C                     0.212155
     11 C                    -0.080223
     12 C                    -0.077709
     13 C                     0.218726
     14 O                    -0.212187
     15 O                    -0.169539
     16 O                    -0.165899
     17 O                    -0.216201
     18 C                    -0.128174
     19 C                     0.027008
     20 C                    -0.144366
     21 C                    -0.143957
     22 C                     0.024139
     23 O                    -0.185880
     24 H                     0.083841
     25 H                     0.086118
     26 H                     0.085869
     27 H                     0.078134
     28 H                     0.073524
     29 H                     0.078138
     30 H                     0.072714
     31 H                     0.090394
     32 O                    -0.218196
     33 C                    -0.128179
     34 C                     0.025026
     35 C                    -0.143953
     36 C                    -0.143770
     37 C                     0.024479
     38 O                    -0.189834
     39 H                     0.087302
     40 H                     0.084038
     41 H                     0.088065
     42 H                     0.083847
     43 H                     0.077739
     44 H                     0.073567
     45 H                     0.077666
     46 H                     0.073476
     47 H                     0.089847
     48 H                     0.091821
     49 H                     0.091275
     50 H                     0.093173
     51 H                     0.093320
     52 H                     0.091621
     53 H                     0.091344
     54 H                     0.096206
     55 H                     0.088513
     56 H                     0.100620
  ----------------------------------------
  Sum of atomic charges =    -0.000000

                    Cartesian Multipole Moments
 -----------------------------------------------------------------
    Charge (ESU x 10^10)
                -0.0000
    Dipole Moment (Debye)
         X      -1.2822      Y       0.6180      Z      -2.8326
       Tot       3.1701
    Quadrupole Moments (Debye-Ang)
        XX    -137.2220     XY      10.4641     YY    -165.3458
        XZ      -5.2971     YZ       7.6005     ZZ    -148.6686

 Total job time:  132.43s(wall), 6304.86s(cpu)
        *  Thank you very much for using Q-Chem.  Have a nice day.  *
