 Q-Chem 5.0, Q-Chem, Inc., Pleasanton, CA (2017)
 Q-Chem 5.0.1 for Intel X86 EM64T Linux

User input:
--------------------------------------------------------------
$molecule
0  1
O -3.94934 -3.66094 2.70899
C -3.26408 -4.56952 2.26188
C -3.36658 -6.02376 2.66595
C -2.33723 -6.99443 2.06421
C -1.21193 -6.37442 1.26585
O -0.65827 -7.31077 0.43994
C -0.35215 -6.80217 -0.8627
C -1.34851 -7.34008 -1.88449
O -0.73378 -8.37301 -2.67065
C 0.07806 -7.9418 -3.66771
C 1.28078 -8.83161 -3.8735
C 2.0183 -8.62552 -5.20462
C 1.68094 -7.35397 -5.95698
O 0.92792 -7.27699 -6.91698
O -2.57971 -4.24203 1.133
O 2.17493 -6.19331 -5.44157
O -0.23134 -6.96941 -4.34095
C 1.94233 -4.94105 -5.97086
C 2.44251 -8.68503 -2.87492
C 3.25559 -9.98015 -2.83999
C 3.93812 -9.92887 -4.19277
C 3.4674 -8.5573 -4.68705
O 3.33538 -7.7989 -3.50523
H 0.88896 -9.87433 -3.83297
H 1.83322 -9.46803 -5.90794
H 2.1257 -8.42684 -1.84752
H 4.03034 -9.85796 -2.0491
H 2.67247 -10.90426 -2.63758
H 5.03896 -9.93003 -4.03092
H 3.65525 -10.73892 -4.89946
H 4.16628 -8.15466 -5.45314
O -0.51018 -5.46991 1.70412
C -2.47611 -2.97441 0.59465
C -3.04804 -6.1985 4.16619
C -3.66549 -7.49741 4.68379
C -2.75387 -8.51892 4.03795
C -1.74445 -7.59315 3.35216
O -1.67123 -6.47903 4.20625
H -4.41943 -6.334 2.48191
H -2.82642 -7.76775 1.42905
H -1.99458 -2.28865 1.3243
H -3.38908 -5.34275 4.78959
H -3.50297 -7.52607 5.78516
H -4.74868 -7.62216 4.46924
H -2.25445 -9.10317 4.84269
H -3.24542 -9.20795 3.31744
H -0.78818 -8.13144 3.16812
H -3.48148 -2.58892 0.32094
H -1.85004 -3.01937 -0.31996
H 2.46547 -4.1827 -5.35315
H 0.854 -4.71818 -5.96492
H 2.33167 -4.88727 -7.00999
H -2.25538 -7.72509 -1.37074
H -1.72123 -6.52328 -2.54408
H 0.70842 -6.94066 -1.13293
H -0.48569 -5.69224 -0.88927
$end

$opt
CONSTRAINT
tors           1           2           3           4    -175.351
tors           3           4           5           6    -159.670
tors           4           5           6           7    +138.874
tors           5           6           7           8    -106.597
tors           6           7           8           9    -104.211
tors           7           8           9          10     -79.329
tors           8           9          10          11    +143.881
tors           9          10          11          12    +164.103
tors          11          12          13          14    -101.047
ENDCONSTRAINT
$end

$rem
JOBTYPE                   OPT
METHOD                    B3LYP
DFT_D                     d3_op
BASIS                     STO-3G
GEOM_OPT_MAX_CYCLES       100
GEOM_OPT_TOL_GRADIENT     300
GEOM_OPT_TOL_DISPLACEMENT 1200
GEOM_OPT_TOL_ENERGY       100
SYMMETRY                  False
THRESH                    12
SCF_CONVERGENCE           8
MAX_SUB_FILE_NUM          128
MEM_STATIC                400
MEM_TOTAL                 4000
$end
--------------------------------------------------------------

   16   -1510.1065421860      1.97E-09 Convergence criterion met
 Total energy in the final basis set = -1510.10654219
   13   -1510.1805333804      9.20E-09 Convergence criterion met
 Total energy in the final basis set = -1510.18053338
   14   -1510.2211667264      1.59E-09 Convergence criterion met
 Total energy in the final basis set = -1510.22116673
   13   -1510.2405354725      9.68E-09 Convergence criterion met
 Total energy in the final basis set = -1510.24053547
   13   -1510.2487091099      6.79E-09 Convergence criterion met
 Total energy in the final basis set = -1510.24870911
   13   -1510.2525631645      4.78E-09 Convergence criterion met
 Total energy in the final basis set = -1510.25256316
   13   -1510.2545055179      3.59E-09 Convergence criterion met
 Total energy in the final basis set = -1510.25450552
   13   -1510.2557060128      4.20E-09 Convergence criterion met
    9   -1510.2570828392      9.38E-09 Convergence criterion met
 Total energy in the final basis set = -1510.25708284
    9   -1510.2570911702      5.70E-09 Convergence criterion met
 Total energy in the final basis set = -1510.25709117
    9   -1510.2570966198      8.46E-09 Convergence criterion met
 Total energy in the final basis set = -1510.25709662
    9   -1510.2570996482      7.40E-09 Convergence criterion met
 Total energy in the final basis set = -1510.25709965
    9   -1510.2571016545      4.29E-09 Convergence criterion met
 Total energy in the final basis set = -1510.25710165
    9   -1510.2571071951      2.53E-09 Convergence criterion met
 Total energy in the final basis set = -1510.25710720

             Standard Nuclear Orientation (Angstroms)
    I     Atom           X                Y                Z
 ----------------------------------------------------------------
    1      O       5.5292540329    -2.6041839035     0.0828465803
    2      C       4.6613741549    -1.7173135063    -0.0727835248
    3      C       4.9438184975    -0.2117058076    -0.4178438423
    4      C       3.7278329565     0.7901915266    -0.4677491484
    5      C       2.5646340577     0.4400105557     0.5327675403
    6      O       1.3516147872     1.0909777395     0.0846323152
    7      C       0.1976388093     0.1793723435     0.2392359562
    8      C      -0.2637614534    -0.3547201952    -1.1806215004
    9      O      -1.5000202630     0.2977464659    -1.6686932231
   10      C      -2.6601125754    -0.2792768591    -1.0381981549
   11      C      -3.7211951966     0.8440816155    -0.7886723069
   12      C      -5.1742710777     0.2942223476    -0.4749290007
   13      C      -5.2510035125    -1.2735396449    -0.3377178027
   14      O      -5.6578119547    -2.0719620655    -1.2102467773
   15      O       3.2665102455    -2.0029890702    -0.2376595791
   16      O      -4.9134694248    -1.6487786854     1.0027737132
   17      O      -2.7492497663    -1.4841120703    -0.7121899490
   18      C      -4.9347388276    -3.1226058508     1.1266486433
   19      C      -3.4291236920     1.7040940286     0.5202434927
   20      C      -4.2300099686     3.0590038636     0.3858785971
   21      C      -5.7023503953     2.5602418600     0.6291201357
   22      C      -5.4671405061     1.0217335153     0.9051889446
   23      O      -4.1516649102     0.9844666715     1.5893022497
   24      H      -3.7250793498     1.5020258981    -1.6767154433
   25      H      -5.8860409622     0.5930233388    -1.2646827015
   26      H      -2.3576059854     1.8163290674     0.7744748264
   27      H      -3.9101801937     3.7690965227     1.1653520223
   28      H      -4.0933099542     3.5303013960    -0.6003904556
   29      H      -6.1548503638     3.0462152043     1.5080641693
   30      H      -6.3556400171     2.7266383690    -0.2422636009
   31      H      -6.2388820062     0.5299367152     1.5274775342
   32      O       2.6344460968    -0.2373067889     1.5782487768
   33      C       3.0095624067    -3.4444065680    -0.0234602467
   34      C       5.9711462951     0.5680371986     0.5183751081
   35      C       6.7652026932     1.5572450740    -0.4184970406
   36      C       5.6180810832     2.5644242984    -0.8063986657
   37      C       4.4429900043     2.0820158098     0.1359954686
   38      O       5.1308257991     1.4948931703     1.3124191806
   39      H       5.3799660776    -0.2552186522    -1.4349063457
   40      H       3.3203314740     0.9365046140    -1.4824698507
   41      H       3.2103096456    -3.7404243456     1.0264341586
   42      H       6.5844775600    -0.0771911523     1.1768657162
   43      H       7.5648641537     2.0608633877     0.1484137048
   44      H       7.2107710706     1.0530030093    -1.2908961909
   45      H       5.8942577636     3.6062633636    -0.5804320775
   46      H       5.3386780761     2.4965197167    -1.8702865793
   47      H       3.7416011692     2.8782161148     0.4535528341
   48      H       3.6297906714    -4.0747019260    -0.6930845041
   49      H       1.9386619075    -3.5998997636    -0.2506433778
   50      H      -4.7127372572    -3.3436265680     2.1868420706
   51      H      -4.1632443472    -3.5885591825     0.4800486634
   52      H      -5.9248269879    -3.5441186674     0.8567925217
   53      H       0.5229546410    -0.1205716170    -1.9265529846
   54      H      -0.4056898293    -1.4565574081    -1.1371734856
   55      H      -0.6361879894     0.7457471407     0.7061734384
   56      H       0.4609629270    -0.6663929862     0.9093817654
 ----------------------------------------------------------------

    8   -1510.2571074354      9.01E-09 Convergence criterion met
 Total energy in the final basis set = -1510.25710744
 Final energy is   -1510.25710743543
 **  OPTIMIZATION CONVERGED  **

                    Orbital Energies (a.u.)
 --------------------------------------------------------------

 Alpha MOs
 -- Occupied --
-18.937 -18.931 -18.921 -18.918 -18.894 -18.891 -18.890 -18.887
-18.875 -18.858 -10.109 -10.103 -10.103 -10.089 -10.075 -10.073
-10.067 -10.065 -10.064 -10.062 -10.060 -10.052 -10.042 -10.041
-10.040 -10.034 -10.024 -10.023 -10.022 -10.021  -1.018  -1.015
 -1.006  -0.997  -0.973  -0.972  -0.946  -0.939  -0.934  -0.923
 -0.766  -0.764  -0.728  -0.724  -0.714  -0.708  -0.698  -0.664
 -0.651  -0.622  -0.601  -0.582  -0.549  -0.548  -0.540  -0.538
 -0.517  -0.509  -0.489  -0.475  -0.466  -0.461  -0.452  -0.442
 -0.436  -0.435  -0.422  -0.418  -0.412  -0.410  -0.407  -0.401
 -0.394  -0.383  -0.378  -0.367  -0.363  -0.359  -0.354  -0.350
 -0.347  -0.342  -0.337  -0.333  -0.332  -0.326  -0.322  -0.316
 -0.313  -0.310  -0.306  -0.301  -0.297  -0.293  -0.281  -0.276
 -0.275  -0.260  -0.252  -0.243  -0.242  -0.236  -0.235  -0.189
 -0.178  -0.166  -0.161  -0.161  -0.157  -0.153  -0.147  -0.146
 -0.139

          Ground-State Mulliken Net Atomic Charges

     Atom                 Charge (a.u.)
  ----------------------------------------
      1 O                    -0.214402
      2 C                     0.211652
      3 C                    -0.080001
      4 C                    -0.077123
      5 C                     0.222110
      6 O                    -0.187766
      7 C                    -0.051677
      8 C                    -0.052287
      9 O                    -0.178179
     10 C                     0.213067
     11 C                    -0.079555
     12 C                    -0.081201
     13 C                     0.212257
     14 O                    -0.221159
     15 O                    -0.172636
     16 O                    -0.167478
     17 O                    -0.199341
     18 C                    -0.126993
     19 C                     0.026148
     20 C                    -0.142429
     21 C                    -0.144827
     22 C                     0.026909
     23 O                    -0.184979
     24 H                     0.087416
     25 H                     0.083735
     26 H                     0.079855
     27 H                     0.078918
     28 H                     0.074726
     29 H                     0.078300
     30 H                     0.074037
     31 H                     0.087265
     32 O                    -0.195329
     33 C                    -0.127842
     34 C                     0.025823
     35 C                    -0.141151
     36 C                    -0.145576
     37 C                     0.024529
     38 O                    -0.188109
     39 H                     0.084408
     40 H                     0.085628
     41 H                     0.092119
     42 H                     0.089790
     43 H                     0.078938
     44 H                     0.074291
     45 H                     0.079211
     46 H                     0.073691
     47 H                     0.084596
     48 H                     0.090647
     49 H                     0.088959
     50 H                     0.087712
     51 H                     0.091389
     52 H                     0.085911
     53 H                     0.093226
     54 H                     0.092273
     55 H                     0.083541
     56 H                     0.096966
  ----------------------------------------
  Sum of atomic charges =     0.000000

                    Cartesian Multipole Moments
 -----------------------------------------------------------------
    Charge (ESU x 10^10)
                 0.0000
    Dipole Moment (Debye)
         X       0.1207      Y       1.8473      Z      -2.0412
       Tot       2.7557
    Quadrupole Moments (Debye-Ang)
        XX    -159.5186     XY      -3.2426     YY    -154.3010
        XZ     -13.8007     YZ      -5.1619     ZZ    -166.1127

 Total job time:  60.19s(wall), 2857.61s(cpu)
        *  Thank you very much for using Q-Chem.  Have a nice day.  *
