 Q-Chem 5.0, Q-Chem, Inc., Pleasanton, CA (2017)
 Q-Chem 5.0.1 for Intel X86 EM64T Linux

User input:
--------------------------------------------------------------
$molecule
0  1
O 5.5292540329 -2.6041839035 0.0828465803
C 4.6613741549 -1.7173135063 -0.0727835248
C 4.9438184975 -0.2117058076 -0.4178438423
C 3.7278329565 0.7901915266 -0.4677491484
C 2.5646340577 0.4400105557 0.5327675403
O 1.3516147872 1.0909777395 0.0846323152
C 0.1976388093 0.1793723435 0.2392359562
C -0.2637614534 -0.3547201952 -1.1806215004
O -1.500020263 0.2977464659 -1.6686932231
C -2.6601125754 -0.2792768591 -1.0381981549
C -3.7211951966 0.8440816155 -0.7886723069
C -5.1742710777 0.2942223476 -0.4749290007
C -5.2510035125 -1.2735396449 -0.3377178027
O -5.6578119547 -2.0719620655 -1.2102467773
O 3.2665102455 -2.0029890702 -0.2376595791
O -4.9134694248 -1.6487786854 1.0027737132
O -2.7492497663 -1.4841120703 -0.712189949
C -4.9347388276 -3.1226058508 1.1266486433
C -3.429123692 1.7040940286 0.5202434927
C -4.2300099686 3.0590038636 0.3858785971
C -5.7023503953 2.56024186 0.6291201357
C -5.4671405061 1.0217335153 0.9051889446
O -4.1516649102 0.9844666715 1.5893022497
H -3.7250793498 1.5020258981 -1.6767154433
H -5.8860409622 0.5930233388 -1.2646827015
H -2.3576059854 1.8163290674 0.7744748264
H -3.9101801937 3.7690965227 1.1653520223
H -4.0933099542 3.530301396 -0.6003904556
H -6.1548503638 3.0462152043 1.5080641693
H -6.3556400171 2.726638369 -0.2422636009
H -6.2388820062 0.5299367152 1.5274775342
O 2.6344460968 -0.2373067889 1.5782487768
C 3.0095624067 -3.444406568 -0.0234602467
C 5.9711462951 0.5680371986 0.5183751081
C 6.7652026932 1.557245074 -0.4184970406
C 5.6180810832 2.5644242984 -0.8063986657
C 4.4429900043 2.0820158098 0.1359954686
O 5.1308257991 1.4948931703 1.3124191806
H 5.3799660776 -0.2552186522 -1.4349063457
H 3.320331474 0.936504614 -1.4824698507
H 3.2103096456 -3.7404243456 1.0264341586
H 6.58447756 -0.0771911523 1.1768657162
H 7.5648641537 2.0608633877 0.1484137048
H 7.2107710706 1.0530030093 -1.2908961909
H 5.8942577636 3.6062633636 -0.5804320775
H 5.3386780761 2.4965197167 -1.8702865793
H 3.7416011692 2.8782161148 0.4535528341
H 3.6297906714 -4.074701926 -0.6930845041
H 1.9386619075 -3.5998997636 -0.2506433778
H -4.7127372572 -3.343626568 2.1868420706
H -4.1632443472 -3.5885591825 0.4800486634
H -5.9248269879 -3.5441186674 0.8567925217
H 0.522954641 -0.120571617 -1.9265529846
H -0.4056898293 -1.4565574081 -1.1371734856
H -0.6361879894 0.7457471407 0.7061734384
H 0.460962927 -0.6663929862 0.9093817654
$end

$rem
JOBTYPE                   OPT
METHOD                    B3LYP
DFT_D                     d3_op
BASIS                     STO-3G
GEOM_OPT_MAX_CYCLES       100
GEOM_OPT_TOL_GRADIENT     300
GEOM_OPT_TOL_DISPLACEMENT 1200
GEOM_OPT_TOL_ENERGY       100
SYMMETRY                  False
THRESH                    12
SCF_CONVERGENCE           8
MAX_SUB_FILE_NUM          128
MEM_STATIC                400
MEM_TOTAL                 4000
$end
--------------------------------------------------------------

   16   -1510.2571253572      5.68E-09 Convergence criterion met
 Total energy in the final basis set = -1510.25712536
   14   -1510.2639774661      2.95E-09 Convergence criterion met
 Total energy in the final basis set = -1510.26397747
   14   -1510.2697344665      2.78E-09 Convergence criterion met
 Total energy in the final basis set = -1510.26973447
   14   -1510.2738229413      3.60E-09 Convergence criterion met
 Total energy in the final basis set = -1510.27382294
   14   -1510.2769621196      3.39E-09 Convergence criterion met
 Total energy in the final basis set = -1510.27696212
   14   -1510.2794849295      4.86E-09 Convergence criterion met
 Total energy in the final basis set = -1510.27948493
   14   -1510.2812224766      3.92E-09 Convergence criterion met
 Total energy in the final basis set = -1510.28122248
   13   -1510.2825280119      5.72E-09 Convergence criterion met
   11   -1510.3069357912      9.76E-09 Convergence criterion met
 Total energy in the final basis set = -1510.30693579
   11   -1510.3069872403      4.75E-09 Convergence criterion met
 Total energy in the final basis set = -1510.30698724
   11   -1510.3070331558      9.48E-09 Convergence criterion met
 Total energy in the final basis set = -1510.30703316
   11   -1510.3070515972      8.40E-09 Convergence criterion met
 Total energy in the final basis set = -1510.30705160
   11   -1510.3070793399      5.93E-09 Convergence criterion met
 Total energy in the final basis set = -1510.30707934
   11   -1510.3070906681      7.34E-09 Convergence criterion met
 Total energy in the final basis set = -1510.30709067

             Standard Nuclear Orientation (Angstroms)
    I     Atom           X                Y                Z
 ----------------------------------------------------------------
    1      O       3.7919767836    -0.4457401123    -1.8432361062
    2      C       2.6195724489    -0.1186672697    -1.5712702361
    3      C       2.1198810833     0.9124071697    -0.4982697477
    4      C       1.3587478771     0.2538442653     0.7212350302
    5      C       1.3187801950    -1.2988940264     0.6336585291
    6      O       0.3321555456    -1.7800432512     1.5552025915
    7      C       0.0986774096    -3.2240430520     1.3401097022
    8      C      -0.5957039991    -3.4985129136    -0.0672525199
    9      O      -0.9075462140    -2.2516652192    -0.8090683197
   10      C      -1.9361432883    -1.5148906934    -0.1380704723
   11      C      -2.3361964535    -0.2652933988    -0.9979991640
   12      C      -3.0195499656     0.8766052135    -0.1362318702
   13      C      -2.8880252625     0.6537377428     1.4123298540
   14      O      -3.8177924534     0.5612185924     2.2413396191
   15      O       1.4708610779    -0.5616806638    -2.3290694071
   16      O      -1.4951857819     0.6427714176     1.7650466500
   17      O      -2.4698125142    -1.8792888295     0.9333999970
   18      C      -1.3448813723     0.3144538854     3.1994201394
   19      C      -1.1436115252     0.5265324688    -1.6897455982
   20      C      -1.7588326617     1.3512113404    -2.8849881776
   21      C      -2.5585453928     2.4671612351    -2.1125054794
   22      C      -2.1797585216     2.1359759678    -0.6141222059
   23      O      -0.8086401624     1.5915481871    -0.7134757314
   24      H      -3.0393723195    -0.6308319981    -1.7707178907
   25      H      -4.0939329525     0.9772017247    -0.3685833706
   26      H      -0.2262585237    -0.0654501648    -1.9332655533
   27      H      -0.9533556720     1.7885368775    -3.4963697458
   28      H      -2.4011281339     0.7378562058    -3.5366853420
   29      H      -2.2146827008     3.4776994447    -2.3847244634
   30      H      -3.6453859807     2.4074954330    -2.2831702687
   31      H      -2.2080660105     2.9971365689     0.0814148687
   32      O       2.0039039938    -2.0464002882    -0.1012719448
   33      C       1.8416128831    -1.6577718961    -3.2453567061
   34      C       3.3211225243     1.6307685847     0.2424135663
   35      C       2.7578717683     2.9242707822     0.9510962063
   36      C       1.9606721125     2.2904298832     2.1510138407
   37      C       2.2541018177     0.7530913452     1.9333532644
   38      O       3.6254614746     0.7259286576     1.3765468190
   39      H       1.4416313144     1.6323445161    -0.9923015107
   40      H       0.3124746983     0.6253324451     0.7862462923
   41      H       2.1920791189    -2.5438694300    -2.6771220797
   42      H       4.2223113334     1.7765113240    -0.3843658836
   43      H       3.5854526530     3.5582557058     1.3072594756
   44      H       2.1163204242     3.5195744717     0.2821938566
   45      H       2.3522620531     2.6291579923     3.1235013496
   46      H       0.8817392848     2.5086959280     2.1043825810
   47      H       2.1927883517     0.1251726661     2.8436182865
   48      H       2.6380860035    -1.3491809093    -3.9531029704
   49      H       0.9236942383    -1.9147673156    -3.8055514180
   50      H      -0.2582476041     0.2773587265     3.3925104842
   51      H      -1.7955132128    -0.6716779821     3.4306086561
   52      H      -1.8149742285     1.0834431311     3.8462081950
   53      H       0.0960165093    -4.0503524507    -0.7327413057
   54      H      -1.5178157071    -4.0982030843     0.0875269230
   55      H      -0.5731204664    -3.5318228551     2.1643783096
   56      H       1.0496419055    -3.7950814766     1.3997613418
 ----------------------------------------------------------------

   10   -1510.3070905025      8.34E-09 Convergence criterion met
 Total energy in the final basis set = -1510.30709050
 Final energy is   -1510.30709050246
 **  OPTIMIZATION CONVERGED  **

                    Orbital Energies (a.u.)
 --------------------------------------------------------------

 Alpha MOs
 -- Occupied --
-18.944 -18.936 -18.929 -18.926 -18.889 -18.882 -18.878 -18.877
-18.869 -18.866 -10.107 -10.098 -10.095 -10.092 -10.078 -10.075
-10.063 -10.058 -10.057 -10.052 -10.049 -10.044 -10.039 -10.036
-10.022 -10.021 -10.017 -10.017 -10.012 -10.011  -1.026  -1.010
 -1.004  -0.999  -0.972  -0.961  -0.944  -0.937  -0.930  -0.928
 -0.764  -0.753  -0.726  -0.719  -0.710  -0.701  -0.691  -0.656
 -0.655  -0.621  -0.596  -0.577  -0.545  -0.539  -0.538  -0.530
 -0.512  -0.502  -0.482  -0.476  -0.466  -0.458  -0.444  -0.440
 -0.428  -0.427  -0.421  -0.418  -0.410  -0.407  -0.405  -0.403
 -0.393  -0.378  -0.371  -0.367  -0.361  -0.355  -0.348  -0.343
 -0.343  -0.341  -0.332  -0.329  -0.324  -0.322  -0.317  -0.313
 -0.305  -0.304  -0.299  -0.297  -0.292  -0.285  -0.278  -0.273
 -0.268  -0.260  -0.249  -0.246  -0.244  -0.234  -0.221  -0.196
 -0.173  -0.172  -0.168  -0.161  -0.154  -0.147  -0.146  -0.142
 -0.136

          Ground-State Mulliken Net Atomic Charges

     Atom                 Charge (a.u.)
  ----------------------------------------
      1 O                    -0.210885
      2 C                     0.220163
      3 C                    -0.085061
      4 C                    -0.092972
      5 C                     0.213152
      6 O                    -0.170841
      7 C                    -0.050223
      8 C                    -0.050858
      9 O                    -0.167846
     10 C                     0.214645
     11 C                    -0.080322
     12 C                    -0.080311
     13 C                     0.214109
     14 O                    -0.212185
     15 O                    -0.178574
     16 O                    -0.173082
     17 O                    -0.212354
     18 C                    -0.125956
     19 C                     0.005197
     20 C                    -0.144140
     21 C                    -0.144954
     22 C                     0.025923
     23 O                    -0.196066
     24 H                     0.084461
     25 H                     0.084810
     26 H                     0.117237
     27 H                     0.076410
     28 H                     0.071385
     29 H                     0.076519
     30 H                     0.073351
     31 H                     0.081278
     32 O                    -0.214327
     33 C                    -0.125869
     34 C                     0.024316
     35 C                    -0.143053
     36 C                    -0.144021
     37 C                     0.023439
     38 O                    -0.191386
     39 H                     0.094938
     40 H                     0.120265
     41 H                     0.093790
     42 H                     0.086381
     43 H                     0.075426
     44 H                     0.074460
     45 H                     0.074185
     46 H                     0.077695
     47 H                     0.077950
     48 H                     0.088421
     49 H                     0.086839
     50 H                     0.090289
     51 H                     0.094214
     52 H                     0.085316
     53 H                     0.094582
     54 H                     0.088701
     55 H                     0.094564
     56 H                     0.090871
  ----------------------------------------
  Sum of atomic charges =    -0.000000

                    Cartesian Multipole Moments
 -----------------------------------------------------------------
    Charge (ESU x 10^10)
                -0.0000
    Dipole Moment (Debye)
         X      -2.0939      Y       0.0317      Z      -1.3937
       Tot       2.5156
    Quadrupole Moments (Debye-Ang)
        XX    -180.0263     XY       1.9355     YY    -146.2490
        XZ       9.6536     YZ       0.0844     ZZ    -153.4322

 Total job time:  166.47s(wall), 7934.91s(cpu)
        *  Thank you very much for using Q-Chem.  Have a nice day.  *
