 Q-Chem 5.0, Q-Chem, Inc., Pleasanton, CA (2017)
 Q-Chem 5.0.1 for Intel X86 EM64T Linux

User input:
--------------------------------------------------------------
$molecule
0  1
O 4.1208272867 -3.0134519418 -0.308192725
C 3.9244553615 -1.8033213205 -0.5531507348
C 4.9777914425 -0.6464672178 -0.3941696098
C 4.4703327253 0.8428668285 -0.6190190122
C 2.9527831281 1.0122836631 -1.0030890046
O 2.1337590802 0.9883733759 0.1883245839
C 0.9506531082 1.8551821217 0.0070964194
C -0.2913235657 1.1355558209 0.6390227959
O -1.0413469667 0.5061890256 -0.4750684868
C -2.2646836968 -0.0902447485 0.0325443414
C -3.515392855 0.5870162567 -0.6222648309
C -4.8449657355 -0.2722649396 -0.5483917733
C -4.7147291829 -1.5756059858 0.3238416792
O -5.0414498322 -1.7259941138 1.5196045679
O 2.6964886031 -1.2852790087 -1.0564632507
O -4.1917106306 -2.6161024428 -0.5142090509
O -2.2820554452 -0.9999787539 0.889913433
C -3.971680999 -3.8404928366 0.287525188
C -3.9647220121 1.9090456866 0.1510131465
C -4.8560028452 2.7579640568 -0.8385238666
C -6.1823878013 1.9108645197 -0.8476858661
C -5.8181954685 0.7554704456 0.1651400934
O -4.9318936612 1.4185707858 1.1535591736
H -3.2537387029 0.8302372046 -1.6678398175
H -5.1888856269 -0.5536673699 -1.5594275042
H -3.1421637852 2.4663115034 0.6389917154
H -5.0244176442 3.7672636377 -0.4299910848
H -4.399174241 2.8508722187 -1.836632891
H -7.038086254 2.4956429724 -0.4749309802
H -6.4300267912 1.5199968738 -1.8475928011
H -6.6766083732 0.2834174017 0.6809199558
O 2.5283966825 1.3499777978 -2.1304374734
C 1.638921639 -2.3165999211 -1.1160474277
C 5.4950737906 -0.5664586427 1.1080707039
C 6.8632861745 0.221592278 1.1216091423
C 6.3650939853 1.6964857012 0.8941233711
C 4.8028783187 1.480481121 0.7973712434
O 4.5455655398 0.3728199509 1.7460909626
H 5.8149528115 -0.8790121318 -1.0784933212
H 5.0493118722 1.3212687314 -1.4288094465
H 1.5654808382 -2.8761703256 -0.1618467923
H 5.5013560972 -1.5400864674 1.6359068828
H 7.3618397614 0.1096477667 2.0976113347
H 7.5502391246 -0.1243384118 0.3327493136
H 6.6107644495 2.342298763 1.7520855077
H 6.7788469375 2.150903668 -0.0202531689
H 4.1870684286 2.3623833952 1.0579954679
H 1.8260887734 -3.0358649648 -1.9398817227
H 0.6957367895 -1.7688174153 -1.3037207374
H -3.5768424004 -4.5997739293 -0.4125041008
H -4.9143642573 -4.2092633948 0.7412967677
H -3.2356038552 -3.6623131844 1.0980536674
H 0.0545765239 0.3850387147 1.3863594528
H -0.9307955222 1.8790392527 1.1656797533
H 0.777005852 2.0425279268 -1.0755932998
H 1.1312747109 2.8217536593 0.5277807286
$end

$rem
JOBTYPE                   OPT
METHOD                    B3LYP
DFT_D                     d3_op
BASIS                     STO-3G
GEOM_OPT_MAX_CYCLES       100
GEOM_OPT_TOL_GRADIENT     300
GEOM_OPT_TOL_DISPLACEMENT 1200
GEOM_OPT_TOL_ENERGY       100
SYMMETRY                  False
THRESH                    12
SCF_CONVERGENCE           8
MAX_SUB_FILE_NUM          128
MEM_STATIC                400
MEM_TOTAL                 4000
$end
--------------------------------------------------------------

   16   -1510.2597023815      5.65E-09 Convergence criterion met
 Total energy in the final basis set = -1510.25970238
   14   -1510.2668616363      9.65E-09 Convergence criterion met
 Total energy in the final basis set = -1510.26686164
   15   -1510.2712957305      4.86E-09 Convergence criterion met
 Total energy in the final basis set = -1510.27129573
   14   -1510.2762013729      3.47E-09 Convergence criterion met
 Total energy in the final basis set = -1510.27620137
   14   -1510.2802962523      6.16E-09 Convergence criterion met
 Total energy in the final basis set = -1510.28029625
   14   -1510.2834989889      6.95E-09 Convergence criterion met
 Total energy in the final basis set = -1510.28349899
   14   -1510.2850828076      8.21E-09 Convergence criterion met
 Total energy in the final basis set = -1510.28508281
   14   -1510.2855631922      2.27E-09 Convergence criterion met
   12   -1510.3049163288      4.21E-09 Convergence criterion met
 Total energy in the final basis set = -1510.30491633
   12   -1510.3049166915      5.61E-09 Convergence criterion met
 Total energy in the final basis set = -1510.30491669
   11   -1510.3049195720      8.46E-09 Convergence criterion met
 Total energy in the final basis set = -1510.30491957
   10   -1510.3049221902      6.82E-09 Convergence criterion met
 Total energy in the final basis set = -1510.30492219
   10   -1510.3049062401      5.10E-09 Convergence criterion met
 Total energy in the final basis set = -1510.30490624
   11   -1510.3049043505      3.89E-09 Convergence criterion met
 Total energy in the final basis set = -1510.30490435

             Standard Nuclear Orientation (Angstroms)
    I     Atom           X                Y                Z
 ----------------------------------------------------------------
    1      O       0.4751845826     0.2213441620    -2.0538467250
    2      C       1.4947422104     0.7094953191    -1.5107619331
    3      C       2.6438867146    -0.1206807550    -0.8419842974
    4      C       3.4807891904     0.6037947080     0.2941040627
    5      C       2.9048726395     1.9934151025     0.7445755336
    6      O       1.5734247537     1.7953156143     1.2433464328
    7      C       0.9724304106     3.0946278687     1.6227047590
    8      C      -0.5645802498     2.8437025978     1.7741252804
    9      O      -1.1321877305     2.3042634643     0.5134676129
   10      C      -1.4385367408     0.9023321958     0.6695446015
   11      C      -2.0178025526     0.3640818737    -0.6756503157
   12      C      -2.4859243830    -1.1453368225    -0.5924390973
   13      C      -2.1006629396    -1.8772324988     0.7419872914
   14      O      -2.8383183127    -2.1526513590     1.7119542949
   15      O       1.7864237985     2.1021010301    -1.4714750006
   16      O      -0.7345031351    -2.2949521408     0.6059687030
   17      O      -1.2625149831     0.2758689762     1.7367876936
   18      C      -0.2168372626    -2.8442832948     1.8819768168
   19      C      -3.3877863608     1.0780464261    -1.0332879601
   20      C      -3.7863981985     0.7016747271    -2.5156882782
   21      C      -4.3227999343    -0.7669977819    -2.3275993035
   22      C      -4.0517696150    -0.9890357151    -0.7892522644
   23      O      -4.3625584869     0.3357684178    -0.2000496012
   24      H      -1.2281612612     0.4887688323    -1.4492063388
   25      H      -2.0337233594    -1.7163552582    -1.4230114711
   26      H      -3.4120917646     2.1594359152    -0.7958781289
   27      H      -4.5725378589     1.3770694960    -2.8888909912
   28      H      -2.9217763207     0.7525304764    -3.1964969031
   29      H      -5.4015184122    -0.8311803756    -2.5424376758
   30      H      -3.7914586746    -1.4993321594    -2.9559352025
   31      H      -4.6557563854    -1.7778995810    -0.3006571593
   32      O       3.5014450038     3.0913311175     0.7529872980
   33      C       0.5922544620     2.8889780165    -1.8763872790
   34      C       2.0613206784    -1.3734554016    -0.0532978543
   35      C       3.2047198157    -2.4519589275     0.0517614050
   36      C       4.1734684956    -1.7594973897     1.0826761821
   37      C       3.3503207233    -0.4636751026     1.4648376096
   38      O       1.9396503955    -0.8913331363     1.3434410658
   39      H       3.3180575596    -0.4586940885    -1.6514935793
   40      H       4.5289816716     0.7607814237    -0.0152527242
   41      H       0.1992598949     2.5492629981    -2.8550239088
   42      H       1.0674258213    -1.7309684239    -0.3977372433
   43      H       2.8007031376    -3.3955167541     0.4523447054
   44      H       3.6844047698    -2.6553944506    -0.9187566958
   45      H       4.3392239180    -2.3885928782     1.9717037899
   46      H       5.1516150199    -1.5078472758     0.6425485657
   47      H       3.5501781939    -0.0605992505     2.4764638965
   48      H       0.9335620285     3.9370043413    -1.9525027246
   49      H      -0.1978992890     2.7912155382    -1.0923376345
   50      H       0.6913256346    -2.2547095696     2.1347534993
   51      H       0.0473718145    -3.9110157119     1.7385152419
   52      H      -0.9899631312    -2.7551918664     2.6697315084
   53      H      -0.7478274263     2.0998830574     2.5793206153
   54      H      -1.0841932602     3.7978574539     1.9997241750
   55      H       1.1808260965     3.8644851885     0.8496412991
   56      H       1.3852564525     3.4600074008     2.5898656392
 ----------------------------------------------------------------

    9   -1510.3049075242      9.40E-09 Convergence criterion met
 Total energy in the final basis set = -1510.30490752
 Final energy is   -1510.30490752421
 **  OPTIMIZATION CONVERGED  **

                    Orbital Energies (a.u.)
 --------------------------------------------------------------

 Alpha MOs
 -- Occupied --
-18.948 -18.941 -18.928 -18.910 -18.893 -18.889 -18.886 -18.879
-18.869 -18.855 -10.112 -10.103 -10.099 -10.084 -10.075 -10.074
-10.064 -10.058 -10.055 -10.054 -10.050 -10.043 -10.040 -10.031
-10.024 -10.023 -10.023 -10.021 -10.015 -10.013  -1.025  -1.018
 -1.006  -0.989  -0.974  -0.963  -0.946  -0.944  -0.932  -0.916
 -0.766  -0.756  -0.730  -0.721  -0.711  -0.704  -0.693  -0.664
 -0.642  -0.616  -0.598  -0.574  -0.547  -0.540  -0.538  -0.531
 -0.517  -0.506  -0.492  -0.479  -0.470  -0.452  -0.448  -0.442
 -0.435  -0.426  -0.420  -0.416  -0.412  -0.409  -0.406  -0.396
 -0.391  -0.383  -0.373  -0.369  -0.360  -0.354  -0.351  -0.347
 -0.340  -0.340  -0.334  -0.328  -0.326  -0.323  -0.319  -0.314
 -0.309  -0.307  -0.306  -0.297  -0.294  -0.285  -0.280  -0.271
 -0.266  -0.256  -0.251  -0.250  -0.239  -0.228  -0.227  -0.190
 -0.177  -0.174  -0.166  -0.161  -0.156  -0.149  -0.145  -0.138
 -0.137

          Ground-State Mulliken Net Atomic Charges

     Atom                 Charge (a.u.)
  ----------------------------------------
      1 O                    -0.218772
      2 C                     0.220022
      3 C                    -0.079334
      4 C                    -0.078437
      5 C                     0.215847
      6 O                    -0.174659
      7 C                    -0.048246
      8 C                    -0.054024
      9 O                    -0.177624
     10 C                     0.219323
     11 C                    -0.091897
     12 C                    -0.081784
     13 C                     0.217651
     14 O                    -0.218277
     15 O                    -0.166040
     16 O                    -0.181414
     17 O                    -0.196543
     18 C                    -0.144114
     19 C                     0.022771
     20 C                    -0.144196
     21 C                    -0.143042
     22 C                     0.023917
     23 O                    -0.191573
     24 H                     0.110729
     25 H                     0.084844
     26 H                     0.082333
     27 H                     0.075796
     28 H                     0.074649
     29 H                     0.076264
     30 H                     0.073328
     31 H                     0.087216
     32 O                    -0.217629
     33 C                    -0.143846
     34 C                     0.019770
     35 C                    -0.143761
     36 C                    -0.145193
     37 C                     0.026318
     38 O                    -0.185130
     39 H                     0.086190
     40 H                     0.085298
     41 H                     0.087344
     42 H                     0.106700
     43 H                     0.078558
     44 H                     0.073479
     45 H                     0.077964
     46 H                     0.073967
     47 H                     0.083487
     48 H                     0.088222
     49 H                     0.107984
     50 H                     0.103430
     51 H                     0.072349
     52 H                     0.097029
     53 H                     0.108278
     54 H                     0.087919
     55 H                     0.090505
     56 H                     0.086054
  ----------------------------------------
  Sum of atomic charges =    -0.000000

                    Cartesian Multipole Moments
 -----------------------------------------------------------------
    Charge (ESU x 10^10)
                -0.0000
    Dipole Moment (Debye)
         X       2.3227      Y       0.6309      Z      -1.9594
       Tot       3.1036
    Quadrupole Moments (Debye-Ang)
        XX    -164.4740     XY     -11.4182     YY    -154.3439
        XZ       8.2151     YZ       3.2317     ZZ    -157.4040

 Total job time:  231.84s(wall), 11051.53s(cpu)
        *  Thank you very much for using Q-Chem.  Have a nice day.  *
