 Q-Chem 5.0, Q-Chem, Inc., Pleasanton, CA (2017)
 Q-Chem 5.0.1 for Intel X86 EM64T Linux

User input:
--------------------------------------------------------------
$molecule
0  1
O -3.94934 -3.66094 2.70899
C -3.26408 -4.56952 2.26188
C -3.36658 -6.02376 2.66595
C -2.31529 -6.98809 2.09262
C -1.17432 -6.36143 1.32217
O -0.21044 -5.9309 2.18878
C 1.11187 -6.01366 1.64665
C 1.92081 -4.78327 2.044
O 1.9518 -3.84574 0.95636
C 2.7226 -2.74772 1.15477
C 3.85705 -2.63837 0.16396
C 4.45334 -1.23102 0.01538
C 4.09018 -0.24119 1.10398
O 4.7758 0.02016 2.08182
O -2.41057 -4.19968 1.2702
O 2.85709 0.32117 1.00016
O 2.82829 -2.27737 2.28155
C 2.33037 1.21311 1.91057
C 5.10724 -3.44824 0.56182
C 5.92949 -3.76459 -0.68603
C 6.46744 -2.3899 -1.02314
C 5.94783 -1.59193 0.17912
O 5.92796 -2.52623 1.23014
H 3.4763 -3.02343 -0.80989
H 4.26708 -0.74598 -0.968
H 4.87736 -4.38449 1.11122
H 6.77791 -4.40829 -0.35964
H 5.38056 -4.27376 -1.5072
H 7.57906 -2.43798 -1.0174
H 6.10768 -1.9597 -1.98284
H 6.58134 -0.69163 0.34154
O -1.00407 -6.56311 0.12521
C -2.22828 -2.91223 0.80608
C -3.13101 -6.23996 4.17707
C -3.82122 -7.52707 4.62696
C -2.92818 -8.56754 3.98161
C -1.83583 -7.66709 3.3929
O -1.77157 -6.58357 4.28858
H -4.40726 -6.33379 2.42051
H -2.79389 -7.71819 1.40172
H -1.86798 -2.25744 1.62802
H -3.47154 -5.38562 4.80214
H -3.69788 -7.59198 5.73202
H -4.90087 -7.60544 4.37591
H -2.5124 -9.21881 4.78222
H -3.41264 -9.18942 3.19801
H -0.89472 -8.2408 3.24301
H -3.18051 -2.51407 0.39526
H -1.46699 -2.92233 -0.00079
H 1.31402 1.51136 1.58117
H 2.96847 2.12066 1.97001
H 2.25674 0.73877 2.91254
H 1.55783 -4.34858 3.00239
H 2.9684 -5.12536 2.19804
H 1.24562 -6.28214 0.5747
H 1.56931 -6.85348 2.21464
$end

$opt
CONSTRAINT
tors           1           2           3           4    -173.823
tors           3           4           5           6     +82.957
tors           4           5           6           7    +147.842
tors           5           6           7           8    +139.712
tors           6           7           8           9     -99.886
tors           7           8           9          10    -175.539
tors           8           9          10          11    +118.189
tors           9          10          11          12    +159.904
tors          11          12          13          14     +96.539
ENDCONSTRAINT
$end

$rem
JOBTYPE                   OPT
METHOD                    B3LYP
DFT_D                     d3_op
BASIS                     STO-3G
GEOM_OPT_MAX_CYCLES       100
GEOM_OPT_TOL_GRADIENT     300
GEOM_OPT_TOL_DISPLACEMENT 1200
GEOM_OPT_TOL_ENERGY       100
SYMMETRY                  False
THRESH                    12
SCF_CONVERGENCE           8
MAX_SUB_FILE_NUM          128
MEM_STATIC                400
MEM_TOTAL                 4000
$end
--------------------------------------------------------------

   16   -1510.1161597081      1.15E-09 Convergence criterion met
 Total energy in the final basis set = -1510.11615971
   13   -1510.1884580702      9.30E-09 Convergence criterion met
 Total energy in the final basis set = -1510.18845807
   14   -1510.2275927628      3.11E-09 Convergence criterion met
 Total energy in the final basis set = -1510.22759276
   14   -1510.2456070344      4.07E-09 Convergence criterion met
 Total energy in the final basis set = -1510.24560703
   13   -1510.2529641026      9.46E-09 Convergence criterion met
 Total energy in the final basis set = -1510.25296410
   13   -1510.2564570200      5.31E-09 Convergence criterion met
 Total energy in the final basis set = -1510.25645702
   13   -1510.2581317190      6.02E-09 Convergence criterion met
 Total energy in the final basis set = -1510.25813172
   13   -1510.2589177311      3.43E-09 Convergence criterion met
    9   -1510.2597203534      7.86E-09 Convergence criterion met
 Total energy in the final basis set = -1510.25972035
    9   -1510.2597227782      8.73E-09 Convergence criterion met
 Total energy in the final basis set = -1510.25972278
    9   -1510.2597242201      8.01E-09 Convergence criterion met
 Total energy in the final basis set = -1510.25972422
    9   -1510.2597255596      4.95E-09 Convergence criterion met
 Total energy in the final basis set = -1510.25972556
    9   -1510.2597270723      3.41E-09 Convergence criterion met
 Total energy in the final basis set = -1510.25972707
    9   -1510.2597284703      5.34E-09 Convergence criterion met
 Total energy in the final basis set = -1510.25972847

             Standard Nuclear Orientation (Angstroms)
    I     Atom           X                Y                Z
 ----------------------------------------------------------------
    1      O       4.1208272867    -3.0134519418    -0.3081927250
    2      C       3.9244553615    -1.8033213205    -0.5531507348
    3      C       4.9777914425    -0.6464672178    -0.3941696098
    4      C       4.4703327253     0.8428668285    -0.6190190122
    5      C       2.9527831281     1.0122836631    -1.0030890046
    6      O       2.1337590802     0.9883733759     0.1883245839
    7      C       0.9506531082     1.8551821217     0.0070964194
    8      C      -0.2913235657     1.1355558209     0.6390227959
    9      O      -1.0413469667     0.5061890256    -0.4750684868
   10      C      -2.2646836968    -0.0902447485     0.0325443414
   11      C      -3.5153928550     0.5870162567    -0.6222648309
   12      C      -4.8449657355    -0.2722649396    -0.5483917733
   13      C      -4.7147291829    -1.5756059858     0.3238416792
   14      O      -5.0414498322    -1.7259941138     1.5196045679
   15      O       2.6964886031    -1.2852790087    -1.0564632507
   16      O      -4.1917106306    -2.6161024428    -0.5142090509
   17      O      -2.2820554452    -0.9999787539     0.8899134330
   18      C      -3.9716809990    -3.8404928366     0.2875251880
   19      C      -3.9647220121     1.9090456866     0.1510131465
   20      C      -4.8560028452     2.7579640568    -0.8385238666
   21      C      -6.1823878013     1.9108645197    -0.8476858661
   22      C      -5.8181954685     0.7554704456     0.1651400934
   23      O      -4.9318936612     1.4185707858     1.1535591736
   24      H      -3.2537387029     0.8302372046    -1.6678398175
   25      H      -5.1888856269    -0.5536673699    -1.5594275042
   26      H      -3.1421637852     2.4663115034     0.6389917154
   27      H      -5.0244176442     3.7672636377    -0.4299910848
   28      H      -4.3991742410     2.8508722187    -1.8366328910
   29      H      -7.0380862540     2.4956429724    -0.4749309802
   30      H      -6.4300267912     1.5199968738    -1.8475928011
   31      H      -6.6766083732     0.2834174017     0.6809199558
   32      O       2.5283966825     1.3499777978    -2.1304374734
   33      C       1.6389216390    -2.3165999211    -1.1160474277
   34      C       5.4950737906    -0.5664586427     1.1080707039
   35      C       6.8632861745     0.2215922780     1.1216091423
   36      C       6.3650939853     1.6964857012     0.8941233711
   37      C       4.8028783187     1.4804811210     0.7973712434
   38      O       4.5455655398     0.3728199509     1.7460909626
   39      H       5.8149528115    -0.8790121318    -1.0784933212
   40      H       5.0493118722     1.3212687314    -1.4288094465
   41      H       1.5654808382    -2.8761703256    -0.1618467923
   42      H       5.5013560972    -1.5400864674     1.6359068828
   43      H       7.3618397614     0.1096477667     2.0976113347
   44      H       7.5502391246    -0.1243384118     0.3327493136
   45      H       6.6107644495     2.3422987630     1.7520855077
   46      H       6.7788469375     2.1509036680    -0.0202531689
   47      H       4.1870684286     2.3623833952     1.0579954679
   48      H       1.8260887734    -3.0358649648    -1.9398817227
   49      H       0.6957367895    -1.7688174153    -1.3037207374
   50      H      -3.5768424004    -4.5997739293    -0.4125041008
   51      H      -4.9143642573    -4.2092633948     0.7412967677
   52      H      -3.2356038552    -3.6623131844     1.0980536674
   53      H       0.0545765239     0.3850387147     1.3863594528
   54      H      -0.9307955222     1.8790392527     1.1656797533
   55      H       0.7770058520     2.0425279268    -1.0755932998
   56      H       1.1312747109     2.8217536593     0.5277807286
 ----------------------------------------------------------------

    9   -1510.2597282618      2.02E-09 Convergence criterion met
 Total energy in the final basis set = -1510.25972826
 Final energy is   -1510.25972826177
 **  OPTIMIZATION CONVERGED  **

                    Orbital Energies (a.u.)
 --------------------------------------------------------------

 Alpha MOs
 -- Occupied --
-18.946 -18.922 -18.913 -18.911 -18.902 -18.891 -18.888 -18.876
-18.864 -18.863 -10.109 -10.104 -10.097 -10.090 -10.074 -10.067
-10.067 -10.066 -10.060 -10.060 -10.059 -10.055 -10.040 -10.040
-10.036 -10.034 -10.024 -10.022 -10.021 -10.020  -1.017  -1.012
 -0.999  -0.997  -0.973  -0.970  -0.942  -0.940  -0.925  -0.925
 -0.764  -0.763  -0.726  -0.723  -0.713  -0.706  -0.696  -0.664
 -0.655  -0.611  -0.599  -0.579  -0.547  -0.544  -0.539  -0.538
 -0.516  -0.514  -0.488  -0.476  -0.468  -0.457  -0.452  -0.437
 -0.434  -0.433  -0.417  -0.413  -0.410  -0.408  -0.406  -0.402
 -0.398  -0.386  -0.374  -0.366  -0.359  -0.353  -0.352  -0.349
 -0.343  -0.339  -0.338  -0.333  -0.330  -0.328  -0.324  -0.314
 -0.313  -0.307  -0.306  -0.305  -0.299  -0.287  -0.279  -0.277
 -0.273  -0.250  -0.246  -0.245  -0.236  -0.235  -0.230  -0.183
 -0.168  -0.166  -0.164  -0.157  -0.155  -0.147  -0.147  -0.143
 -0.142

          Ground-State Mulliken Net Atomic Charges

     Atom                 Charge (a.u.)
  ----------------------------------------
      1 O                    -0.213654
      2 C                     0.213676
      3 C                    -0.078405
      4 C                    -0.080526
      5 C                     0.223019
      6 O                    -0.179654
      7 C                    -0.051811
      8 C                    -0.046501
      9 O                    -0.192536
     10 C                     0.217416
     11 C                    -0.080960
     12 C                    -0.081330
     13 C                     0.213633
     14 O                    -0.211982
     15 O                    -0.163202
     16 O                    -0.175745
     17 O                    -0.185008
     18 C                    -0.128811
     19 C                     0.025571
     20 C                    -0.142629
     21 C                    -0.144670
     22 C                     0.025765
     23 O                    -0.185923
     24 H                     0.087451
     25 H                     0.084674
     26 H                     0.078972
     27 H                     0.078455
     28 H                     0.074838
     29 H                     0.078673
     30 H                     0.074263
     31 H                     0.088374
     32 O                    -0.220781
     33 C                    -0.124230
     34 C                     0.024904
     35 C                    -0.143656
     36 C                    -0.144571
     37 C                     0.027163
     38 O                    -0.187260
     39 H                     0.085575
     40 H                     0.084146
     41 H                     0.095034
     42 H                     0.087508
     43 H                     0.078424
     44 H                     0.073907
     45 H                     0.077687
     46 H                     0.073460
     47 H                     0.083061
     48 H                     0.089625
     49 H                     0.100964
     50 H                     0.086641
     51 H                     0.086640
     52 H                     0.093102
     53 H                     0.093819
     54 H                     0.075324
     55 H                     0.104220
     56 H                     0.077861
  ----------------------------------------
  Sum of atomic charges =    -0.000000

                    Cartesian Multipole Moments
 -----------------------------------------------------------------
    Charge (ESU x 10^10)
                -0.0000
    Dipole Moment (Debye)
         X       0.7685      Y       2.0491      Z      -1.9157
       Tot       2.9085
    Quadrupole Moments (Debye-Ang)
        XX    -145.3218     XY       2.7715     YY    -153.3754
        XZ      11.6489     YZ       3.3972     ZZ    -169.2213

 Total job time:  63.57s(wall), 3022.00s(cpu)
        *  Thank you very much for using Q-Chem.  Have a nice day.  *
