 Q-Chem 5.0, Q-Chem, Inc., Pleasanton, CA (2017)
 Q-Chem 5.0.1 for Intel X86 EM64T Linux

User input:
--------------------------------------------------------------
$molecule
0  1
O -3.94934 -3.66094 2.70899
C -3.26408 -4.56952 2.26188
C -3.36658 -6.02376 2.66595
C -2.23288 -6.95967 2.21579
C -1.03534 -6.30382 1.56476
O -1.30909 -4.99107 1.30559
C -0.50971 -4.44687 0.25008
C -0.50244 -5.39381 -0.9455
O 0.84631 -5.77399 -1.2605
C 1.00878 -6.42321 -2.44002
C 2.44656 -6.79556 -2.7135
C 3.47264 -5.70198 -2.38255
C 2.97056 -4.56567 -1.51454
O 1.81004 -4.39694 -1.16918
O -3.4412 -4.54129 0.88636
O 3.90194 -3.65577 -1.12402
O 0.11727 -6.57902 -3.26522
C 3.63289 -2.56538 -0.32347
C 2.95064 -7.92762 -1.79278
C 4.12637 -8.63997 -2.45971
C 5.19358 -7.56821 -2.36574
C 4.45413 -6.52057 -1.52394
O 3.58063 -7.27409 -0.71961
H 2.50861 -7.15918 -3.76466
H 3.93121 -5.25344 -3.29068
H 2.15839 -8.6599 -1.52237
H 4.40933 -9.48362 -1.7898
H 3.941 -9.03501 -3.48174
H 6.06458 -7.98835 -1.81579
H 5.52311 -7.13886 -3.3369
H 5.18265 -5.88087 -0.97889
O 0.00871 -6.88738 1.29344
C -3.81293 -3.44973 0.11691
C -3.2369 -6.16914 4.1976
C -3.86136 -7.4878 4.6539
C -2.83217 -8.47463 4.14855
C -1.78439 -7.51282 3.58051
O -1.86626 -6.38623 4.41616
H -4.37591 -6.38464 2.36175
H -2.5768 -7.76566 1.53108
H -3.0914 -2.61729 0.25795
H -3.69147 -5.32449 4.76073
H -3.8425 -7.49747 5.76735
H -4.90122 -7.66223 4.3029
H -2.41493 -9.02513 5.02112
H -3.19697 -9.19459 3.38424
H -0.79214 -8.01396 3.53606
H -4.83121 -3.10657 0.39569
H -3.81833 -3.74409 -0.95224
H 4.56937 -1.99375 -0.16022
H 3.24258 -2.90183 0.66103
H 2.88904 -1.90278 -0.81532
H -1.18162 -6.27301 -0.88499
H -0.90944 -4.79451 -1.7926
H 0.50055 -4.29547 0.68297
H -0.8871 -3.43999 -0.02388
$end

$opt
CONSTRAINT
tors           1           2           3           4    -167.498
tors           3           4           5           6     -10.113
tors           4           5           6           7    -156.111
tors           5           6           7           8     +47.368
tors           6           7           8           9    -122.026
tors           7           8           9          10    -168.952
tors           8           9          10          11    -180.000
tors           9          10          11          12     -42.827
tors          11          12          13          14      -6.916
ENDCONSTRAINT
$end

$rem
JOBTYPE                   OPT
METHOD                    B3LYP
DFT_D                     d3_op
BASIS                     STO-3G
GEOM_OPT_MAX_CYCLES       100
GEOM_OPT_TOL_GRADIENT     300
GEOM_OPT_TOL_DISPLACEMENT 1200
GEOM_OPT_TOL_ENERGY       100
SYMMETRY                  False
THRESH                    12
SCF_CONVERGENCE           8
MAX_SUB_FILE_NUM          128
MEM_STATIC                400
MEM_TOTAL                 4000
$end
--------------------------------------------------------------

   16   -1509.9754945594      7.60E-09 Convergence criterion met
 Total energy in the final basis set = -1509.97549456
   14   -1510.0737401491      9.32E-09 Convergence criterion met
 Total energy in the final basis set = -1510.07374015
   15   -1510.1345821983      2.20E-09 Convergence criterion met
 Total energy in the final basis set = -1510.13458220
   15   -1510.1807948993      2.10E-09 Convergence criterion met
 Total energy in the final basis set = -1510.18079490
   14   -1510.2081606386      4.49E-09 Convergence criterion met
 Total energy in the final basis set = -1510.20816064
   14   -1510.2250283555      3.16E-09 Convergence criterion met
 Total energy in the final basis set = -1510.22502836
   13   -1510.2358013811      7.18E-09 Convergence criterion met
 Total energy in the final basis set = -1510.23580138
   13   -1510.2427662316      7.97E-09 Convergence criterion met
   12   -1510.2583631796      3.70E-09 Convergence criterion met
 Total energy in the final basis set = -1510.25836318
   11   -1510.2584101667      5.02E-09 Convergence criterion met
 Total energy in the final basis set = -1510.25841017
   11   -1510.2584235280      3.88E-09 Convergence criterion met
 Total energy in the final basis set = -1510.25842353
    9   -1510.2584288332      9.63E-09 Convergence criterion met
 Total energy in the final basis set = -1510.25842883
   10   -1510.2584210293      8.42E-09 Convergence criterion met
 Total energy in the final basis set = -1510.25842103
    9   -1510.2584224458      4.59E-09 Convergence criterion met
 Total energy in the final basis set = -1510.25842245

             Standard Nuclear Orientation (Angstroms)
    I     Atom           X                Y                Z
 ----------------------------------------------------------------
    1      O       4.9882384063    -2.1265305354    -0.0827588211
    2      C       4.2046583581    -1.2401980835    -0.4876317717
    3      C       4.3819534231     0.3085386993    -0.3052496019
    4      C       3.1582109167     1.2463549298    -0.6153021105
    5      C       1.7547257628     0.7469011274    -0.0773255989
    6      O       1.8249967311    -0.5999198917     0.4019160294
    7      C       0.5126456798    -1.2847813780     0.3797746062
    8      C      -0.3071430912    -1.1386299248    -0.9590832651
    9      O      -1.6032110488    -0.5255553031    -0.5918468024
   10      C      -2.5075834110    -0.5897847885    -1.6966876572
   11      C      -3.8765011585     0.0642044844    -1.2909532054
   12      C      -4.4217178052    -0.3011016710     0.1479991489
   13      C      -3.8371572619    -1.6041255823     0.7955980018
   14      O      -3.0844813737    -2.4643892446     0.2910479878
   15      O       3.2070043337    -1.4781868813    -1.4957380119
   16      O      -4.3362964534    -1.6739335935     2.1377569319
   17      O      -2.2147614505    -1.0644383782    -2.8164299394
   18      C      -3.8131552301    -2.8847121783     2.8106058490
   19      C      -3.6307277567     1.6274115701    -1.0892135084
   20      C      -5.0185694371     2.3631865604    -0.8977087846
   21      C      -5.3411540216     2.0321122881     0.6070360782
   22      C      -4.1546019117     1.0506037016     0.9493381799
   23      O      -3.0077248146     1.6737364874     0.2535913054
   24      H      -4.6114468244    -0.1525785368    -2.0852955025
   25      H      -5.5145643971    -0.4647062754     0.0866394407
   26      H      -2.9591077448     2.0828369034    -1.8426075857
   27      H      -4.9088228980     3.4466448733    -1.0625890480
   28      H      -5.7847230131     1.9767626439    -1.5890065229
   29      H      -5.2816586225     2.9340626219     1.2372279394
   30      H      -6.3305723151     1.5676714076     0.7440466053
   31      H      -3.9386323568     0.9112750647     2.0261567883
   32      O       0.7080194923     1.4307171818    -0.0925831624
   33      C       3.1201730919    -2.9249365486    -1.7900228358
   34      C       4.8752593158     0.8724637938     1.0999746078
   35      C       5.8984638989     2.0241716565     0.7684263433
   36      C       4.9304321964     3.0656829932     0.0878357361
   37      C       3.5141004539     2.4295995804     0.3886061375
   38      O       3.7213671806     1.6370548843     1.6324534186
   39      H       5.1647857439     0.5547047866    -1.0501548456
   40      H       3.0758964678     1.5354860554    -1.6777792829
   41      H       2.7673127005    -3.4993116053    -0.9090776678
   42      H       5.2147606431     0.1056300526     1.8229894021
   43      H       6.3323420196     2.4291170996     1.6970821137
   44      H       6.7154121875     1.6955678996     0.1060724963
   45      H       5.0139057092     4.0631508183     0.5470297807
   46      H       5.1104936819     3.1626457650    -0.9952041932
   47      H       2.6887625161     3.1552111396     0.5263086191
   48      H       4.0978189796    -3.3402284287    -2.1097324775
   49      H       2.3862184660    -3.0251951580    -2.6109147631
   50      H      -4.2629991173    -2.8913232749     3.8204776065
   51      H      -2.7076392481    -2.8568039890     2.8983874854
   52      H      -4.0985922456    -3.8103209753     2.2702009022
   53      H       0.2401179070    -0.5158722118    -1.6991969787
   54      H      -0.4753134556    -2.1358060017    -1.4203715749
   55      H      -0.1379279791    -0.9170768145     1.2064006695
   56      H       0.7561405615    -2.3484707483     0.5720179090
 ----------------------------------------------------------------

    9   -1510.2584229706      2.98E-09 Convergence criterion met
 Total energy in the final basis set = -1510.25842297
 Final energy is   -1510.25842297059
 **  OPTIMIZATION CONVERGED  **

                    Orbital Energies (a.u.)
 --------------------------------------------------------------

 Alpha MOs
 -- Occupied --
-18.934 -18.926 -18.926 -18.926 -18.886 -18.882 -18.876 -18.870
-18.868 -18.862 -10.100 -10.097 -10.095 -10.091 -10.070 -10.066
-10.066 -10.061 -10.057 -10.057 -10.057 -10.055 -10.036 -10.036
-10.034 -10.033 -10.019 -10.018 -10.017 -10.017  -1.013  -1.009
 -1.003  -0.999  -0.967  -0.967  -0.937  -0.933  -0.928  -0.925
 -0.761  -0.760  -0.725  -0.720  -0.707  -0.700  -0.694  -0.662
 -0.658  -0.612  -0.596  -0.583  -0.543  -0.542  -0.535  -0.533
 -0.513  -0.506  -0.489  -0.474  -0.460  -0.459  -0.445  -0.433
 -0.431  -0.428  -0.423  -0.411  -0.408  -0.406  -0.404  -0.402
 -0.389  -0.378  -0.375  -0.366  -0.359  -0.358  -0.348  -0.346
 -0.341  -0.338  -0.330  -0.327  -0.327  -0.317  -0.314  -0.312
 -0.309  -0.304  -0.303  -0.299  -0.294  -0.289  -0.285  -0.270
 -0.266  -0.256  -0.249  -0.243  -0.237  -0.230  -0.230  -0.181
 -0.180  -0.167  -0.157  -0.153  -0.150  -0.144  -0.142  -0.140
 -0.139

          Ground-State Mulliken Net Atomic Charges

     Atom                 Charge (a.u.)
  ----------------------------------------
      1 O                    -0.218123
      2 C                     0.216831
      3 C                    -0.079692
      4 C                    -0.074572
      5 C                     0.215750
      6 O                    -0.172669
      7 C                    -0.044248
      8 C                    -0.044800
      9 O                    -0.163213
     10 C                     0.212958
     11 C                    -0.079249
     12 C                    -0.079026
     13 C                     0.212680
     14 O                    -0.213405
     15 O                    -0.171546
     16 O                    -0.172636
     17 O                    -0.219578
     18 C                    -0.128398
     19 C                     0.026218
     20 C                    -0.145193
     21 C                    -0.142192
     22 C                     0.026631
     23 O                    -0.181674
     24 H                     0.084427
     25 H                     0.083715
     26 H                     0.084107
     27 H                     0.078126
     28 H                     0.073063
     29 H                     0.078079
     30 H                     0.073122
     31 H                     0.088412
     32 O                    -0.206916
     33 C                    -0.128889
     34 C                     0.024094
     35 C                    -0.140464
     36 C                    -0.146554
     37 C                     0.022538
     38 O                    -0.192191
     39 H                     0.082354
     40 H                     0.087242
     41 H                     0.085338
     42 H                     0.088658
     43 H                     0.077809
     44 H                     0.073583
     45 H                     0.078471
     46 H                     0.073084
     47 H                     0.087383
     48 H                     0.088926
     49 H                     0.088871
     50 H                     0.090612
     51 H                     0.088175
     52 H                     0.088873
     53 H                     0.089950
     54 H                     0.090622
     55 H                     0.095429
     56 H                     0.089100
  ----------------------------------------
  Sum of atomic charges =     0.000000

                    Cartesian Multipole Moments
 -----------------------------------------------------------------
    Charge (ESU x 10^10)
                 0.0000
    Dipole Moment (Debye)
         X      -1.1070      Y       0.1209      Z      -0.2618
       Tot       1.1439
    Quadrupole Moments (Debye-Ang)
        XX    -143.0238     XY       5.8311     YY    -155.0443
        XZ      -9.7487     YZ      -6.5824     ZZ    -160.5165

 Total job time:  82.33s(wall), 3918.52s(cpu)
        *  Thank you very much for using Q-Chem.  Have a nice day.  *
