 Q-Chem 5.0, Q-Chem, Inc., Pleasanton, CA (2017)
 Q-Chem 5.0.1 for Intel X86 EM64T Linux

User input:
--------------------------------------------------------------
$molecule
0  1
O 4.9882384063 -2.1265305354 -0.0827588211
C 4.2046583581 -1.2401980835 -0.4876317717
C 4.3819534231 0.3085386993 -0.3052496019
C 3.1582109167 1.2463549298 -0.6153021105
C 1.7547257628 0.7469011274 -0.0773255989
O 1.8249967311 -0.5999198917 0.4019160294
C 0.5126456798 -1.284781378 0.3797746062
C -0.3071430912 -1.1386299248 -0.9590832651
O -1.6032110488 -0.5255553031 -0.5918468024
C -2.507583411 -0.5897847885 -1.6966876572
C -3.8765011585 0.0642044844 -1.2909532054
C -4.4217178052 -0.301101671 0.1479991489
C -3.8371572619 -1.6041255823 0.7955980018
O -3.0844813737 -2.4643892446 0.2910479878
O 3.2070043337 -1.4781868813 -1.4957380119
O -4.3362964534 -1.6739335935 2.1377569319
O -2.2147614505 -1.0644383782 -2.8164299394
C -3.8131552301 -2.8847121783 2.810605849
C -3.6307277567 1.6274115701 -1.0892135084
C -5.0185694371 2.3631865604 -0.8977087846
C -5.3411540216 2.0321122881 0.6070360782
C -4.1546019117 1.0506037016 0.9493381799
O -3.0077248146 1.6737364874 0.2535913054
H -4.6114468244 -0.1525785368 -2.0852955025
H -5.5145643971 -0.4647062754 0.0866394407
H -2.9591077448 2.0828369034 -1.8426075857
H -4.908822898 3.4466448733 -1.062589048
H -5.7847230131 1.9767626439 -1.5890065229
H -5.2816586225 2.9340626219 1.2372279394
H -6.3305723151 1.5676714076 0.7440466053
H -3.9386323568 0.9112750647 2.0261567883
O 0.7080194923 1.4307171818 -0.0925831624
C 3.1201730919 -2.9249365486 -1.7900228358
C 4.8752593158 0.8724637938 1.0999746078
C 5.8984638989 2.0241716565 0.7684263433
C 4.9304321964 3.0656829932 0.0878357361
C 3.5141004539 2.4295995804 0.3886061375
O 3.7213671806 1.6370548843 1.6324534186
H 5.1647857439 0.5547047866 -1.0501548456
H 3.0758964678 1.5354860554 -1.6777792829
H 2.7673127005 -3.4993116053 -0.9090776678
H 5.2147606431 0.1056300526 1.8229894021
H 6.3323420196 2.4291170996 1.6970821137
H 6.7154121875 1.6955678996 0.1060724963
H 5.0139057092 4.0631508183 0.5470297807
H 5.1104936819 3.162645765 -0.9952041932
H 2.6887625161 3.1552111396 0.5263086191
H 4.0978189796 -3.3402284287 -2.1097324775
H 2.386218466 -3.025195158 -2.6109147631
H -4.2629991173 -2.8913232749 3.8204776065
H -2.7076392481 -2.856803989 2.8983874854
H -4.0985922456 -3.8103209753 2.2702009022
H 0.240117907 -0.5158722118 -1.6991969787
H -0.4753134556 -2.1358060017 -1.4203715749
H -0.1379279791 -0.9170768145 1.2064006695
H 0.7561405615 -2.3484707483 0.572017909
$end

$rem
JOBTYPE                   OPT
METHOD                    B3LYP
DFT_D                     d3_op
BASIS                     STO-3G
GEOM_OPT_MAX_CYCLES       100
GEOM_OPT_TOL_GRADIENT     300
GEOM_OPT_TOL_DISPLACEMENT 1200
GEOM_OPT_TOL_ENERGY       100
SYMMETRY                  False
THRESH                    12
SCF_CONVERGENCE           8
MAX_SUB_FILE_NUM          128
MEM_STATIC                400
MEM_TOTAL                 4000
$end
--------------------------------------------------------------

   16   -1510.2583943965      4.34E-09 Convergence criterion met
 Total energy in the final basis set = -1510.25839440
   13   -1510.2634474054      7.89E-09 Convergence criterion met
 Total energy in the final basis set = -1510.26344741
   13   -1510.2676544422      3.76E-09 Convergence criterion met
 Total energy in the final basis set = -1510.26765444
   13   -1510.2713058349      4.10E-09 Convergence criterion met
 Total energy in the final basis set = -1510.27130583
   13   -1510.2741431841      4.75E-09 Convergence criterion met
 Total energy in the final basis set = -1510.27414318
   13   -1510.2766002913      4.58E-09 Convergence criterion met
 Total energy in the final basis set = -1510.27660029
   13   -1510.2786341909      2.87E-09 Convergence criterion met
 Total energy in the final basis set = -1510.27863419
   13   -1510.2804103504      5.56E-09 Convergence criterion met
   12   -1510.2949669582      5.33E-09 Convergence criterion met
 Total energy in the final basis set = -1510.29496696
   12   -1510.2949963864      4.94E-09 Convergence criterion met
 Total energy in the final basis set = -1510.29499639
   12   -1510.2950214380      3.93E-09 Convergence criterion met
 Total energy in the final basis set = -1510.29502144
   12   -1510.2950406754      3.04E-09 Convergence criterion met
 Total energy in the final basis set = -1510.29504068
   11   -1510.2950441162      4.79E-09 Convergence criterion met
 Total energy in the final basis set = -1510.29504412
    9   -1510.2950474356      7.98E-09 Convergence criterion met
 Total energy in the final basis set = -1510.29504744

             Standard Nuclear Orientation (Angstroms)
    I     Atom           X                Y                Z
 ----------------------------------------------------------------
    1      O       3.9047422338    -1.9971358473    -0.6005519068
    2      C       3.2982859316    -0.9953043370    -1.0388254620
    3      C       3.7951444223     0.4935208196    -1.0193235258
    4      C       2.8628354569     1.5209496516    -0.2557484795
    5      C       1.6809991319     0.9090325659     0.5701506264
    6      O       2.1032789086    -0.3312825306     1.1390080215
    7      C       1.1396798696    -0.8406833153     2.1447240899
    8      C      -0.0296509244    -1.6938939456     1.5378280626
    9      O      -1.0538776530    -0.7732207033     1.0021669006
   10      C      -1.5594672361    -1.2213610945    -0.2558213120
   11      C      -2.5463679624    -0.1314414111    -0.8156194809
   12      C      -4.0603128238    -0.3351005256    -0.4018881938
   13      C      -4.2548384170    -1.5336345578     0.5846116666
   14      O      -3.3711026472    -2.3145024944     1.0065353172
   15      O       2.0517359872    -1.0315929518    -1.7375090534
   16      O      -5.6311587790    -1.6093162760     0.9563037357
   17      O      -1.1612427737    -2.2429654349    -0.8654128272
   18      C      -5.8407316265    -2.7267342960     1.9071184093
   19      C      -2.2596312065     1.3131052142    -0.2153217634
   20      C      -2.9443680973     2.3777564504    -1.1591071398
   21      C      -4.4641385988     2.1737367542    -0.8018683261
   22      C      -4.3678139578     1.0537396649     0.3083864773
   23      O      -3.0999290855     1.3537671028     1.0058311104
   24      H      -2.4455848559    -0.1438851008    -1.9153888704
   25      H      -4.7117065424    -0.4942754774    -1.2806983797
   26      H      -1.1944493848     1.4952428482     0.0506786516
   27      H      -2.6034958049     3.3931934501    -0.9012349575
   28      H      -2.7282973520     2.1933546783    -2.2235406701
   29      H      -4.9107494855     3.0904129671    -0.3850356256
   30      H      -5.0658375385     1.8493760734    -1.6660271995
   31      H      -5.2148118387     1.0158673278     1.0208902992
   32      O       0.5825352054     1.4630253430     0.8004061184
   33      C       1.5746554725    -2.4285365363    -1.8913624846
   34      C       5.1543160525     0.6459156634    -0.2175972633
   35      C       5.8636551034     1.9688336005    -0.7016862610
   36      C       4.9317271553     3.0583742331    -0.0513057434
   37      C       3.9179736957     2.1558137828     0.7584315979
   38      O       4.7223009818     0.9818411044     1.1603037551
   39      H       3.9177196298     0.8148401997    -2.0699910747
   40      H       2.4394079898     2.2794321232    -0.9372198362
   41      H       2.2125081667    -3.1056253714    -1.2895888620
   42      H       5.7748972906    -0.2711286098    -0.2154471337
   43      H       6.8885068287     2.0252921351    -0.3011262056
   44      H       5.9076466013     2.0441667497    -1.7999264307
   45      H       5.4909143112     3.7165733536     0.6323522780
   46      H       4.4200978815     3.6819976381    -0.8018207891
   47      H       3.4631971258     2.6403358336     1.6446433201
   48      H       1.6386781056    -2.7153629389    -2.9596523582
   49      H       0.5140182396    -2.4687499896    -1.5498538219
   50      H      -6.9139295465    -2.7041319176     2.1713321639
   51      H      -5.2282697629    -2.6018485509     2.8232301198
   52      H      -5.5918094115    -3.7046554511     1.4465832688
   53      H       0.3322555237    -2.3749720485     0.7392646209
   54      H      -0.4831405954    -2.3064162650     2.3481733508
   55      H       0.7038419779     0.0016881665     2.7239651840
   56      H       1.7429003576    -1.4836012203     2.8181565823
 ----------------------------------------------------------------

   11   -1510.2950469431      2.29E-09 Convergence criterion met
 Total energy in the final basis set = -1510.29504694
 Final energy is   -1510.29504694307
 **  OPTIMIZATION CONVERGED  **

                    Orbital Energies (a.u.)
 --------------------------------------------------------------

 Alpha MOs
 -- Occupied --
-18.943 -18.940 -18.927 -18.917 -18.886 -18.885 -18.880 -18.878
-18.864 -18.862 -10.105 -10.104 -10.097 -10.090 -10.074 -10.069
-10.066 -10.060 -10.055 -10.054 -10.041 -10.038 -10.037 -10.033
-10.030 -10.029 -10.020 -10.018 -10.015 -10.011  -1.019  -1.016
 -1.002  -0.997  -0.968  -0.961  -0.943  -0.941  -0.929  -0.923
 -0.762  -0.758  -0.726  -0.718  -0.710  -0.703  -0.693  -0.665
 -0.645  -0.611  -0.595  -0.579  -0.542  -0.539  -0.535  -0.530
 -0.512  -0.509  -0.489  -0.476  -0.461  -0.455  -0.444  -0.437
 -0.430  -0.427  -0.423  -0.415  -0.413  -0.407  -0.403  -0.401
 -0.395  -0.378  -0.375  -0.365  -0.361  -0.355  -0.353  -0.350
 -0.340  -0.335  -0.330  -0.328  -0.324  -0.320  -0.317  -0.309
 -0.308  -0.303  -0.300  -0.299  -0.289  -0.286  -0.278  -0.273
 -0.266  -0.259  -0.245  -0.239  -0.235  -0.233  -0.224  -0.187
 -0.183  -0.167  -0.161  -0.159  -0.152  -0.147  -0.144  -0.142
 -0.136

          Ground-State Mulliken Net Atomic Charges

     Atom                 Charge (a.u.)
  ----------------------------------------
      1 O                    -0.218549
      2 C                     0.215685
      3 C                    -0.079013
      4 C                    -0.077353
      5 C                     0.217056
      6 O                    -0.165268
      7 C                    -0.047442
      8 C                    -0.051477
      9 O                    -0.165490
     10 C                     0.224951
     11 C                    -0.081854
     12 C                    -0.078300
     13 C                     0.215095
     14 O                    -0.207100
     15 O                    -0.180597
     16 O                    -0.168287
     17 O                    -0.228400
     18 C                    -0.128004
     19 C                     0.015340
     20 C                    -0.144873
     21 C                    -0.144263
     22 C                     0.024788
     23 O                    -0.189937
     24 H                     0.082776
     25 H                     0.085983
     26 H                     0.109916
     27 H                     0.076791
     28 H                     0.070990
     29 H                     0.076605
     30 H                     0.071509
     31 H                     0.083967
     32 O                    -0.212977
     33 C                    -0.154243
     34 C                     0.024502
     35 C                    -0.143461
     36 C                    -0.144234
     37 C                     0.025262
     38 O                    -0.187687
     39 H                     0.083396
     40 H                     0.085329
     41 H                     0.091799
     42 H                     0.091247
     43 H                     0.077890
     44 H                     0.073166
     45 H                     0.078087
     46 H                     0.073770
     47 H                     0.081813
     48 H                     0.075660
     49 H                     0.108136
     50 H                     0.092236
     51 H                     0.091724
     52 H                     0.090588
     53 H                     0.101100
     54 H                     0.088865
     55 H                     0.098333
     56 H                     0.094457
  ----------------------------------------
  Sum of atomic charges =    -0.000000

                    Cartesian Multipole Moments
 -----------------------------------------------------------------
    Charge (ESU x 10^10)
                -0.0000
    Dipole Moment (Debye)
         X      -1.6216      Y       1.2857      Z      -0.8360
       Tot       2.2319
    Quadrupole Moments (Debye-Ang)
        XX    -147.6345     XY      12.7925     YY    -157.9464
        XZ      -5.0699     YZ      -7.5042     ZZ    -154.3206

 Total job time:  114.76s(wall), 5470.68s(cpu)
        *  Thank you very much for using Q-Chem.  Have a nice day.  *
