 Q-Chem 5.0, Q-Chem, Inc., Pleasanton, CA (2017)
 Q-Chem 5.0.1 for Intel X86 EM64T Linux

User input:
--------------------------------------------------------------
$molecule
0  1
O -4.4538602818 -1.38086693 1.6934421843
C -4.8420791803 -1.0331596613 0.5588263348
C -4.4679910375 0.241987782 -0.2753604503
C -3.3757471641 1.2025461552 0.3602644729
C -2.4040391522 0.4729523371 1.3749480457
O -1.9461608115 1.3445383242 2.4532668201
C -0.49511688 1.6117120912 2.4592584993
C 0.2036212235 2.0226978104 1.1127932793
O 0.8027521265 0.8463999786 0.4486891583
C 2.2376932021 0.9743254074 0.3923335449
C 2.7278407253 -0.3272979421 -0.3277122553
C 4.0641090864 -0.3059487168 -1.1683579822
C 5.2413534287 0.6229109155 -0.6933226954
O 6.2728135148 0.8705134186 -1.3609041968
O -5.7612341794 -1.794558166 -0.2371251707
O 5.1064629181 0.9037448242 0.6984759447
O 2.8436866858 1.9814967347 0.8153712643
C 6.2733510177 1.6685408278 1.1937106123
C 2.9454193011 -1.6179619683 0.5967844899
C 2.4491003559 -2.8488678729 -0.2520535012
C 3.5428929029 -2.8622968493 -1.3861447831
C 4.5721440288 -1.7868910154 -0.8466069533
O 4.4095957798 -1.8275071861 0.6264460536
H 1.9009886123 -0.5599161181 -1.023368096
H 3.8791163107 -0.1380469374 -2.2439302308
H 2.5355323655 -1.5389355796 1.6221626666
H 2.487771411 -3.7694813866 0.3524554442
H 1.4255814129 -2.7160747763 -0.6372907319
H 4.0250357739 -3.8479784529 -1.4799248711
H 3.1343575569 -2.574947859 -2.3684996561
H 5.6281986668 -1.967797232 -1.1266902347
O -1.9356040304 -0.6718150402 1.1987119593
C -6.1498280368 -3.0305818219 0.4794698636
C -3.8886021324 -0.039894251 -1.7281812988
C -4.3232216668 1.1757461759 -2.6320977325
C -3.4599719675 2.3234275471 -1.9893957697
C -2.5530868559 1.5095174713 -0.9773472295
O -2.4307442025 0.1670365681 -1.586798551
H -5.4139247094 0.8063473945 -0.3817675977
H -3.8126544766 2.10554371 0.820455066
H -6.6603125497 -2.8055618258 1.4381849484
H -4.1137919134 -1.0475050772 -2.1276919188
H -4.0366676789 0.996162742 -3.6808823345
H -5.4061052634 1.3724928774 -2.58576908
H -2.8358131398 2.835065958 -2.7386843261
H -4.076547616 3.0757152971 -1.4717792016
H -1.5495865248 1.9411585258 -0.8295702898
H -5.2706369202 -3.6725220036 0.6926166916
H -6.8452664298 -3.5667089234 -0.1922972212
H 5.9416870082 2.6832786509 1.490680746
H 7.0383791026 1.7354131582 0.3937612642
H 6.6840359193 1.1425129389 2.0770776781
H -0.5018107374 2.5252079354 0.4255491298
H 1.0383356226 2.7237880064 1.3423129407
H 0.0691548877 0.7381092074 2.8646474329
H -0.3881917508 2.4458679091 3.1841778312
$end

$rem
JOBTYPE                   OPT
METHOD                    B3LYP
DFT_D                     d3_op
BASIS                     STO-3G
GEOM_OPT_MAX_CYCLES       100
GEOM_OPT_TOL_GRADIENT     300
GEOM_OPT_TOL_DISPLACEMENT 1200
GEOM_OPT_TOL_ENERGY       100
SYMMETRY                  False
THRESH                    12
SCF_CONVERGENCE           8
MAX_SUB_FILE_NUM          128
MEM_STATIC                400
MEM_TOTAL                 4000
$end
--------------------------------------------------------------

   16   -1510.2422691255      6.36E-09 Convergence criterion met
 Total energy in the final basis set = -1510.24226913
   14   -1510.2495914257      8.94E-09 Convergence criterion met
 Total energy in the final basis set = -1510.24959143
   14   -1510.2565867846      8.52E-09 Convergence criterion met
 Total energy in the final basis set = -1510.25658678
   14   -1510.2615292610      6.25E-09 Convergence criterion met
 Total energy in the final basis set = -1510.26152926
   13   -1510.2654534610      7.08E-09 Convergence criterion met
 Total energy in the final basis set = -1510.26545346
   14   -1510.2687100117      2.72E-09 Convergence criterion met
 Total energy in the final basis set = -1510.26871001
   14   -1510.2717169864      2.30E-09 Convergence criterion met
 Total energy in the final basis set = -1510.27171699
   14   -1510.2747197476      1.19E-09 Convergence criterion met
   11   -1510.3036012061      7.04E-09 Convergence criterion met
 Total energy in the final basis set = -1510.30360121
   11   -1510.3035538862      9.05E-09 Convergence criterion met
 Total energy in the final basis set = -1510.30355389
   12   -1510.3036156647      1.89E-09 Convergence criterion met
 Total energy in the final basis set = -1510.30361566
   10   -1510.3036174126      6.12E-09 Convergence criterion met
 Total energy in the final basis set = -1510.30361741
    9   -1510.3036211038      4.01E-09 Convergence criterion met
 Total energy in the final basis set = -1510.30362110
    9   -1510.3036213511      3.42E-09 Convergence criterion met
 Total energy in the final basis set = -1510.30362135

             Standard Nuclear Orientation (Angstroms)
    I     Atom           X                Y                Z
 ----------------------------------------------------------------
    1      O      -3.2667377770    -0.9260030992     2.1390919364
    2      C      -2.9651136006    -0.9803172419     0.9254138187
    3      C      -3.5969754153    -0.1008013649    -0.2235928215
    4      C      -3.0163952714     1.3736903756    -0.3055812222
    5      C      -1.8011314277     1.6083000408     0.6434088055
    6      O      -1.5670508113     3.0103426364     0.7764683092
    7      C      -0.2892375298     3.2442531950     1.4953138481
    8      C       0.8872215528     3.3962008340     0.4646023859
    9      O       0.9680769121     2.1942812329    -0.3996235908
   10      C       2.0004909973     1.3110890281     0.0627937370
   11      C       1.9742929350     0.0224199559    -0.8220007225
   12      C       3.1843817682    -0.9683008038    -0.5520383184
   13      C       4.2015366765    -0.4519427144     0.5327856208
   14      O       5.2538314506     0.1881116429     0.3108709477
   15      O      -2.0602079574    -1.9225534555     0.3510811538
   16      O       3.7968567653    -0.9303845282     1.8215649533
   17      O       2.7612903821     1.5696035282     1.0219216890
   18      C       4.6996471807    -0.4031195526     2.8682278678
   19      C       0.7346932159    -0.8940906859    -0.4431467333
   20      C       0.5106658396    -1.9391092649    -1.5974092941
   21      C       1.7128896496    -2.9264748135    -1.3567068610
   22      C       2.4032999834    -2.2724572422    -0.0943112205
   23      O       1.2636858053    -1.7162359576     0.6726294504
   24      H       1.9254260687     0.3301750022    -1.8818654728
   25      H       3.7550849957    -1.1379572347    -1.4826727174
   26      H      -0.1690908759    -0.3459852309    -0.1031791039
   27      H      -0.4643311178    -2.4327914396    -1.4595866071
   28      H       0.5320261144    -1.4672609274    -2.5921691131
   29      H       1.3610228211    -3.9423987107    -1.1160174683
   30      H       2.3973333988    -2.9865707430    -2.2180659496
   31      H       2.9958392589    -2.9629760280     0.5356866483
   32      O      -1.1010170487     0.7220352109     1.1883810515
   33      C      -1.3708914242    -2.7153817751     1.4010739092
   34      C      -3.2706393873    -0.6325362829    -1.6831364806
   35      C      -4.3053237101     0.0068643252    -2.6894669215
   36      C      -3.7816239251     1.4884103504    -2.7619604557
   37      C      -2.5174173902     1.4128065623    -1.8185409226
   38      O      -1.9961668510     0.0444931691    -2.0267065487
   39      H      -4.6868455869    -0.0636411263    -0.0462450368
   40      H      -3.7846048678     2.1426057902    -0.1104671992
   41      H      -1.6072992784    -3.7859716664     1.2443300358
   42      H      -3.1538112876    -1.7303468885    -1.7513333712
   43      H      -4.2449081823    -0.4906247093    -3.6705808935
   44      H      -5.3414624736    -0.0626345167    -2.3213236423
   45      H      -3.4814895173     1.7635348002    -3.7856089155
   46      H      -4.5223720422     2.2200839401    -2.4016767355
   47      H      -1.7298078354     2.1659705298    -2.0167323865
   48      H      -1.7273848426    -2.3935910504     2.3988827650
   49      H      -0.2739349517    -2.5315867055     1.2821617146
   50      H       4.1814050030     0.3965776956     3.4346957412
   51      H       5.6147708471     0.0119024661     2.3992548761
   52      H       4.9554848629    -1.2334193398     3.5539196046
   53      H       0.7008472291     4.2611962092    -0.2036930882
   54      H       1.8444752253     3.5288909910     1.0144426597
   55      H      -0.0824539750     2.3928265521     2.1781678212
   56      H      -0.4109174479     4.1823866443     2.0737923286
 ----------------------------------------------------------------

    9   -1510.3036222156      2.88E-09 Convergence criterion met
 Total energy in the final basis set = -1510.30362222
 Final energy is   -1510.30362221562
 **  OPTIMIZATION CONVERGED  **

                    Orbital Energies (a.u.)
 --------------------------------------------------------------

 Alpha MOs
 -- Occupied --
-18.947 -18.939 -18.917 -18.914 -18.890 -18.890 -18.889 -18.886
-18.856 -18.854 -10.112 -10.105 -10.087 -10.087 -10.079 -10.077
-10.064 -10.058 -10.055 -10.045 -10.043 -10.043 -10.035 -10.034
-10.031 -10.023 -10.023 -10.021 -10.013 -10.007  -1.027  -1.016
 -0.995  -0.993  -0.972  -0.966  -0.950  -0.942  -0.920  -0.918
 -0.764  -0.758  -0.730  -0.720  -0.712  -0.705  -0.695  -0.646
 -0.639  -0.621  -0.595  -0.576  -0.547  -0.539  -0.537  -0.529
 -0.512  -0.506  -0.486  -0.476  -0.462  -0.457  -0.449  -0.442
 -0.435  -0.426  -0.425  -0.415  -0.407  -0.400  -0.398  -0.396
 -0.388  -0.381  -0.373  -0.361  -0.360  -0.357  -0.352  -0.347
 -0.337  -0.334  -0.332  -0.331  -0.325  -0.321  -0.319  -0.313
 -0.308  -0.304  -0.301  -0.295  -0.293  -0.278  -0.277  -0.273
 -0.271  -0.259  -0.253  -0.239  -0.235  -0.230  -0.227  -0.197
 -0.175  -0.165  -0.161  -0.158  -0.157  -0.149  -0.141  -0.139
 -0.136

          Ground-State Mulliken Net Atomic Charges

     Atom                 Charge (a.u.)
  ----------------------------------------
      1 O                    -0.224456
      2 C                     0.212500
      3 C                    -0.081016
      4 C                    -0.078851
      5 C                     0.220454
      6 O                    -0.169086
      7 C                    -0.053692
      8 C                    -0.055027
      9 O                    -0.174793
     10 C                     0.217013
     11 C                    -0.078579
     12 C                    -0.080023
     13 C                     0.214822
     14 O                    -0.223536
     15 O                    -0.177805
     16 O                    -0.168815
     17 O                    -0.207773
     18 C                    -0.133135
     19 C                     0.020316
     20 C                    -0.143663
     21 C                    -0.146012
     22 C                     0.027370
     23 O                    -0.186634
     24 H                     0.087917
     25 H                     0.083000
     26 H                     0.109427
     27 H                     0.086351
     28 H                     0.075250
     29 H                     0.075571
     30 H                     0.071893
     31 H                     0.086837
     32 O                    -0.208559
     33 C                    -0.152748
     34 C                     0.024759
     35 C                    -0.144230
     36 C                    -0.143835
     37 C                     0.024864
     38 O                    -0.190455
     39 H                     0.082955
     40 H                     0.088259
     41 H                     0.071107
     42 H                     0.090881
     43 H                     0.077562
     44 H                     0.073959
     45 H                     0.078090
     46 H                     0.074339
     47 H                     0.085877
     48 H                     0.093262
     49 H                     0.112735
     50 H                     0.086042
     51 H                     0.098812
     52 H                     0.082390
     53 H                     0.089134
     54 H                     0.102743
     55 H                     0.104132
     56 H                     0.092104
  ----------------------------------------
  Sum of atomic charges =    -0.000000

                    Cartesian Multipole Moments
 -----------------------------------------------------------------
    Charge (ESU x 10^10)
                -0.0000
    Dipole Moment (Debye)
         X      -1.6570      Y       1.3624      Z      -2.1378
       Tot       3.0285
    Quadrupole Moments (Debye-Ang)
        XX    -162.9670     XY      -6.3678     YY    -147.7645
        XZ       8.2997     YZ       3.6429     ZZ    -158.9677

 Total job time:  151.73s(wall), 7230.79s(cpu)
        *  Thank you very much for using Q-Chem.  Have a nice day.  *
