 Q-Chem 5.0, Q-Chem, Inc., Pleasanton, CA (2017)
 Q-Chem 5.0.1 for Intel X86 EM64T Linux

User input:
--------------------------------------------------------------
$molecule
0  1
O -3.94934 -3.66094 2.70899
C -3.26408 -4.56952 2.26188
C -3.36658 -6.02376 2.66595
C -4.48045 -6.40099 3.65632
C -5.47805 -5.31548 3.99478
O -5.91662 -5.47227 5.27871
C -7.31322 -5.77481 5.36374
C -7.67231 -6.88143 4.37755
O -8.17205 -6.30802 3.15921
C -9.46854 -6.58473 2.87336
C -9.93379 -5.95459 1.58219
C -11.05567 -6.71378 0.8588
C -11.78128 -7.7606 1.68001
O -12.57223 -8.58291 1.24096
O -2.27722 -4.262 1.37815
O -12.18044 -7.29521 2.90794
O -9.92057 -7.62077 3.33495
C -13.00661 -7.93333 3.81821
C -10.59428 -4.57366 1.76018
C -10.48352 -3.78686 0.4547
C -11.44916 -4.5598 -0.4248
C -12.02595 -5.54455 0.60037
O -11.97473 -4.83637 1.81666
H -9.03793 -5.83843 0.92871
H -10.69946 -7.21398 -0.06846
H -10.16947 -3.98967 2.60574
H -10.91214 -2.7779 0.65198
H -9.45741 -3.6712 0.04405
H -12.23067 -3.85673 -0.78898
H -10.98648 -5.0964 -1.28135
H -13.03219 -5.89886 0.28498
O -6.12691 -4.70753 3.14999
C -2.01967 -2.99037 0.91057
C -3.5502 -6.90423 1.44149
C -3.12746 -8.3362 1.75645
C -4.27503 -8.76057 2.63106
C -5.10619 -7.47157 2.63942
O -4.92698 -6.95699 1.34679
H -2.37326 -6.23751 3.1213
H -4.12516 -6.91642 4.57743
H -1.75627 -2.31779 1.75467
H -3.01339 -6.53729 0.53935
H -3.14777 -8.93464 0.81772
H -2.12197 -8.40629 2.22505
H -4.83758 -9.55335 2.0856
H -4.00718 -9.13033 3.64397
H -6.12859 -7.80776 2.70572
H -2.90863 -2.59243 0.376
H -1.16537 -3.02871 0.20406
H -12.46583 -8.04604 4.78003
H -13.32163 -8.94259 3.47914
H -13.90907 -7.31203 3.98897
H -6.96892 -7.71752 4.42326
H -8.48924 -7.37001 4.95202
H -7.95042 -4.87489 5.21424
H -7.47514 -6.12367 6.40818
$end

$opt
CONSTRAINT
tors           1           2           3           4      +3.924
tors           3           4           5           6    -148.120
tors           4           5           6           7    -115.437
tors           5           6           7           8     +47.368
tors           6           7           8           9     -95.674
tors           7           8           9          10    -115.312
tors           8           9          10          11    -180.000
tors           9          10          11          12    +151.555
tors          11          12          13          14    -169.759
ENDCONSTRAINT
$end

$rem
JOBTYPE                   OPT
METHOD                    B3LYP
DFT_D                     d3_op
BASIS                     STO-3G
GEOM_OPT_MAX_CYCLES       100
GEOM_OPT_TOL_GRADIENT     300
GEOM_OPT_TOL_DISPLACEMENT 1200
GEOM_OPT_TOL_ENERGY       100
SYMMETRY                  False
THRESH                    12
SCF_CONVERGENCE           8
MAX_SUB_FILE_NUM          128
MEM_STATIC                400
MEM_TOTAL                 4000
$end
--------------------------------------------------------------

   15   -1510.0523814533      7.97E-09 Convergence criterion met
 Total energy in the final basis set = -1510.05238145
   14   -1510.1347291527      9.00E-09 Convergence criterion met
 Total energy in the final basis set = -1510.13472915
   14   -1510.1813533818      9.73E-09 Convergence criterion met
 Total energy in the final basis set = -1510.18135338
   15   -1510.2094316377      1.83E-09 Convergence criterion met
 Total energy in the final basis set = -1510.20943164
   14   -1510.2238701568      6.23E-09 Convergence criterion met
 Total energy in the final basis set = -1510.22387016
   13   -1510.2314134588      5.93E-09 Convergence criterion met
 Total energy in the final basis set = -1510.23141346
   14   -1510.2359387162      3.32E-09 Convergence criterion met
 Total energy in the final basis set = -1510.23593872
   13   -1510.2385859118      6.95E-09 Convergence criterion met
   11   -1510.2421032176      6.41E-09 Convergence criterion met
 Total energy in the final basis set = -1510.24210322
   11   -1510.2421312235      3.04E-09 Convergence criterion met
 Total energy in the final basis set = -1510.24213122
   11   -1510.2421539995      3.34E-09 Convergence criterion met
 Total energy in the final basis set = -1510.24215400
   10   -1510.2421697180      6.00E-09 Convergence criterion met
 Total energy in the final basis set = -1510.24216972
   10   -1510.2421769985      7.94E-09 Convergence criterion met
 Total energy in the final basis set = -1510.24217700
    9   -1510.2421803463      9.38E-09 Convergence criterion met
 Total energy in the final basis set = -1510.24218035

             Standard Nuclear Orientation (Angstroms)
    I     Atom           X                Y                Z
 ----------------------------------------------------------------
    1      O      -4.4538602818    -1.3808669300     1.6934421843
    2      C      -4.8420791803    -1.0331596613     0.5588263348
    3      C      -4.4679910375     0.2419877820    -0.2753604503
    4      C      -3.3757471641     1.2025461552     0.3602644729
    5      C      -2.4040391522     0.4729523371     1.3749480457
    6      O      -1.9461608115     1.3445383242     2.4532668201
    7      C      -0.4951168800     1.6117120912     2.4592584993
    8      C       0.2036212235     2.0226978104     1.1127932793
    9      O       0.8027521265     0.8463999786     0.4486891583
   10      C       2.2376932021     0.9743254074     0.3923335449
   11      C       2.7278407253    -0.3272979421    -0.3277122553
   12      C       4.0641090864    -0.3059487168    -1.1683579822
   13      C       5.2413534287     0.6229109155    -0.6933226954
   14      O       6.2728135148     0.8705134186    -1.3609041968
   15      O      -5.7612341794    -1.7945581660    -0.2371251707
   16      O       5.1064629181     0.9037448242     0.6984759447
   17      O       2.8436866858     1.9814967347     0.8153712643
   18      C       6.2733510177     1.6685408278     1.1937106123
   19      C       2.9454193011    -1.6179619683     0.5967844899
   20      C       2.4491003559    -2.8488678729    -0.2520535012
   21      C       3.5428929029    -2.8622968493    -1.3861447831
   22      C       4.5721440288    -1.7868910154    -0.8466069533
   23      O       4.4095957798    -1.8275071861     0.6264460536
   24      H       1.9009886123    -0.5599161181    -1.0233680960
   25      H       3.8791163107    -0.1380469374    -2.2439302308
   26      H       2.5355323655    -1.5389355796     1.6221626666
   27      H       2.4877714110    -3.7694813866     0.3524554442
   28      H       1.4255814129    -2.7160747763    -0.6372907319
   29      H       4.0250357739    -3.8479784529    -1.4799248711
   30      H       3.1343575569    -2.5749478590    -2.3684996561
   31      H       5.6281986668    -1.9677972320    -1.1266902347
   32      O      -1.9356040304    -0.6718150402     1.1987119593
   33      C      -6.1498280368    -3.0305818219     0.4794698636
   34      C      -3.8886021324    -0.0398942510    -1.7281812988
   35      C      -4.3232216668     1.1757461759    -2.6320977325
   36      C      -3.4599719675     2.3234275471    -1.9893957697
   37      C      -2.5530868559     1.5095174713    -0.9773472295
   38      O      -2.4307442025     0.1670365681    -1.5867985510
   39      H      -5.4139247094     0.8063473945    -0.3817675977
   40      H      -3.8126544766     2.1055437100     0.8204550660
   41      H      -6.6603125497    -2.8055618258     1.4381849484
   42      H      -4.1137919134    -1.0475050772    -2.1276919188
   43      H      -4.0366676789     0.9961627420    -3.6808823345
   44      H      -5.4061052634     1.3724928774    -2.5857690800
   45      H      -2.8358131398     2.8350659580    -2.7386843261
   46      H      -4.0765476160     3.0757152971    -1.4717792016
   47      H      -1.5495865248     1.9411585258    -0.8295702898
   48      H      -5.2706369202    -3.6725220036     0.6926166916
   49      H      -6.8452664298    -3.5667089234    -0.1922972212
   50      H       5.9416870082     2.6832786509     1.4906807460
   51      H       7.0383791026     1.7354131582     0.3937612642
   52      H       6.6840359193     1.1425129389     2.0770776781
   53      H      -0.5018107374     2.5252079354     0.4255491298
   54      H       1.0383356226     2.7237880064     1.3423129407
   55      H       0.0691548877     0.7381092074     2.8646474329
   56      H      -0.3881917508     2.4458679091     3.1841778312
 ----------------------------------------------------------------

    9   -1510.2421811654      3.35E-09 Convergence criterion met
 Total energy in the final basis set = -1510.24218117
 Final energy is   -1510.24218116541
 **  OPTIMIZATION CONVERGED  **

                    Orbital Energies (a.u.)
 --------------------------------------------------------------

 Alpha MOs
 -- Occupied --
-18.932 -18.928 -18.928 -18.898 -18.893 -18.887 -18.887 -18.883
-18.878 -18.863 -10.101 -10.099 -10.097 -10.092 -10.070 -10.065
-10.065 -10.064 -10.063 -10.059 -10.059 -10.049 -10.040 -10.038
-10.038 -10.036 -10.025 -10.023 -10.019 -10.016  -1.014  -1.011
 -1.003  -0.995  -0.975  -0.970  -0.939  -0.936  -0.926  -0.924
 -0.765  -0.762  -0.725  -0.721  -0.713  -0.710  -0.694  -0.662
 -0.652  -0.618  -0.599  -0.579  -0.549  -0.543  -0.542  -0.536
 -0.514  -0.508  -0.479  -0.470  -0.465  -0.462  -0.452  -0.438
 -0.434  -0.433  -0.419  -0.413  -0.411  -0.410  -0.405  -0.400
 -0.383  -0.377  -0.375  -0.372  -0.366  -0.359  -0.350  -0.348
 -0.344  -0.337  -0.336  -0.331  -0.329  -0.327  -0.320  -0.316
 -0.311  -0.307  -0.303  -0.300  -0.294  -0.288  -0.283  -0.278
 -0.268  -0.254  -0.246  -0.239  -0.238  -0.233  -0.229  -0.178
 -0.177  -0.173  -0.160  -0.153  -0.151  -0.148  -0.147  -0.142
 -0.141

          Ground-State Mulliken Net Atomic Charges

     Atom                 Charge (a.u.)
  ----------------------------------------
      1 O                    -0.206104
      2 C                     0.210797
      3 C                    -0.079472
      4 C                    -0.079097
      5 C                     0.218387
      6 O                    -0.196377
      7 C                    -0.046684
      8 C                    -0.064776
      9 O                    -0.176431
     10 C                     0.211188
     11 C                    -0.079852
     12 C                    -0.077020
     13 C                     0.210378
     14 O                    -0.222439
     15 O                    -0.174424
     16 O                    -0.157623
     17 O                    -0.204485
     18 C                    -0.133880
     19 C                     0.028766
     20 C                    -0.140917
     21 C                    -0.145634
     22 C                     0.024488
     23 O                    -0.187907
     24 H                     0.090603
     25 H                     0.085470
     26 H                     0.086099
     27 H                     0.078487
     28 H                     0.080024
     29 H                     0.078477
     30 H                     0.074449
     31 H                     0.084523
     32 O                    -0.180017
     33 C                    -0.128726
     34 C                     0.026188
     35 C                    -0.141534
     36 C                    -0.145584
     37 C                     0.023795
     38 O                    -0.186322
     39 H                     0.083699
     40 H                     0.085843
     41 H                     0.088502
     42 H                     0.089766
     43 H                     0.078346
     44 H                     0.075044
     45 H                     0.078300
     46 H                     0.074180
     47 H                     0.080795
     48 H                     0.090879
     49 H                     0.089565
     50 H                     0.086806
     51 H                     0.100074
     52 H                     0.086529
     53 H                     0.080178
     54 H                     0.102027
     55 H                     0.083887
     56 H                     0.088770
  ----------------------------------------
  Sum of atomic charges =    -0.000000

                    Cartesian Multipole Moments
 -----------------------------------------------------------------
    Charge (ESU x 10^10)
                -0.0000
    Dipole Moment (Debye)
         X      -2.9183      Y       0.8752      Z      -1.6340
       Tot       3.4573
    Quadrupole Moments (Debye-Ang)
        XX    -157.1631     XY      -3.4468     YY    -150.8540
        XZ       8.2053     YZ       3.5936     ZZ    -162.3198

 Total job time:  64.57s(wall), 3072.13s(cpu)
        *  Thank you very much for using Q-Chem.  Have a nice day.  *
