 Q-Chem 5.0, Q-Chem, Inc., Pleasanton, CA (2017)
 Q-Chem 5.0.1 for Intel X86 EM64T Linux

User input:
--------------------------------------------------------------
$molecule
0  1
O -3.94934 -3.66094 2.70899
C -3.26408 -4.56952 2.26188
C -3.36658 -6.02376 2.66595
C -2.05 -6.79497 2.85493
C -0.77662 -5.98092 2.79249
O -0.19703 -6.11962 1.56356
C 0.81253 -5.13869 1.30313
C 2.14816 -5.82023 1.02436
O 3.17353 -4.83124 0.8416
C 2.76212 -3.54189 0.92808
C 3.81276 -2.62689 1.51082
C 3.95327 -1.27031 0.80496
C 2.81654 -0.88626 -0.1208
O 2.82148 0.06025 -0.89453
O -2.54884 -4.33573 1.1317
O 1.57938 -1.03131 0.45644
O 2.0712 -3.23535 -0.02619
C 0.36905 -0.57272 -0.0376
C 3.4989 -2.1608 2.94789
C 4.79955 -1.77421 3.65118
C 5.15803 -0.50272 2.90401
C 3.9078 -0.33731 2.03062
O 2.8767 -0.90842 2.80068
H 4.77867 -3.1834 1.53423
H 4.89401 -1.19654 0.21654
H 2.94361 -2.91792 3.54365
H 4.5278 -1.50696 4.69789
H 5.59319 -2.55168 3.67073
H 5.24674 0.32442 3.64272
H 6.07624 -0.56102 2.28027
H 3.76607 0.72701 1.73994
O -0.50714 -5.12363 3.62802
C -2.48065 -3.11728 0.49373
C -4.00247 -6.22105 4.05683
C -4.57241 -7.63505 4.17757
C -3.29873 -8.44464 4.30418
C -2.25334 -7.32621 4.28492
O -2.90105 -6.25623 4.93175
H -3.99656 -6.50485 1.88431
H -1.96264 -7.62921 2.12097
H -2.04993 -2.35479 1.17681
H -4.79288 -5.47559 4.29178
H -5.12642 -7.69769 5.14146
H -5.24555 -7.93284 3.345
H -3.2953 -8.94088 5.30039
H -3.13274 -9.20002 3.50596
H -1.30302 -7.67583 4.74584
H -3.49387 -2.79887 0.16751
H -1.83694 -3.21815 -0.40333
H -0.30362 -1.43572 -0.18638
H 0.46544 -0.05274 -1.01436
H -0.08847 0.12075 0.69702
H 2.42518 -6.44491 1.89993
H 2.07374 -6.46881 0.12596
H 0.9253 -4.39955 2.12636
H 0.42004 -4.6209 0.40747
$end

$opt
CONSTRAINT
tors           1           2           3           4    -138.495
tors           3           4           5           6    -100.420
tors           4           5           6           7    +165.282
tors           5           6           7           8    +121.108
tors           6           7           8           9    -176.626
tors           7           8           9          10      -0.996
tors           8           9          10          11    +146.987
tors           9          10          11          12    +137.787
tors          11          12          13          14    -170.141
ENDCONSTRAINT
$end

$rem
JOBTYPE                   OPT
METHOD                    B3LYP
DFT_D                     d3_op
BASIS                     STO-3G
GEOM_OPT_MAX_CYCLES       100
GEOM_OPT_TOL_GRADIENT     300
GEOM_OPT_TOL_DISPLACEMENT 1200
GEOM_OPT_TOL_ENERGY       100
SYMMETRY                  False
THRESH                    12
SCF_CONVERGENCE           8
MAX_SUB_FILE_NUM          128
MEM_STATIC                400
MEM_TOTAL                 4000
$end
--------------------------------------------------------------

   15   -1510.0768793201      8.83E-09 Convergence criterion met
 Total energy in the final basis set = -1510.07687932
   14   -1510.1559884503      6.76E-09 Convergence criterion met
 Total energy in the final basis set = -1510.15598845
   15   -1510.1995831493      2.75E-09 Convergence criterion met
 Total energy in the final basis set = -1510.19958315
   14   -1510.2245366860      8.63E-09 Convergence criterion met
 Total energy in the final basis set = -1510.22453669
   14   -1510.2383128690      9.78E-09 Convergence criterion met
 Total energy in the final basis set = -1510.23831287
   13   -1510.2463672407      9.63E-09 Convergence criterion met
 Total energy in the final basis set = -1510.24636724
   13   -1510.2514139752      4.64E-09 Convergence criterion met
 Total energy in the final basis set = -1510.25141398
   13   -1510.2547521174      7.61E-09 Convergence criterion met
   13   -1510.2624486456      5.48E-09 Convergence criterion met
 Total energy in the final basis set = -1510.26244865
   12   -1510.2630159506      9.58E-09 Convergence criterion met
 Total energy in the final basis set = -1510.26301595
   13   -1510.2632071983      7.41E-09 Convergence criterion met
 Total energy in the final basis set = -1510.26320720
   12   -1510.2633303632      2.29E-09 Convergence criterion met
 Total energy in the final basis set = -1510.26333036
   11   -1510.2633625605      7.67E-09 Convergence criterion met
 Total energy in the final basis set = -1510.26336256
   11   -1510.2633689921      5.74E-09 Convergence criterion met
 Total energy in the final basis set = -1510.26336899

             Standard Nuclear Orientation (Angstroms)
    I     Atom           X                Y                Z
 ----------------------------------------------------------------
    1      O      -4.2109860639     1.7494659662     2.2963914905
    2      C      -3.8842623912     1.3586621168     1.1554225777
    3      C      -4.8078671911     0.6154293479     0.1206254883
    4      C      -4.1311829710    -0.5886622325    -0.6667320069
    5      C      -2.6010801561    -0.7578483328    -0.3804580330
    6      O      -1.8779572907    -0.1713634670    -1.4763934003
    7      C      -0.4535878903     0.0140993947    -1.0974809908
    8      C       0.4203263195    -0.7973191389    -2.1223490113
    9      O       1.8964849037    -0.8507198616    -1.9341149693
   10      C       2.4223652690    -0.1201188988    -0.8144966305
   11      C       3.6747030204    -0.9182108232    -0.2899842245
   12      C       4.9371132794    -0.0547588376     0.1032052537
   13      C       5.1803730871     1.3172640630    -0.6168453916
   14      O       6.2282582118     1.9964825492    -0.5166450562
   15      O      -2.5946530846     1.5687043643     0.5743455088
   16      O       4.1315375852     1.6135365764    -1.5416269622
   17      O       1.8958279848     0.8755340570    -0.2762161953
   18      C       4.4107436157     2.8744639425    -2.2661511672
   19      C       3.2560790388    -1.4405975764     1.1567982276
   20      C       4.3830509820    -2.3781724697     1.7500006470
   21      C       5.4339881732    -1.3215817032     2.2573205059
   22      C       4.7983475759     0.0077431523     1.6940595593
   23      O       3.3553079561    -0.1949007138     1.9546138954
   24      H       3.9201734388    -1.7274500429    -0.9988007047
   25      H       5.8440831708    -0.6427556977    -0.1339788529
   26      H       2.2295040430    -1.8530613142     1.2103528145
   27      H       3.9839344629    -2.9877837820     2.5757452365
   28      H       4.7987115744    -3.0513692726     0.9829920021
   29      H       5.4703142228    -1.2890987639     3.3581874139
   30      H       6.4497838099    -1.5038394356     1.8722595772
   31      H       5.1558786275     0.9472286098     2.1581881371
   32      O      -2.0632990292    -1.3055182910     0.6069417726
   33      C      -1.6791837923     2.1919557665     1.5585204915
   34      C      -5.9642244322    -0.1438563743     0.8934153061
   35      C      -7.0814963965    -0.5624135735    -0.1402807349
   36      C      -6.3931784071    -1.7850690126    -0.8557886460
   37      C      -4.9921220421    -1.8114527940    -0.1267867574
   38      O      -5.3221316201    -1.4263055891     1.2636159385
   39      H      -5.2089105907     1.3658666812    -0.5863229865
   40      H      -4.2554298293    -0.4513461817    -1.7554548691
   41      H      -1.5377270532     1.5407155670     2.4448293896
   42      H      -6.3130638314     0.3913888482     1.7980736197
   43      H      -8.0016551670    -0.8648402657     0.3841497623
   44      H      -7.3236092195     0.2554205147    -0.8374498969
   45      H      -6.9414399102    -2.7223557221    -0.6687743894
   46      H      -6.2953622906    -1.6433511676    -1.9439544236
   47      H      -4.4646862611    -2.7848409939    -0.1421453804
   48      H      -2.0575075698     3.1776942760     1.8974478328
   49      H      -0.7124286254     2.3205788777     1.0378046056
   50      H       4.3987576492     2.6668533305    -3.3538620457
   51      H       5.4039603019     3.2599208656    -1.9579599674
   52      H       3.6202670831     3.6115402665    -2.0232644366
   53      H       0.0745133409    -1.8549118364    -2.1120663294
   54      H       0.2318820839    -0.3949333730    -3.1422960787
   55      H      -0.3153013964    -0.3647786324    -0.0628358728
   56      H      -0.2228849079     1.0960334651    -1.1431642158
 ----------------------------------------------------------------

    9   -1510.2633695039      6.45E-09 Convergence criterion met
 Total energy in the final basis set = -1510.26336950
 Final energy is   -1510.26336950387
 **  OPTIMIZATION CONVERGED  **

                    Orbital Energies (a.u.)
 --------------------------------------------------------------

 Alpha MOs
 -- Occupied --
-18.938 -18.938 -18.923 -18.921 -18.890 -18.885 -18.877 -18.874
-18.871 -18.870 -10.102 -10.100 -10.100 -10.097 -10.070 -10.062
-10.062 -10.061 -10.061 -10.059 -10.058 -10.056 -10.039 -10.038
-10.037 -10.036 -10.022 -10.021 -10.020 -10.019  -1.015  -1.014
 -1.004  -1.000  -0.972  -0.968  -0.937  -0.937  -0.933  -0.929
 -0.764  -0.762  -0.726  -0.722  -0.711  -0.705  -0.694  -0.661
 -0.660  -0.618  -0.597  -0.581  -0.545  -0.544  -0.538  -0.537
 -0.512  -0.508  -0.480  -0.473  -0.463  -0.458  -0.450  -0.443
 -0.437  -0.433  -0.426  -0.413  -0.411  -0.410  -0.409  -0.392
 -0.388  -0.379  -0.375  -0.370  -0.363  -0.354  -0.350  -0.347
 -0.346  -0.336  -0.334  -0.332  -0.329  -0.328  -0.324  -0.315
 -0.309  -0.307  -0.305  -0.299  -0.295  -0.291  -0.286  -0.273
 -0.272  -0.252  -0.249  -0.241  -0.236  -0.234  -0.232  -0.178
 -0.177  -0.169  -0.165  -0.158  -0.157  -0.150  -0.149  -0.143
 -0.140

          Ground-State Mulliken Net Atomic Charges

     Atom                 Charge (a.u.)
  ----------------------------------------
      1 O                    -0.209214
      2 C                     0.212425
      3 C                    -0.077438
      4 C                    -0.079824
      5 C                     0.214997
      6 O                    -0.176037
      7 C                    -0.055648
      8 C                    -0.051513
      9 O                    -0.179526
     10 C                     0.221294
     11 C                    -0.077496
     12 C                    -0.080093
     13 C                     0.210431
     14 O                    -0.218253
     15 O                    -0.170572
     16 O                    -0.166639
     17 O                    -0.209480
     18 C                    -0.134966
     19 C                     0.024843
     20 C                    -0.145328
     21 C                    -0.141509
     22 C                     0.026378
     23 O                    -0.185444
     24 H                     0.086910
     25 H                     0.085210
     26 H                     0.082987
     27 H                     0.079464
     28 H                     0.074175
     29 H                     0.078884
     30 H                     0.074715
     31 H                     0.086976
     32 O                    -0.218063
     33 C                    -0.128893
     34 C                     0.023851
     35 C                    -0.144508
     36 C                    -0.143604
     37 C                     0.025218
     38 O                    -0.187974
     39 H                     0.085179
     40 H                     0.085142
     41 H                     0.094251
     42 H                     0.091127
     43 H                     0.078345
     44 H                     0.072839
     45 H                     0.077850
     46 H                     0.072883
     47 H                     0.084366
     48 H                     0.089887
     49 H                     0.097720
     50 H                     0.086492
     51 H                     0.103276
     52 H                     0.088262
     53 H                     0.083391
     54 H                     0.084520
     55 H                     0.099986
     56 H                     0.097748
  ----------------------------------------
  Sum of atomic charges =    -0.000000

                    Cartesian Multipole Moments
 -----------------------------------------------------------------
    Charge (ESU x 10^10)
                 0.0000
    Dipole Moment (Debye)
         X       0.1620      Y      -0.6945      Z      -2.8737
       Tot       2.9609
    Quadrupole Moments (Debye-Ang)
        XX    -151.9585     XY      -8.0042     YY    -155.0828
        XZ      11.2209     YZ      -1.3245     ZZ    -162.8282

 Total job time:  104.99s(wall), 5002.76s(cpu)
        *  Thank you very much for using Q-Chem.  Have a nice day.  *
