 Q-Chem 5.0, Q-Chem, Inc., Pleasanton, CA (2017)
 Q-Chem 5.0.1 for Intel X86 EM64T Linux

User input:
--------------------------------------------------------------
$molecule
0  1
O -4.2109860639 1.7494659662 2.2963914905
C -3.8842623912 1.3586621168 1.1554225777
C -4.8078671911 0.6154293479 0.1206254883
C -4.131182971 -0.5886622325 -0.6667320069
C -2.6010801561 -0.7578483328 -0.380458033
O -1.8779572907 -0.171363467 -1.4763934003
C -0.4535878903 0.0140993947 -1.0974809908
C 0.4203263195 -0.7973191389 -2.1223490113
O 1.8964849037 -0.8507198616 -1.9341149693
C 2.422365269 -0.1201188988 -0.8144966305
C 3.6747030204 -0.9182108232 -0.2899842245
C 4.9371132794 -0.0547588376 0.1032052537
C 5.1803730871 1.317264063 -0.6168453916
O 6.2282582118 1.9964825492 -0.5166450562
O -2.5946530846 1.5687043643 0.5743455088
O 4.1315375852 1.6135365764 -1.5416269622
O 1.8958279848 0.875534057 -0.2762161953
C 4.4107436157 2.8744639425 -2.2661511672
C 3.2560790388 -1.4405975764 1.1567982276
C 4.383050982 -2.3781724697 1.750000647
C 5.4339881732 -1.3215817032 2.2573205059
C 4.7983475759 0.0077431523 1.6940595593
O 3.3553079561 -0.1949007138 1.9546138954
H 3.9201734388 -1.7274500429 -0.9988007047
H 5.8440831708 -0.6427556977 -0.1339788529
H 2.229504043 -1.8530613142 1.2103528145
H 3.9839344629 -2.987783782 2.5757452365
H 4.7987115744 -3.0513692726 0.9829920021
H 5.4703142228 -1.2890987639 3.3581874139
H 6.4497838099 -1.5038394356 1.8722595772
H 5.1558786275 0.9472286098 2.1581881371
O -2.0632990292 -1.305518291 0.6069417726
C -1.6791837923 2.1919557665 1.5585204915
C -5.9642244322 -0.1438563743 0.8934153061
C -7.0814963965 -0.5624135735 -0.1402807349
C -6.3931784071 -1.7850690126 -0.855788646
C -4.9921220421 -1.811452794 -0.1267867574
O -5.3221316201 -1.4263055891 1.2636159385
H -5.2089105907 1.3658666812 -0.5863229865
H -4.2554298293 -0.4513461817 -1.7554548691
H -1.5377270532 1.540715567 2.4448293896
H -6.3130638314 0.3913888482 1.7980736197
H -8.001655167 -0.8648402657 0.3841497623
H -7.3236092195 0.2554205147 -0.8374498969
H -6.9414399102 -2.7223557221 -0.6687743894
H -6.2953622906 -1.6433511676 -1.9439544236
H -4.4646862611 -2.7848409939 -0.1421453804
H -2.0575075698 3.177694276 1.8974478328
H -0.7124286254 2.3205788777 1.0378046056
H 4.3987576492 2.6668533305 -3.3538620457
H 5.4039603019 3.2599208656 -1.9579599674
H 3.6202670831 3.6115402665 -2.0232644366
H 0.0745133409 -1.8549118364 -2.1120663294
H 0.2318820839 -0.394933373 -3.1422960787
H -0.3153013964 -0.3647786324 -0.0628358728
H -0.2228849079 1.0960334651 -1.1431642158
$end

$rem
JOBTYPE                   OPT
METHOD                    B3LYP
DFT_D                     d3_op
BASIS                     STO-3G
GEOM_OPT_MAX_CYCLES       100
GEOM_OPT_TOL_GRADIENT     300
GEOM_OPT_TOL_DISPLACEMENT 1200
GEOM_OPT_TOL_ENERGY       100
SYMMETRY                  False
THRESH                    12
SCF_CONVERGENCE           8
MAX_SUB_FILE_NUM          128
MEM_STATIC                400
MEM_TOTAL                 4000
$end
--------------------------------------------------------------

   16   -1510.2631146605      5.64E-09 Convergence criterion met
 Total energy in the final basis set = -1510.26311466
   14   -1510.2660801782      7.06E-09 Convergence criterion met
 Total energy in the final basis set = -1510.26608018
   13   -1510.2685304698      8.63E-09 Convergence criterion met
 Total energy in the final basis set = -1510.26853047
   14   -1510.2708481685      5.54E-09 Convergence criterion met
 Total energy in the final basis set = -1510.27084817
   14   -1510.2725500742      4.27E-09 Convergence criterion met
 Total energy in the final basis set = -1510.27255007
   13   -1510.2739713879      4.32E-09 Convergence criterion met
 Total energy in the final basis set = -1510.27397139
   12   -1510.2753471027      8.93E-09 Convergence criterion met
 Total energy in the final basis set = -1510.27534710
   13   -1510.2767156692      6.67E-09 Convergence criterion met
   12   -1510.2871954989      4.22E-09 Convergence criterion met
 Total energy in the final basis set = -1510.28719550
   14   -1510.2861308595      3.17E-09 Convergence criterion met
 Total energy in the final basis set = -1510.28613086
   13   -1510.2873394561      5.75E-09 Convergence criterion met
 Total energy in the final basis set = -1510.28733946
   12   -1510.2873735152      4.44E-09 Convergence criterion met
 Total energy in the final basis set = -1510.28737352
   12   -1510.2873930393      4.12E-09 Convergence criterion met
 Total energy in the final basis set = -1510.28739304
   11   -1510.2874034731      4.17E-09 Convergence criterion met
 Total energy in the final basis set = -1510.28740347

             Standard Nuclear Orientation (Angstroms)
    I     Atom           X                Y                Z
 ----------------------------------------------------------------
    1      O      -4.6863693582    -0.8678807779     2.8243884055
    2      C      -4.2102611764    -0.0205878109     2.0409685936
    3      C      -4.9331555694     0.7004622549     0.8480006395
    4      C      -4.1255986579     0.6329994630    -0.5192162538
    5      C      -2.7645713346    -0.1309938278    -0.3894485141
    6      O      -1.7010550394     0.8175815887    -0.5768286306
    7      C      -0.3885901944     0.1548141781    -0.4009166095
    8      C       0.2879017718    -0.0807718506    -1.8030186939
    9      O       1.5323875070    -0.8817942121    -1.6785967419
   10      C       2.5923172654    -0.0863651309    -1.1426802786
   11      C       3.8539084014    -0.9946490783    -0.9668840674
   12      C       5.1036937550    -0.2076170021    -0.3991369850
   13      C       4.8865637758     1.3447173771    -0.2437794861
   14      O       4.7341500714     1.9880774112     0.8158365307
   15      O      -2.8648994662     0.4705176576     2.1010714094
   16      O       5.0422845530     1.9361222997    -1.5435036512
   17      O       2.4836470720     1.1266911204    -0.8527710102
   18      C       4.7781001251     3.3893975998    -1.4652228891
   19      C       3.6162667288    -2.0540378579     0.1960664654
   20      C       4.7741590022    -3.1276422798     0.1422195181
   21      C       5.9704209525    -2.3199598288     0.7703446455
   22      C       5.2931643852    -0.9149568341     1.0079673145
   23      O       3.9116558516    -1.2693572471     1.4148521455
   24      H       4.0730783240    -1.4909028573    -1.9294004421
   25      H       5.9803359182    -0.3614790499    -1.0536606180
   26      H       2.5883292044    -2.4652896276     0.2292160503
   27      H       4.5129154703    -4.0071269744     0.7520520810
   28      H       4.9795774124    -3.4600370354    -0.8878051757
   29      H       6.2913704060    -2.7573691665     1.7291619448
   30      H       6.8431733427    -2.2570776486     0.1009795903
   31      H       5.7658604271    -0.2727491977     1.7760697011
   32      O      -2.5892667545    -1.3514057823    -0.1807039151
   33      C      -2.0985606617    -0.2552588051     3.1392888993
   34      C      -6.2684576083    -0.0543429647     0.4537525954
   35      C      -7.1349104185     0.8988596428    -0.4579002611
   36      C      -6.3369191993     0.8297223273    -1.8133028236
   37      C      -5.1644404406    -0.1567174895    -1.4282022743
   38      O      -5.8005523205    -1.1023869023    -0.4834865577
   39      H      -5.1218396170     1.7510079507     1.1368937198
   40      H      -3.9181812864     1.6441948404    -0.9103782946
   41      H      -2.0138662623    -1.3338680314     2.8941405747
   42      H      -6.7929849530    -0.5121013339     1.3151099158
   43      H      -8.1561648972     0.5015021230    -0.5699999604
   44      H      -7.1958651509     1.9211188817    -0.0513697558
   45      H      -6.9492196079     0.3988680867    -2.6212901823
   46      H      -5.9623764396     1.8134581494    -2.1387536214
   47      H      -4.7096336466    -0.7052258003    -2.2758292101
   48      H      -2.5667022261    -0.1537864476     4.1393065539
   49      H      -1.0920966147     0.2020527287     3.1506473040
   50      H       4.9658555808     3.7913401238    -2.4779449006
   51      H       5.4465447068     3.8910960005    -0.7360479247
   52      H       3.7259076272     3.5885955707    -1.1755847802
   53      H      -0.3845288425    -0.6815963676    -2.4480614190
   54      H       0.4928607934     0.8959266946    -2.2908635595
   55      H      -0.5322321754    -0.8215924526     0.1094496203
   56      H       0.2452751608     0.8261788324     0.2128982437
 ----------------------------------------------------------------

   11   -1510.2874030714      4.28E-09 Convergence criterion met
 Total energy in the final basis set = -1510.28740307
 Final energy is   -1510.28740307139
 **  OPTIMIZATION CONVERGED  **

                    Orbital Energies (a.u.)
 --------------------------------------------------------------

 Alpha MOs
 -- Occupied --
-18.944 -18.936 -18.932 -18.918 -18.888 -18.887 -18.887 -18.880
-18.872 -18.860 -10.109 -10.101 -10.100 -10.090 -10.076 -10.067
-10.064 -10.062 -10.061 -10.058 -10.057 -10.054 -10.042 -10.039
-10.038 -10.033 -10.021 -10.021 -10.020 -10.019  -1.023  -1.016
 -1.007  -0.997  -0.971  -0.970  -0.947  -0.939  -0.935  -0.924
 -0.765  -0.763  -0.728  -0.723  -0.713  -0.706  -0.696  -0.662
 -0.654  -0.621  -0.597  -0.582  -0.547  -0.546  -0.538  -0.537
 -0.511  -0.510  -0.486  -0.473  -0.463  -0.454  -0.454  -0.451
 -0.438  -0.431  -0.429  -0.414  -0.413  -0.407  -0.403  -0.396
 -0.395  -0.385  -0.375  -0.365  -0.363  -0.357  -0.352  -0.350
 -0.344  -0.342  -0.333  -0.332  -0.329  -0.329  -0.325  -0.313
 -0.311  -0.308  -0.305  -0.302  -0.295  -0.287  -0.276  -0.274
 -0.273  -0.263  -0.253  -0.247  -0.244  -0.235  -0.234  -0.195
 -0.179  -0.169  -0.164  -0.161  -0.160  -0.151  -0.145  -0.144
 -0.141

          Ground-State Mulliken Net Atomic Charges

     Atom                 Charge (a.u.)
  ----------------------------------------
      1 O                    -0.206178
      2 C                     0.213402
      3 C                    -0.078021
      4 C                    -0.078889
      5 C                     0.212362
      6 O                    -0.170720
      7 C                    -0.057924
      8 C                    -0.049777
      9 O                    -0.169873
     10 C                     0.214828
     11 C                    -0.077770
     12 C                    -0.081798
     13 C                     0.215697
     14 O                    -0.217438
     15 O                    -0.171385
     16 O                    -0.176810
     17 O                    -0.207697
     18 C                    -0.128584
     19 C                     0.024701
     20 C                    -0.143861
     21 C                    -0.143774
     22 C                     0.024577
     23 O                    -0.190543
     24 H                     0.087807
     25 H                     0.083876
     26 H                     0.085541
     27 H                     0.078598
     28 H                     0.073904
     29 H                     0.078203
     30 H                     0.073564
     31 H                     0.089348
     32 O                    -0.218195
     33 C                    -0.129137
     34 C                     0.024238
     35 C                    -0.144014
     36 C                    -0.143885
     37 C                     0.025458
     38 O                    -0.186414
     39 H                     0.085780
     40 H                     0.086663
     41 H                     0.092675
     42 H                     0.090880
     43 H                     0.078608
     44 H                     0.073249
     45 H                     0.078200
     46 H                     0.073462
     47 H                     0.082928
     48 H                     0.090968
     49 H                     0.092632
     50 H                     0.085588
     51 H                     0.086745
     52 H                     0.091247
     53 H                     0.090819
     54 H                     0.092427
     55 H                     0.098503
     56 H                     0.095211
  ----------------------------------------
  Sum of atomic charges =    -0.000000

                    Cartesian Multipole Moments
 -----------------------------------------------------------------
    Charge (ESU x 10^10)
                -0.0000
    Dipole Moment (Debye)
         X       0.7151      Y       0.9973      Z      -2.2541
       Tot       2.5665
    Quadrupole Moments (Debye-Ang)
        XX    -149.4377     XY     -20.3458     YY    -160.6919
        XZ      -0.4458     YZ      -1.1214     ZZ    -157.9579

 Total job time:  107.10s(wall), 5097.12s(cpu)
        *  Thank you very much for using Q-Chem.  Have a nice day.  *
