 Q-Chem 5.0, Q-Chem, Inc., Pleasanton, CA (2017)
 Q-Chem 5.0.1 for Intel X86 EM64T Linux

User input:
--------------------------------------------------------------
$molecule
0  1
O -3.94934 -3.66094 2.70899
C -3.26408 -4.56952 2.26188
C -3.36658 -6.02376 2.66595
C -2.27333 -6.57303 3.59705
C -1.29943 -5.56331 4.16282
O -1.60538 -5.30474 5.46857
C -0.6426 -4.46723 6.11733
C 0.39562 -3.98255 5.1107
O 1.68762 -3.91471 5.73441
C 2.5285 -2.97614 5.23326
C 3.86838 -2.9546 5.9296
C 5.02898 -2.41114 5.08347
C 4.6356 -1.65273 3.83176
O 3.81373 -2.0245 3.00662
O -2.37515 -4.28558 1.27142
O 5.16149 -0.40703 3.66876
O 2.07305 -1.95239 4.73518
C 4.8714 0.43516 2.61541
C 3.93847 -2.00185 7.14231
C 5.00659 -2.50063 8.11187
C 6.26299 -2.23196 7.3066
C 5.66889 -1.46155 6.11798
O 4.53319 -0.82405 6.65063
H 4.07133 -3.99188 6.28504
H 5.68926 -3.2395 4.74585
H 2.96504 -1.87836 7.66542
H 4.98599 -1.80822 8.98432
H 4.89295 -3.54434 8.47589
H 6.93861 -1.5926 7.91684
H 6.80371 -3.13763 6.9555
H 6.44462 -0.79875 5.67735
O -0.90816 -4.79221 3.29114
C -2.15949 -3.02369 0.75794
C -4.61987 -6.31982 3.5276
C -5.02192 -7.7846 3.36913
C -3.89611 -8.46532 4.11548
C -3.15948 -7.24179 4.67553
O -4.16967 -6.2828 4.85877
H -3.47756 -6.60056 1.71992
H -1.64347 -7.33111 3.08097
H -1.8033 -2.34105 1.55901
H -5.48873 -5.66834 3.28817
H -5.96442 -7.92171 3.94699
H -5.18148 -8.13541 2.3269
H -4.33734 -9.07814 4.93263
H -3.22225 -9.09071 3.49071
H -2.58333 -7.53495 5.58063
H -3.09663 -2.62565 0.31343
H -1.38433 -3.08073 -0.03344
H 5.43999 1.37971 2.73792
H 3.7857 0.67048 2.60136
H 5.1664 -0.03842 1.65471
H 0.81807 -4.79473 4.47579
H 0.06967 -3.08915 4.527
H -0.15242 -5.09785 6.89026
H -1.12337 -3.60239 6.62044
$end

$opt
CONSTRAINT
tors           1           2           3           4    -104.211
tors           3           4           5           6    +103.784
tors           4           5           6           7    +173.662
tors           5           6           7           8      +5.638
tors           6           7           8           9    -143.779
tors           7           8           9          10    -150.588
tors           8           9          10          11    -180.000
tors           9          10          11          12    +154.358
tors          11          12          13          14     -47.368
ENDCONSTRAINT
$end

$rem
JOBTYPE                   OPT
METHOD                    B3LYP
DFT_D                     d3_op
BASIS                     STO-3G
GEOM_OPT_MAX_CYCLES       100
GEOM_OPT_TOL_GRADIENT     300
GEOM_OPT_TOL_DISPLACEMENT 1200
GEOM_OPT_TOL_ENERGY       100
SYMMETRY                  False
THRESH                    12
SCF_CONVERGENCE           8
MAX_SUB_FILE_NUM          128
MEM_STATIC                400
MEM_TOTAL                 4000
$end
--------------------------------------------------------------

   15   -1510.0635410934      8.22E-09 Convergence criterion met
 Total energy in the final basis set = -1510.06354109
   15   -1510.1434045479      2.71E-09 Convergence criterion met
 Total energy in the final basis set = -1510.14340455
   14   -1510.1951468540      9.41E-09 Convergence criterion met
 Total energy in the final basis set = -1510.19514685
   14   -1510.2244825040      9.07E-09 Convergence criterion met
 Total energy in the final basis set = -1510.22448250
   14   -1510.2409360362      7.47E-09 Convergence criterion met
 Total energy in the final basis set = -1510.24093604
   14   -1510.2503589169      4.76E-09 Convergence criterion met
 Total energy in the final basis set = -1510.25035892
    2   -1510.2503589167      1.69E-09 Convergence criterion met
 Total energy in the final basis set = -1510.25035892
   13   -1510.2560787723      4.72E-09 Convergence criterion met
    9   -1510.2662325846      9.40E-09 Convergence criterion met
 Total energy in the final basis set = -1510.26623258
    9   -1510.2662361761      9.59E-09 Convergence criterion met
 Total energy in the final basis set = -1510.26623618
    9   -1510.2662383277      8.82E-09 Convergence criterion met
 Total energy in the final basis set = -1510.26623833
   10   -1510.2662417293      7.75E-09 Convergence criterion met
 Total energy in the final basis set = -1510.26624173
   10   -1510.2662459884      4.81E-09 Convergence criterion met
 Total energy in the final basis set = -1510.26624599
    9   -1510.2662496140      9.36E-09 Convergence criterion met
 Total energy in the final basis set = -1510.26624961

             Standard Nuclear Orientation (Angstroms)
    I     Atom           X                Y                Z
 ----------------------------------------------------------------
    1      O      -4.3378711791     1.4458615663     2.0640035294
    2      C      -4.3856264874     1.5907935160     0.8235172234
    3      C      -5.1881930662     0.7286803147    -0.2138362892
    4      C      -4.2753630713    -0.2806923129    -1.0461078897
    5      C      -2.7403021293    -0.1475213404    -0.7087169586
    6      O      -2.3713878165    -1.2408809970     0.1210356577
    7      C      -0.9363291873    -1.4411274154     0.4757292369
    8      C       0.1438336486    -0.3768016842     0.0465020917
    9      O       1.3699459141    -1.1433680767    -0.2903802675
   10      C       2.5369320621    -0.3547851466    -0.0320577499
   11      C       3.7965172654    -1.2096471055    -0.4038270013
   12      C       5.0564205212    -0.3316318287    -0.7888421243
   13      C       4.7068335483     1.1622020421    -1.1389915949
   14      O       3.7951513027     1.5509833750    -1.9010250118
   15      O      -3.7104772058     2.6283079056     0.1057849077
   16      O       5.6200986485     2.0404038750    -0.4750232175
   17      O       2.5215426955     0.7882763595     0.4745868171
   18      C       5.2821702888     3.4467601066    -0.7916695597
   19      C       4.3345927969    -1.9005840842     0.9258536583
   20      C       5.4827794064    -2.9221810853     0.5574212073
   21      C       6.6964288193    -1.9493452747     0.3175446701
   22      C       5.9895496506    -0.5476207420     0.4788113701
   23      O       5.0413909257    -0.7833917177     1.5930920774
   24      H       3.5285977056    -1.9431622488    -1.1841052803
   25      H       5.5375618828    -0.7606639443    -1.6882258717
   26      H       3.5386379109    -2.3051465069     1.5811928724
   27      H       5.6718488804    -3.6104082056     1.3963795805
   28      H       5.2320496302    -3.5159310684    -0.3363543981
   29      H       7.4717662971    -2.0765074342     1.0898683036
   30      H       7.1597291506    -2.0767675581    -0.6738277995
   31      H       6.6531614306     0.3085087038     0.7040909631
   32      O      -2.0034815454     0.7598595063    -1.1614068938
   33      C      -2.8700694598     3.4244679959     1.0292307943
   34      C      -6.1711621823    -0.2839561380     0.5075492241
   35      C      -7.2117308697    -0.8102831060    -0.5566440199
   36      C      -6.3141742229    -1.7936376490    -1.3951966528
   37      C      -4.9298083928    -1.6668957845    -0.6427220192
   38      O      -5.3174721285    -1.4658329935     0.7724044421
   39      H      -5.7209233934     1.4163197242    -0.8950702395
   40      H      -4.3771162397    -0.0779253503    -2.1276736253
   41      H      -2.0524224438     2.8114553336     1.4606880454
   42      H      -6.6005273758     0.0991405528     1.4534931031
   43      H      -8.0368085369    -1.3430699008    -0.0576266242
   44      H      -7.6337211998     0.0052999100    -1.1651129724
   45      H      -6.6879810623    -2.8284300937    -1.3399771602
   46      H      -6.2380742034    -1.5025367122    -2.4549959753
   47      H      -4.2551126797    -2.5381502489    -0.7411382248
   48      H      -3.4669353394     3.8530984367     1.8599266623
   49      H      -2.4359702975     4.2390339257     0.4211581602
   50      H       5.9916711963     4.0679968121    -0.2147254970
   51      H       4.2426082833     3.6904779049    -0.4921010190
   52      H       5.3963820561     3.6607702946    -1.8742906434
   53      H      -0.2416590096     0.1958048756    -0.8248763535
   54      H       0.3573945470     0.3413523371     0.8645923329
   55      H      -0.6449037872    -2.4105938578     0.0119067185
   56      H      -0.9219320915    -1.5819777881     1.5778262256
 ----------------------------------------------------------------

    9   -1510.2662513373      6.70E-09 Convergence criterion met
 Total energy in the final basis set = -1510.26625134
 Final energy is   -1510.26625133733
 **  OPTIMIZATION CONVERGED  **

                    Orbital Energies (a.u.)
 --------------------------------------------------------------

 Alpha MOs
 -- Occupied --
-18.943 -18.932 -18.930 -18.929 -18.885 -18.885 -18.881 -18.873
-18.872 -18.865 -10.109 -10.096 -10.096 -10.094 -10.076 -10.060
-10.060 -10.059 -10.058 -10.057 -10.056 -10.055 -10.038 -10.036
-10.036 -10.034 -10.020 -10.019 -10.018 -10.018  -1.015  -1.009
 -1.007  -1.003  -0.968  -0.967  -0.945  -0.934  -0.933  -0.928
 -0.762  -0.760  -0.727  -0.721  -0.713  -0.705  -0.694  -0.659
 -0.656  -0.618  -0.595  -0.582  -0.546  -0.543  -0.536  -0.536
 -0.513  -0.510  -0.480  -0.471  -0.461  -0.460  -0.449  -0.441
 -0.434  -0.432  -0.429  -0.409  -0.407  -0.406  -0.405  -0.396
 -0.384  -0.379  -0.376  -0.368  -0.367  -0.357  -0.353  -0.349
 -0.344  -0.340  -0.333  -0.330  -0.329  -0.327  -0.319  -0.310
 -0.309  -0.305  -0.301  -0.296  -0.293  -0.285  -0.279  -0.279
 -0.274  -0.253  -0.252  -0.245  -0.244  -0.232  -0.231  -0.183
 -0.179  -0.173  -0.170  -0.154  -0.152  -0.146  -0.145  -0.141
 -0.140

          Ground-State Mulliken Net Atomic Charges

     Atom                 Charge (a.u.)
  ----------------------------------------
      1 O                    -0.211102
      2 C                     0.204821
      3 C                    -0.078545
      4 C                    -0.076785
      5 C                     0.212569
      6 O                    -0.165881
      7 C                    -0.050882
      8 C                    -0.069093
      9 O                    -0.176666
     10 C                     0.212759
     11 C                    -0.077791
     12 C                    -0.079599
     13 C                     0.213806
     14 O                    -0.216596
     15 O                    -0.166891
     16 O                    -0.169726
     17 O                    -0.210596
     18 C                    -0.127186
     19 C                     0.024974
     20 C                    -0.144736
     21 C                    -0.143085
     22 C                     0.023440
     23 O                    -0.189103
     24 H                     0.086310
     25 H                     0.082348
     26 H                     0.081616
     27 H                     0.077826
     28 H                     0.073541
     29 H                     0.077701
     30 H                     0.072794
     31 H                     0.093906
     32 O                    -0.209621
     33 C                    -0.127634
     34 C                     0.024548
     35 C                    -0.144102
     36 C                    -0.144382
     37 C                     0.025041
     38 O                    -0.186928
     39 H                     0.085773
     40 H                     0.085534
     41 H                     0.088498
     42 H                     0.087893
     43 H                     0.077909
     44 H                     0.073051
     45 H                     0.077422
     46 H                     0.072646
     47 H                     0.087907
     48 H                     0.088930
     49 H                     0.092715
     50 H                     0.089355
     51 H                     0.094330
     52 H                     0.086771
     53 H                     0.115304
     54 H                     0.093225
     55 H                     0.091434
     56 H                     0.090231
  ----------------------------------------
  Sum of atomic charges =    -0.000000

                    Cartesian Multipole Moments
 -----------------------------------------------------------------
    Charge (ESU x 10^10)
                 0.0000
    Dipole Moment (Debye)
         X       0.2299      Y      -1.1472      Z      -1.8851
       Tot       2.2187
    Quadrupole Moments (Debye-Ang)
        XX    -139.4596     XY      -5.4922     YY    -149.7990
        XZ       4.1003     YZ       4.0883     ZZ    -166.1459

 Total job time:  77.18s(wall), 3668.01s(cpu)
        *  Thank you very much for using Q-Chem.  Have a nice day.  *
