 Q-Chem 5.0, Q-Chem, Inc., Pleasanton, CA (2017)
 Q-Chem 5.0.1 for Intel X86 EM64T Linux

User input:
--------------------------------------------------------------
$molecule
0  1
O -4.3378711791 1.4458615663 2.0640035294
C -4.3856264874 1.590793516 0.8235172234
C -5.1881930662 0.7286803147 -0.2138362892
C -4.2753630713 -0.2806923129 -1.0461078897
C -2.7403021293 -0.1475213404 -0.7087169586
O -2.3713878165 -1.240880997 0.1210356577
C -0.9363291873 -1.4411274154 0.4757292369
C 0.1438336486 -0.3768016842 0.0465020917
O 1.3699459141 -1.1433680767 -0.2903802675
C 2.5369320621 -0.3547851466 -0.0320577499
C 3.7965172654 -1.2096471055 -0.4038270013
C 5.0564205212 -0.3316318287 -0.7888421243
C 4.7068335483 1.1622020421 -1.1389915949
O 3.7951513027 1.550983375 -1.9010250118
O -3.7104772058 2.6283079056 0.1057849077
O 5.6200986485 2.040403875 -0.4750232175
O 2.5215426955 0.7882763595 0.4745868171
C 5.2821702888 3.4467601066 -0.7916695597
C 4.3345927969 -1.9005840842 0.9258536583
C 5.4827794064 -2.9221810853 0.5574212073
C 6.6964288193 -1.9493452747 0.3175446701
C 5.9895496506 -0.547620742 0.4788113701
O 5.0413909257 -0.7833917177 1.5930920774
H 3.5285977056 -1.9431622488 -1.1841052803
H 5.5375618828 -0.7606639443 -1.6882258717
H 3.5386379109 -2.3051465069 1.5811928724
H 5.6718488804 -3.6104082056 1.3963795805
H 5.2320496302 -3.5159310684 -0.3363543981
H 7.4717662971 -2.0765074342 1.0898683036
H 7.1597291506 -2.0767675581 -0.6738277995
H 6.6531614306 0.3085087038 0.7040909631
O -2.0034815454 0.7598595063 -1.1614068938
C -2.8700694598 3.4244679959 1.0292307943
C -6.1711621823 -0.283956138 0.5075492241
C -7.2117308697 -0.810283106 -0.5566440199
C -6.3141742229 -1.793637649 -1.3951966528
C -4.9298083928 -1.6668957845 -0.6427220192
O -5.3174721285 -1.4658329935 0.7724044421
H -5.7209233934 1.4163197242 -0.8950702395
H -4.3771162397 -0.0779253503 -2.1276736253
H -2.0524224438 2.8114553336 1.4606880454
H -6.6005273758 0.0991405528 1.4534931031
H -8.0368085369 -1.3430699008 -0.0576266242
H -7.6337211998 0.00529991 -1.1651129724
H -6.6879810623 -2.8284300937 -1.3399771602
H -6.2380742034 -1.5025367122 -2.4549959753
H -4.2551126797 -2.5381502489 -0.7411382248
H -3.4669353394 3.8530984367 1.8599266623
H -2.4359702975 4.2390339257 0.4211581602
H 5.9916711963 4.0679968121 -0.214725497
H 4.2426082833 3.6904779049 -0.492101019
H 5.3963820561 3.6607702946 -1.8742906434
H -0.2416590096 0.1958048756 -0.8248763535
H 0.357394547 0.3413523371 0.8645923329
H -0.6449037872 -2.4105938578 0.0119067185
H -0.9219320915 -1.5819777881 1.5778262256
$end

$rem
JOBTYPE                   OPT
METHOD                    B3LYP
DFT_D                     d3_op
BASIS                     STO-3G
GEOM_OPT_MAX_CYCLES       100
GEOM_OPT_TOL_GRADIENT     300
GEOM_OPT_TOL_DISPLACEMENT 1200
GEOM_OPT_TOL_ENERGY       100
SYMMETRY                  False
THRESH                    12
SCF_CONVERGENCE           8
MAX_SUB_FILE_NUM          128
MEM_STATIC                400
MEM_TOTAL                 4000
$end
--------------------------------------------------------------

   16   -1510.2662534884      4.79E-09 Convergence criterion met
 Total energy in the final basis set = -1510.26625349
   14   -1510.2679116455      2.79E-09 Convergence criterion met
 Total energy in the final basis set = -1510.26791165
   14   -1510.2698053191      7.23E-09 Convergence criterion met
 Total energy in the final basis set = -1510.26980532
   14   -1510.2713849750      5.60E-09 Convergence criterion met
 Total energy in the final basis set = -1510.27138497
   14   -1510.2730606775      2.33E-09 Convergence criterion met
 Total energy in the final basis set = -1510.27306068
   14   -1510.2748355498      2.56E-09 Convergence criterion met
 Total energy in the final basis set = -1510.27483555
   13   -1510.2766727070      5.07E-09 Convergence criterion met
 Total energy in the final basis set = -1510.27667271
   13   -1510.2785027297      5.04E-09 Convergence criterion met
   13   -1510.2903455953      3.33E-09 Convergence criterion met
 Total energy in the final basis set = -1510.29034560
   12   -1510.2903909440      7.59E-09 Convergence criterion met
 Total energy in the final basis set = -1510.29039094
   10   -1510.2903925588      6.29E-09 Convergence criterion met
 Total energy in the final basis set = -1510.29039256
   10   -1510.2903843278      7.88E-09 Convergence criterion met
 Total energy in the final basis set = -1510.29038433
   10   -1510.2903743023      6.27E-09 Convergence criterion met
 Total energy in the final basis set = -1510.29037430
    9   -1510.2903730609      3.08E-09 Convergence criterion met
 Total energy in the final basis set = -1510.29037306

             Standard Nuclear Orientation (Angstroms)
    I     Atom           X                Y                Z
 ----------------------------------------------------------------
    1      O      -1.5685481470     0.7349161819     0.5338427521
    2      C      -2.4369268444     1.1191418837    -0.2854990123
    3      C      -3.9592675445     0.7340683871    -0.3132046388
    4      C      -4.2660805986    -0.6732783982    -1.0014220922
    5      C      -2.9761451410    -1.3684728523    -1.5548438636
    6      O      -2.3194081304    -2.0556516406    -0.4833940721
    7      C      -0.9624975152    -2.4923210721    -0.9033023691
    8      C      -0.0549985085    -1.2276069325    -1.0895532602
    9      O       1.3647407428    -1.6145252982    -0.8950755031
   10      C       2.1656768978    -0.4379700997    -0.8568822980
   11      C       3.6609458327    -0.8386528619    -0.6259816629
   12      C       4.5841902189     0.3877878450    -0.2337794343
   13      C       3.8345173472     1.7698960619    -0.1529764963
   14      O       3.9083748032     2.7070530769    -0.9771503989
   15      O      -2.1752998876     1.9932719912    -1.3803768228
   16      O       3.1283283999     1.8396158779     1.0927682072
   17      O       1.7131058186     0.7237606707    -0.9984899972
   18      C       2.3680112509     3.1055637086     1.1658446110
   19      C       3.8391897037    -1.7799285471     0.6422149572
   20      C       5.2671327162    -2.4495222712     0.5650154776
   21      C       6.1910287632    -1.2355166718     0.9512130349
   22      C       5.1201321300    -0.0961980680     1.1817910559
   23      O       3.9649350217    -0.8203806836     1.7613331532
   24      H       4.0244659995    -1.3383644231    -1.5431161233
   25      H       5.4036400122     0.5048739950    -0.9644689782
   26      H       2.9920018155    -2.4731411157     0.8088295629
   27      H       5.3459317970    -3.2675504234     1.2986611600
   28      H       5.4857889420    -2.8510734454    -0.4373481979
   29      H       6.7482228113    -1.4324809155     1.8809971679
   30      H       6.9101074133    -0.9776663576     0.1572450524
   31      H       5.4390228852     0.7222634952     1.8550690794
   32      O      -2.5475685471    -1.3213893654    -2.7293896263
   33      C      -0.7698085073     2.4759966030    -1.3575115721
   34      C      -4.5206195889     0.4719527465     1.1490369643
   35      C      -6.0991116969     0.4954789607     1.0850289280
   36      C      -6.3969180357    -0.8954715840     0.4111498205
   37      C      -4.9331478243    -1.4554351537     0.2083712935
   38      O      -4.2021801423    -0.9524764297     1.3929631798
   39      H      -4.5049715485     1.5427220064    -0.8308480864
   40      H      -4.9650275920    -0.5419051904    -1.8462893036
   41      H      -0.0160420878     1.6616117324    -1.2539858239
   42      H      -4.0660150231     1.1073285280     1.9334298180
   43      H      -6.5233655277     0.5525756705     2.1000947369
   44      H      -6.4788090503     1.3450133826     0.4952843364
   45      H      -6.9705915573    -1.5548036951     1.0818377100
   46      H      -6.9414128832    -0.8008552149    -0.5419946820
   47      H      -4.8522695766    -2.5573793931     0.1421807627
   48      H      -0.6258444338     3.1962576366    -0.5264048754
   49      H      -0.6210140170     3.0009700783    -2.3185913579
   50      H       1.8620797120     3.1020080954     2.1487553390
   51      H       1.6098063477     3.1644287542     0.3589171308
   52      H       3.0329383741     3.9905746612     1.0913649104
   53      H      -0.2048877301    -0.8035160615    -2.1051842462
   54      H      -0.3682554815    -0.4600861255    -0.3393221089
   55      H      -1.0031345001    -3.0978029035    -1.8335686471
   56      H      -0.5824122201    -3.1169745246    -0.0702808631
 ----------------------------------------------------------------

    9   -1510.2903718927      3.81E-09 Convergence criterion met
 Total energy in the final basis set = -1510.29037189
 Final energy is   -1510.29037189268
 **  OPTIMIZATION CONVERGED  **

                    Orbital Energies (a.u.)
 --------------------------------------------------------------

 Alpha MOs
 -- Occupied --
-18.944 -18.937 -18.937 -18.918 -18.889 -18.888 -18.886 -18.878
-18.878 -18.856 -10.110 -10.102 -10.102 -10.087 -10.074 -10.061
-10.061 -10.061 -10.059 -10.057 -10.052 -10.049 -10.041 -10.040
-10.039 -10.032 -10.021 -10.020 -10.019 -10.018  -1.022  -1.015
 -1.010  -0.996  -0.970  -0.968  -0.945  -0.939  -0.936  -0.921
 -0.765  -0.761  -0.728  -0.722  -0.713  -0.706  -0.694  -0.659
 -0.650  -0.615  -0.597  -0.581  -0.547  -0.544  -0.538  -0.536
 -0.516  -0.511  -0.483  -0.477  -0.464  -0.461  -0.451  -0.439
 -0.435  -0.432  -0.429  -0.415  -0.405  -0.404  -0.402  -0.397
 -0.393  -0.386  -0.370  -0.365  -0.363  -0.359  -0.353  -0.346
 -0.338  -0.335  -0.333  -0.332  -0.329  -0.326  -0.325  -0.314
 -0.309  -0.307  -0.305  -0.301  -0.292  -0.283  -0.281  -0.280
 -0.273  -0.265  -0.250  -0.247  -0.240  -0.235  -0.232  -0.191
 -0.177  -0.175  -0.161  -0.160  -0.159  -0.151  -0.144  -0.142
 -0.137

          Ground-State Mulliken Net Atomic Charges

     Atom                 Charge (a.u.)
  ----------------------------------------
      1 O                    -0.213575
      2 C                     0.208054
      3 C                    -0.078395
      4 C                    -0.078427
      5 C                     0.203111
      6 O                    -0.163366
      7 C                    -0.047716
      8 C                    -0.065487
      9 O                    -0.170302
     10 C                     0.221326
     11 C                    -0.077783
     12 C                    -0.081344
     13 C                     0.213093
     14 O                    -0.220682
     15 O                    -0.167640
     16 O                    -0.169609
     17 O                    -0.210429
     18 C                    -0.127187
     19 C                     0.024950
     20 C                    -0.143857
     21 C                    -0.144411
     22 C                     0.026792
     23 O                    -0.185959
     24 H                     0.086472
     25 H                     0.082825
     26 H                     0.088621
     27 H                     0.078057
     28 H                     0.072995
     29 H                     0.077653
     30 H                     0.073320
     31 H                     0.085681
     32 O                    -0.214237
     33 C                    -0.142452
     34 C                     0.026167
     35 C                    -0.144038
     36 C                    -0.144013
     37 C                     0.026679
     38 O                    -0.182775
     39 H                     0.087104
     40 H                     0.085964
     41 H                     0.112640
     42 H                     0.085914
     43 H                     0.078442
     44 H                     0.073661
     45 H                     0.078290
     46 H                     0.073519
     47 H                     0.086218
     48 H                     0.079856
     49 H                     0.088679
     50 H                     0.088716
     51 H                     0.088705
     52 H                     0.084869
     53 H                     0.088445
     54 H                     0.110440
     55 H                     0.090378
     56 H                     0.096050
  ----------------------------------------
  Sum of atomic charges =    -0.000000

                    Cartesian Multipole Moments
 -----------------------------------------------------------------
    Charge (ESU x 10^10)
                 0.0000
    Dipole Moment (Debye)
         X      -0.8784      Y      -0.8164      Z      -0.3818
       Tot       1.2585
    Quadrupole Moments (Debye-Ang)
        XX    -136.1444     XY      -9.2547     YY    -155.1525
        XZ       0.1436     YZ       6.8464     ZZ    -168.8843

 Total job time:  123.75s(wall), 5899.88s(cpu)
        *  Thank you very much for using Q-Chem.  Have a nice day.  *
