 Q-Chem 5.0, Q-Chem, Inc., Pleasanton, CA (2017)
 Q-Chem 5.0.1 for Intel X86 EM64T Linux

User input:
--------------------------------------------------------------
$molecule
0  1
O -3.94934 -3.66094 2.70899
C -3.26408 -4.56952 2.26188
C -3.36658 -6.02376 2.66595
C -2.34856 -6.99755 2.05013
C -1.23143 -6.38082 1.23787
O -0.96502 -5.12201 1.69596
C 0.43462 -4.82605 1.74765
C 1.10782 -5.23949 0.44304
O 2.3728 -5.86057 0.72046
C 3.14184 -6.1272 -0.36426
C 4.45667 -6.77881 -0.00749
C 4.71306 -8.13279 -0.68521
C 3.81801 -8.46221 -1.86295
O 3.35603 -7.64988 -2.65114
O -3.06701 -4.41956 0.91356
O 3.40725 -9.75474 -1.94648
O 2.92416 -5.60994 -1.45357
C 2.55449 -10.23819 -2.91665
C 5.67831 -5.96789 -0.4723
C 6.90294 -6.35774 0.35432
C 7.17251 -7.74858 -0.18208
C 6.10578 -7.83154 -1.28013
O 5.9831 -6.50445 -1.73357
H 4.49403 -6.88868 1.10125
H 4.75373 -9.00469 0.00532
H 5.51453 -4.86867 -0.43075
H 7.73704 -5.68872 0.04298
H 6.771 -6.29124 1.45572
H 8.19122 -7.75938 -0.62975
H 7.07217 -8.57276 0.5569
H 6.40414 -8.57944 -2.0487
O -0.43193 -7.20177 0.80127
C -3.05222 -3.23172 0.20189
C -3.07564 -6.21221 4.16527
C -3.69613 -7.51913 4.65769
C -2.76436 -8.52932 4.02274
C -1.75762 -7.59342 3.34734
O -1.69796 -6.48596 4.21288
H -4.41109 -6.33368 2.43688
H -2.83029 -7.77714 1.41796
H -3.18104 -2.34072 0.85283
H -3.4278 -5.36207 4.78991
H -3.56258 -7.56093 5.76241
H -4.77258 -7.64317 4.41101
H -2.26164 -9.1012 4.83449
H -3.23967 -9.23105 3.30372
H -0.7973 -8.1283 3.17777
H -3.86296 -3.2486 -0.55492
H -2.07757 -3.13763 -0.32018
H 2.39025 -11.32239 -2.74927
H 3.00141 -10.09528 -3.92381
H 1.57579 -9.71519 -2.86194
H 0.56317 -5.72228 -0.39381
H 1.29446 -4.26476 -0.06261
H 0.85496 -5.45429 2.56599
H 0.62756 -3.76841 2.029
$end

$opt
CONSTRAINT
tors           1           2           3           4    -176.119
tors           3           4           5           6     +28.421
tors           4           5           6           7    +139.076
tors           5           6           7           8     +47.217
tors           6           7           8           9    -138.526
tors           7           8           9          10    -172.359
tors           8           9          10          11    -180.000
tors           9          10          11          12    +123.158
tors          11          12          13          14     +32.675
ENDCONSTRAINT
$end

$rem
JOBTYPE                   OPT
METHOD                    B3LYP
DFT_D                     d3_op
BASIS                     STO-3G
GEOM_OPT_MAX_CYCLES       100
GEOM_OPT_TOL_GRADIENT     300
GEOM_OPT_TOL_DISPLACEMENT 1200
GEOM_OPT_TOL_ENERGY       100
SYMMETRY                  False
THRESH                    12
SCF_CONVERGENCE           8
MAX_SUB_FILE_NUM          128
MEM_STATIC                400
MEM_TOTAL                 4000
$end
--------------------------------------------------------------

   15   -1510.0749746049      8.22E-09 Convergence criterion met
 Total energy in the final basis set = -1510.07497460
   14   -1510.1529441514      9.92E-09 Convergence criterion met
 Total energy in the final basis set = -1510.15294415
   15   -1510.1970525713      1.31E-09 Convergence criterion met
 Total energy in the final basis set = -1510.19705257
   15   -1510.2232676108      2.18E-09 Convergence criterion met
 Total energy in the final basis set = -1510.22326761
   14   -1510.2373770158      5.38E-09 Convergence criterion met
 Total energy in the final basis set = -1510.23737702
   13   -1510.2456396792      6.60E-09 Convergence criterion met
 Total energy in the final basis set = -1510.24563968
   13   -1510.2509562826      3.48E-09 Convergence criterion met
 Total energy in the final basis set = -1510.25095628
   13   -1510.2542703050      3.33E-09 Convergence criterion met
   11   -1510.2589433664      8.53E-09 Convergence criterion met
 Total energy in the final basis set = -1510.25894337
   11   -1510.2589797759      6.12E-09 Convergence criterion met
 Total energy in the final basis set = -1510.25897978
   11   -1510.2590134872      3.76E-09 Convergence criterion met
 Total energy in the final basis set = -1510.25901349
   11   -1510.2590386053      2.98E-09 Convergence criterion met
 Total energy in the final basis set = -1510.25903861
   11   -1510.2590500975      3.52E-09 Convergence criterion met
 Total energy in the final basis set = -1510.25905010
    9   -1510.2590545935      6.26E-09 Convergence criterion met
 Total energy in the final basis set = -1510.25905459

             Standard Nuclear Orientation (Angstroms)
    I     Atom           X                Y                Z
 ----------------------------------------------------------------
    1      O       6.0463927417    -1.9708875694    -0.2971440412
    2      C       5.1152069001    -1.1995493262    -0.6180583266
    3      C       4.9672074267     0.3007586137    -0.1913909966
    4      C       3.6530732752     1.0389287637    -0.6483207753
    5      C       2.3799650944     0.1167147362    -0.7631141573
    6      O       2.4945081577    -0.9811607799     0.1583929411
    7      C       1.2422652657    -1.3373794487     0.8710156483
    8      C      -0.0635925242    -1.4704994423    -0.0034745129
    9      O      -1.1489822677    -0.8289066529     0.7832605084
   10      C      -2.4159859187    -1.0553138695     0.1501179946
   11      C      -3.5146289673    -0.3546758579     1.0279230168
   12      C      -4.4152426385     0.7205933185     0.2872625679
   13      C      -3.9561717541     1.1706580205    -1.1410028151
   14      O      -3.3682644582     0.5293159693    -2.0360264907
   15      O       4.1689734346    -1.4836118878    -1.6587990576
   16      O      -4.3744092129     2.5377679026    -1.2949085050
   17      O      -2.5749602259    -1.7816534212    -0.8531377316
   18      C      -4.0194844793     3.0235943191    -2.6478887910
   19      C      -4.6222861244    -1.4296838299     1.4175211392
   20      C      -5.5498996267    -0.8331744598     2.5498574407
   21      C      -6.4564606224     0.1503145641     1.7201029634
   22      C      -5.8320247583    -0.0167028483     0.2795081254
   23      O      -5.4907901457    -1.4530706357     0.2191675314
   24      H      -3.0225915092     0.0799838804     1.9153896513
   25      H      -4.4812451246     1.6402453229     0.8950139766
   26      H      -4.2228678464    -2.4416014222     1.6230372118
   27      H      -6.1442779638    -1.6314041500     3.0219668124
   28      H      -4.9673708061    -0.3180483656     3.3303940617
   29      H      -7.5099498469    -0.1727612583     1.7225107653
   30      H      -6.4029121600     1.1901688422     2.0798706535
   31      H      -6.4962463558     0.2627430915    -0.5612643748
   32      O       1.4138372413     0.3446421621    -1.5286987202
   33      C       4.2933206281    -2.8859502786    -2.1137747014
   34      C       5.0085118978     0.6321118253     1.3657143989
   35      C       5.6923763919     2.0477378648     1.4995502832
   36      C       4.5832384854     2.9614872326     0.8533271475
   37      C       3.4014325810     1.9292247974     0.6535661221
   38      O       3.6042148263     0.9306795752     1.7312361116
   39      H       5.8295464271     0.8059316376    -0.6686542895
   40      H       3.7756580068     1.6274843260    -1.5736416796
   41      H       5.2324129065    -3.3228630889    -1.7176006406
   42      H       5.4227602415    -0.1712184553     2.0053163799
   43      H       5.8484469381     2.2976313950     2.5614001581
   44      H       6.6587650406     2.1051492856     0.9738338063
   45      H       4.2769016957     3.7744683157     1.5303171743
   46      H       4.9048325009     3.4027201171    -0.1039420472
   47      H       2.3847859215     2.3646531070     0.7157329487
   48      H       4.3000160595    -2.8904472576    -3.2205342997
   49      H       3.4245055287    -3.4701902838    -1.7493158988
   50      H      -4.3448006320     4.0794307981    -2.6887195685
   51      H      -4.5379539567     2.4454165312    -3.4400482732
   52      H      -2.9270715864     2.9636216667    -2.8306661834
   53      H       0.1084464590    -0.9074952970    -0.9504832444
   54      H      -0.3059549321    -2.5292664782    -0.2302470940
   55      H       1.0453512091    -0.5667227588     1.6515335966
   56      H       1.4788073592    -2.2907959997     1.3853643508
 ----------------------------------------------------------------

    9   -1510.2590539467      7.32E-09 Convergence criterion met
 Total energy in the final basis set = -1510.25905395
 Final energy is   -1510.25905394671
 **  OPTIMIZATION CONVERGED  **

                    Orbital Energies (a.u.)
 --------------------------------------------------------------

 Alpha MOs
 -- Occupied --
-18.935 -18.926 -18.923 -18.919 -18.891 -18.887 -18.883 -18.876
-18.872 -18.864 -10.106 -10.103 -10.093 -10.086 -10.068 -10.064
-10.064 -10.059 -10.059 -10.059 -10.057 -10.049 -10.041 -10.039
-10.034 -10.032 -10.025 -10.023 -10.019 -10.018  -1.014  -1.006
 -1.004  -0.997  -0.974  -0.969  -0.939  -0.935  -0.930  -0.922
 -0.767  -0.759  -0.728  -0.720  -0.709  -0.706  -0.692  -0.659
 -0.658  -0.611  -0.598  -0.579  -0.548  -0.542  -0.540  -0.535
 -0.514  -0.509  -0.485  -0.467  -0.462  -0.455  -0.445  -0.438
 -0.435  -0.430  -0.428  -0.412  -0.410  -0.407  -0.406  -0.395
 -0.382  -0.380  -0.374  -0.367  -0.363  -0.357  -0.353  -0.347
 -0.342  -0.337  -0.335  -0.328  -0.326  -0.323  -0.320  -0.317
 -0.309  -0.308  -0.303  -0.299  -0.298  -0.295  -0.276  -0.274
 -0.266  -0.252  -0.251  -0.243  -0.238  -0.234  -0.232  -0.179
 -0.173  -0.171  -0.166  -0.158  -0.152  -0.146  -0.143  -0.141
 -0.133

          Ground-State Mulliken Net Atomic Charges

     Atom                 Charge (a.u.)
  ----------------------------------------
      1 O                    -0.216483
      2 C                     0.216515
      3 C                    -0.078141
      4 C                    -0.076120
      5 C                     0.227191
      6 O                    -0.176608
      7 C                    -0.048462
      8 C                    -0.068428
      9 O                    -0.179445
     10 C                     0.207349
     11 C                    -0.079902
     12 C                    -0.080002
     13 C                     0.205330
     14 O                    -0.202809
     15 O                    -0.168538
     16 O                    -0.174097
     17 O                    -0.200632
     18 C                    -0.129643
     19 C                     0.026649
     20 C                    -0.144858
     21 C                    -0.142796
     22 C                     0.026972
     23 O                    -0.184269
     24 H                     0.084244
     25 H                     0.085361
     26 H                     0.083035
     27 H                     0.077732
     28 H                     0.073479
     29 H                     0.077683
     30 H                     0.074026
     31 H                     0.083766
     32 O                    -0.205731
     33 C                    -0.133953
     34 C                     0.026911
     35 C                    -0.141224
     36 C                    -0.145210
     37 C                     0.022658
     38 O                    -0.190087
     39 H                     0.084750
     40 H                     0.086861
     41 H                     0.101433
     42 H                     0.088903
     43 H                     0.078455
     44 H                     0.074716
     45 H                     0.078794
     46 H                     0.074667
     47 H                     0.081876
     48 H                     0.088089
     49 H                     0.086954
     50 H                     0.088189
     51 H                     0.088193
     52 H                     0.089769
     53 H                     0.114115
     54 H                     0.084821
     55 H                     0.090315
     56 H                     0.087635
  ----------------------------------------
  Sum of atomic charges =     0.000000

                    Cartesian Multipole Moments
 -----------------------------------------------------------------
    Charge (ESU x 10^10)
                 0.0000
    Dipole Moment (Debye)
         X       1.0017      Y       2.7438      Z       1.7085
       Tot       3.3839
    Quadrupole Moments (Debye-Ang)
        XX    -153.1993     XY      -1.2924     YY    -152.9155
        XZ     -11.0003     YZ      -4.1005     ZZ    -158.0085

 Total job time:  71.92s(wall), 3422.73s(cpu)
        *  Thank you very much for using Q-Chem.  Have a nice day.  *
