 Q-Chem 5.0, Q-Chem, Inc., Pleasanton, CA (2017)
 Q-Chem 5.0.1 for Intel X86 EM64T Linux

User input:
--------------------------------------------------------------
$molecule
0  1
O 6.0463927417 -1.9708875694 -0.2971440412
C 5.1152069001 -1.1995493262 -0.6180583266
C 4.9672074267 0.3007586137 -0.1913909966
C 3.6530732752 1.0389287637 -0.6483207753
C 2.3799650944 0.1167147362 -0.7631141573
O 2.4945081577 -0.9811607799 0.1583929411
C 1.2422652657 -1.3373794487 0.8710156483
C -0.0635925242 -1.4704994423 -0.0034745129
O -1.1489822677 -0.8289066529 0.7832605084
C -2.4159859187 -1.0553138695 0.1501179946
C -3.5146289673 -0.3546758579 1.0279230168
C -4.4152426385 0.7205933185 0.2872625679
C -3.9561717541 1.1706580205 -1.1410028151
O -3.3682644582 0.5293159693 -2.0360264907
O 4.1689734346 -1.4836118878 -1.6587990576
O -4.3744092129 2.5377679026 -1.294908505
O -2.5749602259 -1.7816534212 -0.8531377316
C -4.0194844793 3.0235943191 -2.647888791
C -4.6222861244 -1.4296838299 1.4175211392
C -5.5498996267 -0.8331744598 2.5498574407
C -6.4564606224 0.1503145641 1.7201029634
C -5.8320247583 -0.0167028483 0.2795081254
O -5.4907901457 -1.4530706357 0.2191675314
H -3.0225915092 0.0799838804 1.9153896513
H -4.4812451246 1.6402453229 0.8950139766
H -4.2228678464 -2.4416014222 1.6230372118
H -6.1442779638 -1.63140415 3.0219668124
H -4.9673708061 -0.3180483656 3.3303940617
H -7.5099498469 -0.1727612583 1.7225107653
H -6.40291216 1.1901688422 2.0798706535
H -6.4962463558 0.2627430915 -0.5612643748
O 1.4138372413 0.3446421621 -1.5286987202
C 4.2933206281 -2.8859502786 -2.1137747014
C 5.0085118978 0.6321118253 1.3657143989
C 5.6923763919 2.0477378648 1.4995502832
C 4.5832384854 2.9614872326 0.8533271475
C 3.401432581 1.9292247974 0.6535661221
O 3.6042148263 0.9306795752 1.7312361116
H 5.8295464271 0.8059316376 -0.6686542895
H 3.7756580068 1.627484326 -1.5736416796
H 5.2324129065 -3.3228630889 -1.7176006406
H 5.4227602415 -0.1712184553 2.0053163799
H 5.8484469381 2.297631395 2.5614001581
H 6.6587650406 2.1051492856 0.9738338063
H 4.2769016957 3.7744683157 1.5303171743
H 4.9048325009 3.4027201171 -0.1039420472
H 2.3847859215 2.364653107 0.7157329487
H 4.3000160595 -2.8904472576 -3.2205342997
H 3.4245055287 -3.4701902838 -1.7493158988
H -4.344800632 4.0794307981 -2.6887195685
H -4.5379539567 2.4454165312 -3.4400482732
H -2.9270715864 2.9636216667 -2.8306661834
H 0.108446459 -0.907495297 -0.9504832444
H -0.3059549321 -2.5292664782 -0.230247094
H 1.0453512091 -0.5667227588 1.6515335966
H 1.4788073592 -2.2907959997 1.3853643508
$end

$rem
JOBTYPE                   OPT
METHOD                    B3LYP
DFT_D                     d3_op
BASIS                     STO-3G
GEOM_OPT_MAX_CYCLES       100
GEOM_OPT_TOL_GRADIENT     300
GEOM_OPT_TOL_DISPLACEMENT 1200
GEOM_OPT_TOL_ENERGY       100
SYMMETRY                  False
THRESH                    12
SCF_CONVERGENCE           8
MAX_SUB_FILE_NUM          128
MEM_STATIC                400
MEM_TOTAL                 4000
$end
--------------------------------------------------------------

   16   -1510.2589251921      5.89E-09 Convergence criterion met
 Total energy in the final basis set = -1510.25892519
   14   -1510.2616462801      3.00E-09 Convergence criterion met
 Total energy in the final basis set = -1510.26164628
   14   -1510.2642688624      5.83E-09 Convergence criterion met
 Total energy in the final basis set = -1510.26426886
   14   -1510.2673979166      6.11E-09 Convergence criterion met
 Total energy in the final basis set = -1510.26739792
   15   -1510.2621493063      5.53E-09 Convergence criterion met
 Total energy in the final basis set = -1510.26214931
   14   -1510.2699056216      8.49E-09 Convergence criterion met
 Total energy in the final basis set = -1510.26990562
   13   -1510.2741903482      6.19E-09 Convergence criterion met
 Total energy in the final basis set = -1510.27419035
   13   -1510.2757579818      8.66E-09 Convergence criterion met
   11   -1510.2963096313      5.61E-09 Convergence criterion met
 Total energy in the final basis set = -1510.29630963
   11   -1510.2963370721      8.03E-09 Convergence criterion met
 Total energy in the final basis set = -1510.29633707
   10   -1510.2963581536      9.19E-09 Convergence criterion met
 Total energy in the final basis set = -1510.29635815
   11   -1510.2963711523      5.40E-09 Convergence criterion met
 Total energy in the final basis set = -1510.29637115
   10   -1510.2963767963      8.45E-09 Convergence criterion met
 Total energy in the final basis set = -1510.29637680
   10   -1510.2963784417      8.09E-09 Convergence criterion met
 Total energy in the final basis set = -1510.29637844

             Standard Nuclear Orientation (Angstroms)
    I     Atom           X                Y                Z
 ----------------------------------------------------------------
    1      O       3.5737437844    -1.9100779533    -0.3423127369
    2      C       2.9036364471    -0.8796514527    -0.5729820783
    3      C       3.4874040863     0.5783927234    -0.6857088966
    4      C       2.7915478980     1.7397175277     0.1430266471
    5      C       1.6257432847     1.2875945338     1.0756904565
    6      O       2.1046846671     0.3093021549     1.9963948660
    7      C       0.9726302128    -0.2406602779     2.7879859097
    8      C       0.1790038872    -1.2734666061     1.9073887763
    9      O      -1.2646476917    -0.9379153261     1.9716431621
   10      C      -1.9655622300    -1.6328698908     0.9321688390
   11      C      -3.4618148440    -1.1403242155     0.9302226712
   12      C      -3.6693988215     0.2605002168     0.2217962723
   13      C      -2.3277738334     0.8214337896    -0.3557395468
   14      O      -1.2690255996     0.1677448347    -0.5162684210
   15      O       1.5004586994    -0.8776041108    -0.8795131143
   16      O      -2.4822690643     2.1936805528    -0.6891176214
   17      O      -1.4930063992    -2.5769113554     0.2558663011
   18      C      -1.1743716812     2.7439602750    -1.1357552977
   19      C      -4.3635218474    -2.0762267929     0.0235092051
   20      C      -5.8771319581    -1.8047302809     0.3771606241
   21      C      -6.0997948991    -0.4028460752    -0.3033149091
   22      C      -4.6779658187    -0.1431989950    -0.9423632981
   23      O      -4.2146634185    -1.4933562582    -1.3312793659
   24      H      -3.8175616822    -1.1076134532     1.9757151552
   25      H      -4.1145876395     1.0115947611     0.8979168310
   26      H      -4.0496451566    -3.1379932560     0.0197818971
   27      H      -6.5226230351    -2.5770328034    -0.0705511700
   28      H      -6.0527248823    -1.7837638420     1.4645474907
   29      H      -6.8707404725    -0.4518957198    -1.0888388227
   30      H      -6.3792891028     0.3816031106     0.4179512096
   31      H      -4.6682994303     0.5417267068    -1.8125768668
   32      O       0.4506870321     1.7273634642     1.0739525228
   33      C       1.0389972840    -2.2518722840    -1.2336082920
   34      C       4.9645994153     0.6325843144    -0.1111940476
   35      C       5.7029779300     1.8742605266    -0.7436028590
   36      C       5.0027296734     3.0586757872     0.0207906506
   37      C       4.0328504497     2.2701329428     0.9882865570
   38      O       4.7756160647     1.0317353351     1.3036540936
   39      H       3.4703781387     0.8375270793    -1.7612467001
   40      H       2.3876331748     2.5171633246    -0.5289918355
   41      H       1.7895246448    -2.9930590686    -0.8960539307
   42      H       5.4967127824    -0.3368718892    -0.1718165167
   43      H       6.7813973021     1.8339676655    -0.5224329659
   44      H       5.5674420033     1.9301663408    -1.8354559119
   45      H       5.7269690156     3.6510278358     0.6022196686
   46      H       4.4549452482     3.7361284008    -0.6538777689
   47      H       3.7565472666     2.8063126984     1.9168499486
   48      H       0.9245668886    -2.3117534098    -2.3338768431
   49      H       0.0573910714    -2.4299165906    -0.7340721609
   50      H      -1.3206123281     3.8361264369    -1.2178787487
   51      H      -0.8880617311     2.3334380990    -2.1253877470
   52      H      -0.3871718330     2.4967320143    -0.3808723222
   53      H       0.5494504150    -1.1644304310     0.8640044478
   54      H       0.3571004381    -2.3159421508     2.2476780749
   55      H       0.2861151491     0.5710637528     3.1122372802
   56      H       1.4355453642    -0.7192737519     3.6726153153
 ----------------------------------------------------------------

    9   -1510.2963792203      4.18E-09 Convergence criterion met
 Total energy in the final basis set = -1510.29637922
 Final energy is   -1510.29637922028
 **  OPTIMIZATION CONVERGED  **

                    Orbital Energies (a.u.)
 --------------------------------------------------------------

 Alpha MOs
 -- Occupied --
-18.940 -18.931 -18.926 -18.922 -18.889 -18.885 -18.884 -18.876
-18.873 -18.863 -10.108 -10.098 -10.096 -10.096 -10.071 -10.063
-10.058 -10.057 -10.056 -10.055 -10.042 -10.040 -10.039 -10.035
-10.031 -10.031 -10.022 -10.020 -10.019 -10.017  -1.019  -1.009
 -1.004  -0.998  -0.971  -0.967  -0.942  -0.931  -0.930  -0.927
 -0.765  -0.759  -0.727  -0.720  -0.710  -0.704  -0.694  -0.651
 -0.646  -0.611  -0.596  -0.580  -0.545  -0.542  -0.538  -0.535
 -0.514  -0.506  -0.483  -0.470  -0.460  -0.453  -0.450  -0.441
 -0.437  -0.431  -0.428  -0.416  -0.406  -0.404  -0.402  -0.399
 -0.383  -0.375  -0.370  -0.366  -0.359  -0.356  -0.352  -0.348
 -0.340  -0.333  -0.332  -0.328  -0.326  -0.325  -0.319  -0.311
 -0.308  -0.305  -0.301  -0.298  -0.293  -0.290  -0.281  -0.270
 -0.268  -0.253  -0.247  -0.245  -0.239  -0.235  -0.232  -0.186
 -0.171  -0.169  -0.164  -0.159  -0.152  -0.149  -0.145  -0.143
 -0.141

          Ground-State Mulliken Net Atomic Charges

     Atom                 Charge (a.u.)
  ----------------------------------------
      1 O                    -0.210182
      2 C                     0.211316
      3 C                    -0.077356
      4 C                    -0.078370
      5 C                     0.218122
      6 O                    -0.164215
      7 C                    -0.050027
      8 C                    -0.060162
      9 O                    -0.176116
     10 C                     0.224505
     11 C                    -0.080580
     12 C                    -0.078542
     13 C                     0.216439
     14 O                    -0.206618
     15 O                    -0.173015
     16 O                    -0.169683
     17 O                    -0.224256
     18 C                    -0.145114
     19 C                     0.024928
     20 C                    -0.144147
     21 C                    -0.143654
     22 C                     0.025084
     23 O                    -0.189075
     24 H                     0.083426
     25 H                     0.086531
     26 H                     0.088615
     27 H                     0.077653
     28 H                     0.072939
     29 H                     0.077675
     30 H                     0.073674
     31 H                     0.084207
     32 O                    -0.211137
     33 C                    -0.151934
     34 C                     0.023962
     35 C                    -0.143941
     36 C                    -0.144170
     37 C                     0.026580
     38 O                    -0.185349
     39 H                     0.084759
     40 H                     0.084617
     41 H                     0.091259
     42 H                     0.092663
     43 H                     0.078695
     44 H                     0.073392
     45 H                     0.078377
     46 H                     0.073286
     47 H                     0.082520
     48 H                     0.077863
     49 H                     0.117401
     50 H                     0.080799
     51 H                     0.078925
     52 H                     0.115074
     53 H                     0.109257
     54 H                     0.081802
     55 H                     0.099396
     56 H                     0.091903
  ----------------------------------------
  Sum of atomic charges =    -0.000000

                    Cartesian Multipole Moments
 -----------------------------------------------------------------
    Charge (ESU x 10^10)
                -0.0000
    Dipole Moment (Debye)
         X      -0.7247      Y       2.5118      Z       0.2903
       Tot       2.6303
    Quadrupole Moments (Debye-Ang)
        XX    -150.6075     XY       8.7037     YY    -158.6594
        XZ     -10.6230     YZ      -5.0868     ZZ    -155.8984

 Total job time:  143.62s(wall), 6846.90s(cpu)
        *  Thank you very much for using Q-Chem.  Have a nice day.  *
