 Q-Chem 5.0, Q-Chem, Inc., Pleasanton, CA (2017)
 Q-Chem 5.0.1 for Intel X86 EM64T Linux

User input:
--------------------------------------------------------------
$molecule
0  1
O 4.2705355273 -1.3119878639 -1.6190761844
C 4.8304144554 -0.5796428441 -0.7759928864
C 4.3076170477 0.7560899405 -0.146189569
C 2.8684280763 1.1998067556 -0.6088841955
C 1.870374735 0.0422119851 -1.0022330743
O 2.1650269782 -1.1840206207 -0.2857528903
C 0.9909638967 -1.624332078 0.4985696436
C -0.1315736699 -2.3676588128 -0.3323416269
O -1.0868843646 -1.4550237931 -1.001844354
C -1.9692869508 -0.8410839601 -0.0525617424
C -2.9215576978 0.0914820514 -0.8762236531
C -4.4852880594 -0.1592939278 -0.7379889064
C -4.9525906125 -1.1674960181 0.3689025749
O -5.7426721734 -2.1259170481 0.2116405367
O 6.1182502426 -0.8530150224 -0.2083147223
O -4.4565432124 -0.7427434205 1.6380979974
O -1.9003027713 -1.0282591541 1.1813478294
C -4.9229098449 -1.6617196169 2.7007481617
C -2.8166894622 1.6204474229 -0.4387723265
C -3.284052141 2.5002493543 -1.6635134927
C -4.8349649832 2.2335631327 -1.6448455741
C -4.9740748785 1.3108135091 -0.3679109151
O -3.911442733 1.7952060393 0.5400264901
H -2.6178264621 -0.0237257858 -1.9315819162
H -4.9117913772 -0.5058189029 -1.6958029307
H -1.8453750332 1.9076142402 0.0081638239
H -3.0556008374 3.5625606549 -1.4809624144
H -2.8059468167 2.1913309083 -2.6066384924
H -5.4061792519 3.1661765533 -1.5124732623
H -5.1895136604 1.7289891113 -2.5577282927
H -5.9600803513 1.3500384618 0.1342932747
O 0.8860526595 0.1967210704 -1.7556495597
C 6.6528801372 -2.1188741189 -0.760394583
C 4.175667092 0.8165843693 1.4420589194
C 4.4331499798 2.3167198408 1.855528457
C 3.1461858993 3.001878037 1.2599935294
C 2.3118613608 1.7443467131 0.7859002193
O 2.727744827 0.6623554637 1.709958052
H 5.0332972543 1.5307477073 -0.4593435163
H 2.8833946009 1.9683351309 -1.4012955686
H 6.7838188718 -2.0631244691 -1.8604952113
H 4.7638127602 0.0548138054 1.9891832174
H 4.463495854 2.4094192882 2.9531853774
H 5.369941076 2.7185478258 1.4376789419
H 2.5925276355 3.5673703855 2.0260337036
H 3.3756954201 3.6783568837 0.4208248439
H 1.2126722476 1.8784763171 0.8158128957
H 5.9892719112 -2.9773023489 -0.5297250049
H 7.6360846437 -2.2711401101 -0.2783269583
H -4.5075692025 -1.2656522488 3.6453229823
H -4.5526428743 -2.6943610174 2.5378770672
H -6.0303800903 -1.6896456149 2.7617253653
H 0.3352899979 -2.9588200584 -1.1456411172
H -0.674225571 -3.0517052929 0.3562520424
H 0.5338681748 -0.7893482536 1.0700395001
H 1.403562021 -2.3511817653 1.2285324196
$end

$rem
JOBTYPE                   OPT
METHOD                    B3LYP
DFT_D                     d3_op
BASIS                     STO-3G
GEOM_OPT_MAX_CYCLES       100
GEOM_OPT_TOL_GRADIENT     300
GEOM_OPT_TOL_DISPLACEMENT 1200
GEOM_OPT_TOL_ENERGY       100
SYMMETRY                  False
THRESH                    12
SCF_CONVERGENCE           8
MAX_SUB_FILE_NUM          128
MEM_STATIC                400
MEM_TOTAL                 4000
$end
--------------------------------------------------------------

   16   -1510.2600436379      4.75E-09 Convergence criterion met
 Total energy in the final basis set = -1510.26004364
   14   -1510.2636903803      3.86E-09 Convergence criterion met
 Total energy in the final basis set = -1510.26369038
   14   -1510.2677536931      2.53E-09 Convergence criterion met
 Total energy in the final basis set = -1510.26775369
   14   -1510.2720912403      3.11E-09 Convergence criterion met
 Total energy in the final basis set = -1510.27209124
   16   -1510.2300113830      2.04E-09 Convergence criterion met
 Total energy in the final basis set = -1510.23001138
   14   -1510.2750543491      4.45E-09 Convergence criterion met
 Total energy in the final basis set = -1510.27505435
   14   -1510.2784997607      1.87E-09 Convergence criterion met
 Total energy in the final basis set = -1510.27849976
   13   -1510.2812586395      7.93E-09 Convergence criterion met
    9   -1510.2937706145      7.60E-09 Convergence criterion met
 Total energy in the final basis set = -1510.29377061
   11   -1510.2937727448      1.89E-09 Convergence criterion met
 Total energy in the final basis set = -1510.29377274
   11   -1510.2937780308      1.62E-09 Convergence criterion met
 Total energy in the final basis set = -1510.29377803
   13   -1510.2937403216      4.91E-09 Convergence criterion met
 Total energy in the final basis set = -1510.29374032
   13   -1510.2937976995      7.03E-09 Convergence criterion met
 Total energy in the final basis set = -1510.29379770
   11   -1510.2938105164      7.99E-09 Convergence criterion met
 Total energy in the final basis set = -1510.29381052

             Standard Nuclear Orientation (Angstroms)
    I     Atom           X                Y                Z
 ----------------------------------------------------------------
    1      O      -1.1902691492     0.0283077901     0.5999370780
    2      C      -2.2534160675     0.5905556892     0.9462173225
    3      C      -3.0360132201     1.6760123376     0.1395883169
    4      C      -2.4495370924     1.8899171502    -1.3162197927
    5      C      -1.1910022278     1.0108561262    -1.6789455323
    6      O      -1.6276420931    -0.2119851046    -2.2849813583
    7      C      -0.4747891919    -0.9775528502    -2.8166651749
    8      C      -0.1942279461    -2.2548573975    -1.9476392051
    9      O       0.1788332488    -1.8680451442    -0.5700361733
   10      C       1.5762853403    -1.5559613556    -0.4934495064
   11      C       1.8260949623    -0.8564348150     0.8763254758
   12      C       3.2919613932    -1.0329986932     1.4532815806
   13      C       4.2333489057    -1.8476753880     0.4912482184
   14      O       4.3683816029    -3.0911111167     0.4679320324
   15      O      -2.9396036070     0.3180978951     2.1677367815
   16      O       4.9651630444    -0.9443921160    -0.3424792900
   17      O       2.4019963402    -1.7967347368    -1.4024396346
   18      C       5.7566805105    -1.7087991121    -1.3313686855
   19      C       1.7463074925     0.7322732523     0.7132565001
   20      C       1.5020188671     1.3374008662     2.1496968136
   21      C       2.9117894846     1.1160411714     2.8130807262
   22      C       3.7246286993     0.4829620293     1.6114228817
   23      O       3.1393396263     1.1255803609     0.4134112792
   24      H       1.0570204257    -1.2116579933     1.5839125819
   25      H       3.2649609159    -1.5630655235     2.4221147346
   26      H       1.0579077095     1.0754885688    -0.0938816712
   27      H       1.2545335352     2.4086157587     2.0772349762
   28      H       0.6879591683     0.8229512739     2.6846606117
   29      H       3.3661690006     2.0691244797     3.1267492706
   30      H       2.8713186217     0.4419618865     3.6837640344
   31      H       4.8186935221     0.6451786023     1.6452323277
   32      O       0.0062703803     1.3820079238    -1.6280499508
   33      C      -2.2133705351    -0.7264666138     2.9281828941
   34      C      -4.5244149940     1.2232607009    -0.1893552040
   35      C      -5.3383151067     2.4950342987    -0.6497160889
   36      C      -4.7548130555     2.7194274850    -2.0935606830
   37      C      -3.7218794130     1.5275442614    -2.1966802181
   38      O      -4.3711336093     0.4366529669    -1.4329307133
   39      H      -3.0268117885     2.6157007835     0.7219054303
   40      H      -2.1445346753     2.9424452412    -1.4558276809
   41      H      -1.2152366205    -0.3693667999     3.2555580467
   42      H      -4.9959066306     0.6159756377     0.6075823658
   43      H      -6.4163392826     2.2702672976    -0.6796484841
   44      H      -5.1751294264     3.3568340626     0.0169105966
   45      H      -5.5356174184     2.6195643268    -2.8641673526
   46      H      -4.2681404783     3.7007875178    -2.2090468235
   47      H      -3.4856044536     1.1924457918    -3.2243276648
   48      H      -2.0770280613    -1.6476469822     2.3258255610
   49      H      -2.8355753719    -0.9464537909     3.8150237018
   50      H       6.3223822003    -0.9594543696    -1.9148682647
   51      H       5.0946681869    -2.2856929616    -2.0091896128
   52      H       6.4616580200    -2.4108665737    -0.8406117151
   53      H      -1.1113958645    -2.8712618349    -1.8608612354
   54      H       0.6181055803    -2.8443433198    -2.4265972550
   55      H       0.4235691781    -0.3227180367    -2.8227731547
   56      H      -0.7328184348    -1.2831025435    -3.8524823985
 ----------------------------------------------------------------

    9   -1510.2938105837      9.78E-09 Convergence criterion met
 Total energy in the final basis set = -1510.29381058
 Final energy is   -1510.29381058372
 **  OPTIMIZATION CONVERGED  **

                    Orbital Energies (a.u.)
 --------------------------------------------------------------

 Alpha MOs
 -- Occupied --
-18.948 -18.931 -18.926 -18.916 -18.891 -18.891 -18.872 -18.870
-18.868 -18.851 -10.110 -10.102 -10.091 -10.081 -10.073 -10.068
-10.065 -10.064 -10.062 -10.047 -10.046 -10.045 -10.040 -10.035
-10.024 -10.024 -10.023 -10.022 -10.009 -10.008  -1.024  -1.010
 -1.002  -0.991  -0.974  -0.954  -0.948  -0.935  -0.927  -0.916
 -0.767  -0.750  -0.727  -0.718  -0.711  -0.701  -0.687  -0.670
 -0.644  -0.614  -0.596  -0.573  -0.549  -0.541  -0.532  -0.526
 -0.516  -0.499  -0.488  -0.471  -0.467  -0.452  -0.447  -0.437
 -0.432  -0.426  -0.424  -0.418  -0.411  -0.409  -0.399  -0.394
 -0.392  -0.383  -0.371  -0.366  -0.359  -0.355  -0.348  -0.342
 -0.340  -0.336  -0.334  -0.330  -0.328  -0.318  -0.313  -0.311
 -0.309  -0.303  -0.299  -0.293  -0.290  -0.282  -0.279  -0.267
 -0.264  -0.262  -0.244  -0.240  -0.237  -0.234  -0.218  -0.189
 -0.181  -0.164  -0.160  -0.156  -0.154  -0.147  -0.146  -0.133
 -0.128

          Ground-State Mulliken Net Atomic Charges

     Atom                 Charge (a.u.)
  ----------------------------------------
      1 O                    -0.199985
      2 C                     0.213662
      3 C                    -0.078584
      4 C                    -0.080497
      5 C                     0.222008
      6 O                    -0.170059
      7 C                    -0.054830
      8 C                    -0.050316
      9 O                    -0.166432
     10 C                     0.212923
     11 C                    -0.078331
     12 C                    -0.081090
     13 C                     0.211294
     14 O                    -0.223698
     15 O                    -0.168214
     16 O                    -0.164632
     17 O                    -0.215408
     18 C                    -0.126501
     19 C                     0.016631
     20 C                    -0.142887
     21 C                    -0.145482
     22 C                     0.026287
     23 O                    -0.187746
     24 H                     0.085741
     25 H                     0.079718
     26 H                     0.106675
     27 H                     0.073917
     28 H                     0.065716
     29 H                     0.074684
     30 H                     0.069347
     31 H                     0.084135
     32 O                    -0.223653
     33 C                    -0.127586
     34 C                     0.024943
     35 C                    -0.143720
     36 C                    -0.144575
     37 C                     0.026656
     38 O                    -0.187759
     39 H                     0.087391
     40 H                     0.085166
     41 H                     0.086359
     42 H                     0.087994
     43 H                     0.078757
     44 H                     0.073948
     45 H                     0.078408
     46 H                     0.073977
     47 H                     0.087720
     48 H                     0.095569
     49 H                     0.093149
     50 H                     0.087428
     51 H                     0.092609
     52 H                     0.084686
     53 H                     0.090625
     54 H                     0.095675
     55 H                     0.102873
     56 H                     0.085315
  ----------------------------------------
  Sum of atomic charges =    -0.000000

                    Cartesian Multipole Moments
 -----------------------------------------------------------------
    Charge (ESU x 10^10)
                 0.0000
    Dipole Moment (Debye)
         X      -3.3713      Y       1.4641      Z       1.1984
       Tot       3.8659
    Quadrupole Moments (Debye-Ang)
        XX    -159.7178     XY      -3.7809     YY    -160.4277
        XZ       1.0957     YZ       0.8110     ZZ    -146.8078

 Total job time:  131.19s(wall), 6250.89s(cpu)
        *  Thank you very much for using Q-Chem.  Have a nice day.  *
