 Q-Chem 5.0, Q-Chem, Inc., Pleasanton, CA (2017)
 Q-Chem 5.0.1 for Intel X86 EM64T Linux

User input:
--------------------------------------------------------------
$molecule
0  1
O -3.94934 -3.66094 2.70899
C -3.26408 -4.56952 2.26188
C -3.36658 -6.02376 2.66595
C -4.4535 -6.39398 3.6884
C -5.43148 -5.30102 4.05864
O -5.57149 -4.43072 3.01538
C -6.92214 -4.31606 2.55508
C -7.71504 -3.39493 3.47646
O -8.20595 -4.13577 4.60475
C -9.22111 -4.99541 4.34091
C -9.69224 -5.7431 5.56551
C -11.18532 -5.5831 5.88705
C -12.04371 -5.01551 4.77453
O -12.82939 -4.08596 4.88944
O -2.32451 -4.27797 1.32429
O -12.0712 -5.70798 3.60212
O -9.64372 -5.21207 3.21279
C -12.85235 -5.37894 2.51355
C -9.58463 -7.27594 5.45028
C -9.50613 -7.88866 6.84816
C -10.91918 -7.64416 7.34465
C -11.56034 -7.06582 6.07662
O -10.85949 -7.69257 5.02729
H -9.06601 -5.41218 6.42684
H -11.36305 -4.96642 6.79592
H -8.72521 -7.60936 4.82807
H -9.36226 -8.9845 6.71042
H -8.69904 -7.49602 7.50339
H -11.37202 -8.6254 7.60894
H -11.00741 -6.93884 8.19929
H -12.66231 -7.21852 6.08676
O -5.72964 -5.01846 5.20897
C -2.09042 -3.01339 0.82643
C -3.78651 -6.90581 1.47484
C -3.3874 -8.35929 1.73196
C -4.41144 -8.75103 2.77597
C -5.21934 -7.45443 2.87274
O -5.18788 -6.94661 1.56128
H -2.355 -6.31831 3.02438
H -4.05551 -6.83613 4.62902
H -1.78351 -2.32973 1.64665
H -3.36703 -6.56143 0.50428
H -3.58994 -8.94019 0.80388
H -2.32579 -8.49645 2.03058
H -5.05337 -9.55622 2.35354
H -3.99598 -9.0742 3.75484
H -6.23016 -7.66173 3.29034
H -3.00545 -2.6214 0.33291
H -1.27361 -3.06269 0.07754
H -12.67007 -6.11178 1.7011
H -12.58767 -4.36431 2.14648
H -13.92788 -5.41122 2.78987
H -7.07348 -2.55034 3.80728
H -8.57944 -2.94883 2.93248
H -7.38592 -5.29519 2.31064
H -6.84616 -3.76664 1.59283
$end

$opt
CONSTRAINT
tors           1           2           3           4      +2.144
tors           3           4           5           6     +28.421
tors           4           5           6           7    +121.791
tors           5           6           7           8     +79.392
tors           6           7           8           9     -84.221
tors           7           8           9          10     -72.324
tors           8           9          10          11    -180.000
tors           9          10          11          12    +123.158
tors          11          12          13          14    -129.962
ENDCONSTRAINT
$end

$rem
JOBTYPE                   OPT
METHOD                    B3LYP
DFT_D                     d3_op
BASIS                     STO-3G
GEOM_OPT_MAX_CYCLES       100
GEOM_OPT_TOL_GRADIENT     300
GEOM_OPT_TOL_DISPLACEMENT 1200
GEOM_OPT_TOL_ENERGY       100
SYMMETRY                  False
THRESH                    12
SCF_CONVERGENCE           8
MAX_SUB_FILE_NUM          128
MEM_STATIC                400
MEM_TOTAL                 4000
$end
--------------------------------------------------------------

   16   -1510.0765932000      2.51E-09 Convergence criterion met
 Total energy in the final basis set = -1510.07659320
   14   -1510.1557481465      6.14E-09 Convergence criterion met
 Total energy in the final basis set = -1510.15574815
   14   -1510.2041442454      7.53E-09 Convergence criterion met
 Total energy in the final basis set = -1510.20414425
   14   -1510.2311558699      7.09E-09 Convergence criterion met
 Total energy in the final basis set = -1510.23115587
   14   -1510.2443521598      4.09E-09 Convergence criterion met
 Total energy in the final basis set = -1510.24435216
   14   -1510.2511938656      2.15E-09 Convergence criterion met
 Total energy in the final basis set = -1510.25119387
   13   -1510.2551076467      8.13E-09 Convergence criterion met
 Total energy in the final basis set = -1510.25510765
   13   -1510.2573031719      3.25E-09 Convergence criterion met
   12   -1510.2599340870      5.27E-09 Convergence criterion met
 Total energy in the final basis set = -1510.25993409
   11   -1510.2599856033      5.82E-09 Convergence criterion met
 Total energy in the final basis set = -1510.25998560
   11   -1510.2600232675      8.10E-09 Convergence criterion met
 Total energy in the final basis set = -1510.26002327
   11   -1510.2600380461      4.55E-09 Convergence criterion met
 Total energy in the final basis set = -1510.26003805
   11   -1510.2600437133      1.86E-09 Convergence criterion met
 Total energy in the final basis set = -1510.26004371
   10   -1510.2600452115      6.71E-09 Convergence criterion met
 Total energy in the final basis set = -1510.26004521

             Standard Nuclear Orientation (Angstroms)
    I     Atom           X                Y                Z
 ----------------------------------------------------------------
    1      O       4.2705355273    -1.3119878639    -1.6190761844
    2      C       4.8304144554    -0.5796428441    -0.7759928864
    3      C       4.3076170477     0.7560899405    -0.1461895690
    4      C       2.8684280763     1.1998067556    -0.6088841955
    5      C       1.8703747350     0.0422119851    -1.0022330743
    6      O       2.1650269782    -1.1840206207    -0.2857528903
    7      C       0.9909638967    -1.6243320780     0.4985696436
    8      C      -0.1315736699    -2.3676588128    -0.3323416269
    9      O      -1.0868843646    -1.4550237931    -1.0018443540
   10      C      -1.9692869508    -0.8410839601    -0.0525617424
   11      C      -2.9215576978     0.0914820514    -0.8762236531
   12      C      -4.4852880594    -0.1592939278    -0.7379889064
   13      C      -4.9525906125    -1.1674960181     0.3689025749
   14      O      -5.7426721734    -2.1259170481     0.2116405367
   15      O       6.1182502426    -0.8530150224    -0.2083147223
   16      O      -4.4565432124    -0.7427434205     1.6380979974
   17      O      -1.9003027713    -1.0282591541     1.1813478294
   18      C      -4.9229098449    -1.6617196169     2.7007481617
   19      C      -2.8166894622     1.6204474229    -0.4387723265
   20      C      -3.2840521410     2.5002493543    -1.6635134927
   21      C      -4.8349649832     2.2335631327    -1.6448455741
   22      C      -4.9740748785     1.3108135091    -0.3679109151
   23      O      -3.9114427330     1.7952060393     0.5400264901
   24      H      -2.6178264621    -0.0237257858    -1.9315819162
   25      H      -4.9117913772    -0.5058189029    -1.6958029307
   26      H      -1.8453750332     1.9076142402     0.0081638239
   27      H      -3.0556008374     3.5625606549    -1.4809624144
   28      H      -2.8059468167     2.1913309083    -2.6066384924
   29      H      -5.4061792519     3.1661765533    -1.5124732623
   30      H      -5.1895136604     1.7289891113    -2.5577282927
   31      H      -5.9600803513     1.3500384618     0.1342932747
   32      O       0.8860526595     0.1967210704    -1.7556495597
   33      C       6.6528801372    -2.1188741189    -0.7603945830
   34      C       4.1756670920     0.8165843693     1.4420589194
   35      C       4.4331499798     2.3167198408     1.8555284570
   36      C       3.1461858993     3.0018780370     1.2599935294
   37      C       2.3118613608     1.7443467131     0.7859002193
   38      O       2.7277448270     0.6623554637     1.7099580520
   39      H       5.0332972543     1.5307477073    -0.4593435163
   40      H       2.8833946009     1.9683351309    -1.4012955686
   41      H       6.7838188718    -2.0631244691    -1.8604952113
   42      H       4.7638127602     0.0548138054     1.9891832174
   43      H       4.4634958540     2.4094192882     2.9531853774
   44      H       5.3699410760     2.7185478258     1.4376789419
   45      H       2.5925276355     3.5673703855     2.0260337036
   46      H       3.3756954201     3.6783568837     0.4208248439
   47      H       1.2126722476     1.8784763171     0.8158128957
   48      H       5.9892719112    -2.9773023489    -0.5297250049
   49      H       7.6360846437    -2.2711401101    -0.2783269583
   50      H      -4.5075692025    -1.2656522488     3.6453229823
   51      H      -4.5526428743    -2.6943610174     2.5378770672
   52      H      -6.0303800903    -1.6896456149     2.7617253653
   53      H       0.3352899979    -2.9588200584    -1.1456411172
   54      H      -0.6742255710    -3.0517052929     0.3562520424
   55      H       0.5338681748    -0.7893482536     1.0700395001
   56      H       1.4035620210    -2.3511817653     1.2285324196
 ----------------------------------------------------------------

    9   -1510.2600461587      5.77E-09 Convergence criterion met
 Total energy in the final basis set = -1510.26004616
 Final energy is   -1510.26004615874
 **  OPTIMIZATION CONVERGED  **

                    Orbital Energies (a.u.)
 --------------------------------------------------------------

 Alpha MOs
 -- Occupied --
-18.933 -18.928 -18.926 -18.906 -18.892 -18.886 -18.883 -18.877
-18.868 -18.863 -10.099 -10.098 -10.092 -10.089 -10.065 -10.064
-10.064 -10.064 -10.063 -10.057 -10.057 -10.055 -10.039 -10.037
-10.033 -10.031 -10.024 -10.023 -10.017 -10.016  -1.012  -1.007
 -1.002  -0.997  -0.974  -0.967  -0.937  -0.931  -0.927  -0.924
 -0.765  -0.758  -0.725  -0.719  -0.710  -0.706  -0.691  -0.663
 -0.653  -0.612  -0.598  -0.579  -0.547  -0.542  -0.539  -0.533
 -0.516  -0.508  -0.483  -0.473  -0.461  -0.453  -0.439  -0.437
 -0.431  -0.428  -0.414  -0.412  -0.409  -0.408  -0.406  -0.403
 -0.384  -0.379  -0.371  -0.367  -0.361  -0.356  -0.346  -0.342
 -0.341  -0.336  -0.335  -0.333  -0.328  -0.323  -0.318  -0.316
 -0.307  -0.304  -0.303  -0.301  -0.296  -0.292  -0.278  -0.275
 -0.270  -0.254  -0.245  -0.240  -0.238  -0.233  -0.230  -0.181
 -0.177  -0.169  -0.158  -0.154  -0.146  -0.144  -0.142  -0.141
 -0.139

          Ground-State Mulliken Net Atomic Charges

     Atom                 Charge (a.u.)
  ----------------------------------------
      1 O                    -0.204908
      2 C                     0.212580
      3 C                    -0.079290
      4 C                    -0.078994
      5 C                     0.219026
      6 O                    -0.180799
      7 C                    -0.048599
      8 C                    -0.051703
      9 O                    -0.165792
     10 C                     0.203563
     11 C                    -0.079921
     12 C                    -0.079076
     13 C                     0.203475
     14 O                    -0.218801
     15 O                    -0.173616
     16 O                    -0.156614
     17 O                    -0.212000
     18 C                    -0.125581
     19 C                     0.027905
     20 C                    -0.142916
     21 C                    -0.144635
     22 C                     0.026886
     23 O                    -0.184142
     24 H                     0.090730
     25 H                     0.084878
     26 H                     0.080924
     27 H                     0.076556
     28 H                     0.076617
     29 H                     0.077175
     30 H                     0.074245
     31 H                     0.082339
     32 O                    -0.195481
     33 C                    -0.128496
     34 C                     0.027316
     35 C                    -0.141245
     36 C                    -0.145038
     37 C                     0.022813
     38 O                    -0.190580
     39 H                     0.083720
     40 H                     0.084471
     41 H                     0.088504
     42 H                     0.088629
     43 H                     0.078667
     44 H                     0.074871
     45 H                     0.079493
     46 H                     0.074603
     47 H                     0.080281
     48 H                     0.090100
     49 H                     0.089693
     50 H                     0.092701
     51 H                     0.087528
     52 H                     0.086142
     53 H                     0.094555
     54 H                     0.086754
     55 H                     0.090883
     56 H                     0.089604
  ----------------------------------------
  Sum of atomic charges =    -0.000000

                    Cartesian Multipole Moments
 -----------------------------------------------------------------
    Charge (ESU x 10^10)
                -0.0000
    Dipole Moment (Debye)
         X       2.6200      Y       1.5513      Z       0.0822
       Tot       3.0459
    Quadrupole Moments (Debye-Ang)
        XX    -147.4400     XY      -3.5092     YY    -152.5007
        XZ       3.1051     YZ      -5.3774     ZZ    -161.6910

 Total job time:  60.71s(wall), 2889.70s(cpu)
        *  Thank you very much for using Q-Chem.  Have a nice day.  *
