 Q-Chem 5.0, Q-Chem, Inc., Pleasanton, CA (2017)
 Q-Chem 5.0.1 for Intel X86 EM64T Linux

User input:
--------------------------------------------------------------
$molecule
0  1
O -3.94934 -3.66094 2.70899
C -3.26408 -4.56952 2.26188
C -3.36658 -6.02376 2.66595
C -2.29596 -6.56258 3.62891
C -1.34652 -5.54411 4.21999
O -1.96255 -4.32782 4.30119
C -3.12599 -4.3404 5.13515
C -3.1583 -3.09233 6.01116
O -3.75029 -3.40198 7.28259
C -5.03205 -2.9898 7.44488
C -5.59706 -3.34444 8.79974
C -6.81949 -2.51923 9.22749
C -7.50437 -1.73377 8.12718
O -7.14944 -0.64071 7.71027
O -2.23362 -4.25991 1.43036
O -8.66006 -2.24607 7.61689
O -5.75342 -2.80843 6.47024
C -9.41431 -1.64888 6.62832
C -6.15795 -4.7775 8.87217
C -6.12492 -5.26065 10.32
C -7.19923 -4.38424 10.93075
C -7.7334 -3.68932 9.67036
O -7.53604 -4.63321 8.64615
H -4.76281 -3.25223 9.53298
H -6.63075 -1.82204 10.07293
H -5.62468 -5.49481 8.21018
H -6.48449 -6.31489 10.31287
H -5.13567 -5.21714 10.82437
H -7.97082 -5.04392 11.38608
H -6.84074 -3.6415 11.67598
H -8.78364 -3.36284 9.83779
O -0.13566 -5.62861 4.08645
C -1.93943 -2.98303 1.00054
C -4.64819 -6.5873 3.342
C -4.7934 -8.07536 3.00379
C -3.67837 -8.67041 3.85514
C -3.17427 -7.41277 4.57924
O -4.35699 -6.66847 4.71606
H -3.3178 -6.53807 1.67897
H -1.618 -7.25359 3.07724
H -1.70657 -2.33097 1.86953
H -5.5659 -6.02694 3.06182
H -5.7704 -8.41511 3.41663
H -4.75305 -8.3268 1.92216
H -4.13491 -9.37437 4.58611
H -2.87429 -9.18953 3.29035
H -2.63939 -7.67662 5.51681
H -2.79813 -2.56278 0.43446
H -1.0541 -3.01879 0.33324
H -10.29563 -2.28571 6.40894
H -8.81148 -1.54036 5.70137
H -9.76848 -0.65161 6.9662
H -2.11049 -2.80808 6.24881
H -3.59422 -2.21762 5.47582
H -2.99383 -5.14279 5.90029
H -4.1388 -4.41907 4.7269
$end

$opt
CONSTRAINT
tors           1           2           3           4    -102.516
tors           3           4           5           6     +28.421
tors           4           5           6           7     +60.786
tors           5           6           7           8    +137.555
tors           6           7           8           9    -146.407
tors           7           8           9          10    -103.001
tors           8           9          10          11    -180.000
tors           9          10          11          12    +159.999
tors          11          12          13          14     -82.285
ENDCONSTRAINT
$end

$rem
JOBTYPE                   OPT
METHOD                    B3LYP
DFT_D                     d3_op
BASIS                     STO-3G
GEOM_OPT_MAX_CYCLES       100
GEOM_OPT_TOL_GRADIENT     300
GEOM_OPT_TOL_DISPLACEMENT 1200
GEOM_OPT_TOL_ENERGY       100
SYMMETRY                  False
THRESH                    12
SCF_CONVERGENCE           8
MAX_SUB_FILE_NUM          128
MEM_STATIC                400
MEM_TOTAL                 4000
$end
--------------------------------------------------------------

   15   -1510.1007788109      8.57E-09 Convergence criterion met
 Total energy in the final basis set = -1510.10077881
   14   -1510.1771698331      2.59E-09 Convergence criterion met
 Total energy in the final basis set = -1510.17716983
   14   -1510.2195889738      1.40E-09 Convergence criterion met
 Total energy in the final basis set = -1510.21958897
   14   -1510.2433967367      2.23E-09 Convergence criterion met
 Total energy in the final basis set = -1510.24339674
   13   -1510.2543937859      6.90E-09 Convergence criterion met
 Total energy in the final basis set = -1510.25439379
   13   -1510.2601651537      4.52E-09 Convergence criterion met
 Total energy in the final basis set = -1510.26016515
   13   -1510.2633802433      2.60E-09 Convergence criterion met
 Total energy in the final basis set = -1510.26338024
   13   -1510.2650198087      1.87E-09 Convergence criterion met
   11   -1510.2666150052      5.09E-09 Convergence criterion met
 Total energy in the final basis set = -1510.26661501
   11   -1510.2666506517      4.21E-09 Convergence criterion met
 Total energy in the final basis set = -1510.26665065
   11   -1510.2666738124      3.85E-09 Convergence criterion met
 Total energy in the final basis set = -1510.26667381
   10   -1510.2666840578      5.10E-09 Convergence criterion met
 Total energy in the final basis set = -1510.26668406
   10   -1510.2666905382      8.59E-09 Convergence criterion met
 Total energy in the final basis set = -1510.26669054
    9   -1510.2666927064      4.09E-09 Convergence criterion met
 Total energy in the final basis set = -1510.26669271

             Standard Nuclear Orientation (Angstroms)
    I     Atom           X                Y                Z
 ----------------------------------------------------------------
    1      O       2.3909200416    -1.5499343120     1.4537775779
    2      C       3.5206017498    -1.1180668719     1.1266442440
    3      C       4.0100244565     0.3715009385     1.1500830386
    4      C       4.0566481633     1.0980755044    -0.2604939914
    5      C       3.6278128317     0.2619199700    -1.5384223891
    6      O       2.6757133220    -0.8173957964    -1.4139336379
    7      C       1.3475736684    -0.3728041795    -0.9083934201
    8      C       0.2373493977    -1.1070006647    -1.7510406280
    9      O      -0.9319225858    -0.2050227865    -1.9015634447
   10      C      -1.9851155245    -0.5938323275    -1.0146155192
   11      C      -3.1836328772     0.3888326447    -1.2183823952
   12      C      -4.5679028545    -0.1879621024    -0.7011551681
   13      C      -4.4751737630    -1.6726378213    -0.1828144497
   14      O      -4.5043803477    -2.7019874319    -0.8927010331
   15      O       4.5965095400    -1.9382156305     0.6704470353
   16      O      -4.4174944392    -1.6802535345     1.2466989650
   17      O      -1.9257203098    -1.5654890368    -0.2276055793
   18      C      -4.2310629114    -3.0664255769     1.7294766910
   19      C      -3.0283123966     1.6718056520    -0.2885389021
   20      C      -4.0375636884     2.7762636075    -0.7959890716
   21      C      -5.4040972593     2.2019490675    -0.2678031790
   22      C      -4.9265971199     0.8666694739     0.4291537725
   23      O      -3.6071280151     1.2299725152     0.9982357142
   24      H      -3.2249341943     0.6714217092    -2.2851096164
   25      H      -5.3108537740    -0.1745270314    -1.5192138051
   26      H      -1.9836986851     2.0134298479    -0.1515777687
   27      H      -3.8038384459     3.7503341757    -0.3377576949
   28      H      -4.0149788923     2.8858106246    -1.8919766072
   29      H      -5.8654456578     2.8764775787     0.4709780952
   30      H      -6.1297919513     2.0145733261    -1.0750987399
   31      H      -5.5947124960     0.4789990610     1.2213162134
   32      O       4.2295581500     0.3971043611    -2.6274961142
   33      C       4.1285032016    -3.3339163265     0.5012697512
   34      C       3.0150970107     1.3157482659     1.9503009543
   35      C       3.7993682924     2.6242823007     2.3546479760
   36      C       3.8927775516     3.3589692250     0.9649673717
   37      C       3.1136244165     2.3502569747     0.0302589149
   38      O       2.0683602845     1.7973716037     0.9182727520
   39      H       5.0183097625     0.3806606711     1.6018507633
   40      H       5.0822981158     1.4417934543    -0.4835289656
   41      H       3.3328994735    -3.3936440764    -0.2696699789
   42      H       2.4653339425     0.8087802796     2.7670950436
   43      H       3.2177477677     3.2117453060     3.0828589973
   44      H       4.7876686460     2.4025465831     2.7876698560
   45      H       3.3801358637     4.3336580597     0.9874989484
   46      H       4.9319446976     3.5135776806     0.6333935682
   47      H       2.6610300740     2.8053675926    -0.8724998788
   48      H       3.7378487010    -3.7535166586     1.4506350213
   49      H       5.0098092566    -3.9139521599     0.1714311944
   50      H      -4.2276519588    -3.0080738257     2.8334032154
   51      H      -3.2663670369    -3.4841607776     1.3756937954
   52      H      -5.0514379378    -3.7333403470     1.3931691016
   53      H       0.6208400687    -1.3141035415    -2.7718349462
   54      H      -0.0777173811    -2.0507822594    -1.2599974328
   55      H       1.2056216833     0.7204379042    -1.0170875362
   56      H       1.2638951137    -0.6398929081     0.1696305847
 ----------------------------------------------------------------

    9   -1510.2666932560      3.35E-09 Convergence criterion met
 Total energy in the final basis set = -1510.26669326
 Final energy is   -1510.26669325601
 **  OPTIMIZATION CONVERGED  **

                    Orbital Energies (a.u.)
 --------------------------------------------------------------

 Alpha MOs
 -- Occupied --
-18.939 -18.935 -18.921 -18.916 -18.896 -18.891 -18.885 -18.880
-18.879 -18.855 -10.106 -10.104 -10.101 -10.087 -10.069 -10.066
-10.065 -10.064 -10.059 -10.057 -10.054 -10.051 -10.043 -10.042
-10.036 -10.031 -10.027 -10.025 -10.019 -10.017  -1.016  -1.014
 -1.004  -0.996  -0.980  -0.967  -0.942  -0.939  -0.934  -0.921
 -0.769  -0.760  -0.727  -0.721  -0.711  -0.708  -0.693  -0.665
 -0.649  -0.608  -0.602  -0.577  -0.553  -0.545  -0.542  -0.534
 -0.519  -0.507  -0.486  -0.476  -0.465  -0.461  -0.447  -0.444
 -0.438  -0.431  -0.427  -0.414  -0.411  -0.408  -0.403  -0.399
 -0.390  -0.384  -0.372  -0.369  -0.360  -0.359  -0.352  -0.344
 -0.343  -0.342  -0.335  -0.332  -0.328  -0.323  -0.321  -0.318
 -0.312  -0.309  -0.304  -0.300  -0.297  -0.283  -0.281  -0.274
 -0.273  -0.258  -0.250  -0.246  -0.240  -0.235  -0.230  -0.184
 -0.181  -0.164  -0.162  -0.159  -0.157  -0.154  -0.150  -0.143
 -0.136

          Ground-State Mulliken Net Atomic Charges

     Atom                 Charge (a.u.)
  ----------------------------------------
      1 O                    -0.216457
      2 C                     0.213145
      3 C                    -0.083236
      4 C                    -0.083727
      5 C                     0.211886
      6 O                    -0.188906
      7 C                    -0.061342
      8 C                    -0.053899
      9 O                    -0.172862
     10 C                     0.213072
     11 C                    -0.078615
     12 C                    -0.080607
     13 C                     0.213185
     14 O                    -0.222575
     15 O                    -0.168141
     16 O                    -0.167376
     17 O                    -0.207855
     18 C                    -0.126700
     19 C                     0.025562
     20 C                    -0.143762
     21 C                    -0.144438
     22 C                     0.025747
     23 O                    -0.186809
     24 H                     0.086913
     25 H                     0.082332
     26 H                     0.084198
     27 H                     0.077497
     28 H                     0.073511
     29 H                     0.077171
     30 H                     0.072971
     31 H                     0.089367
     32 O                    -0.187292
     33 C                    -0.127797
     34 C                     0.024271
     35 C                    -0.143472
     36 C                    -0.143333
     37 C                     0.022285
     38 O                    -0.192502
     39 H                     0.087462
     40 H                     0.089256
     41 H                     0.094409
     42 H                     0.089997
     43 H                     0.079727
     44 H                     0.074816
     45 H                     0.079401
     46 H                     0.075649
     47 H                     0.081933
     48 H                     0.090063
     49 H                     0.091751
     50 H                     0.087762
     51 H                     0.093759
     52 H                     0.085589
     53 H                     0.092134
     54 H                     0.100862
     55 H                     0.088533
     56 H                     0.105487
  ----------------------------------------
  Sum of atomic charges =     0.000000

                    Cartesian Multipole Moments
 -----------------------------------------------------------------
    Charge (ESU x 10^10)
                 0.0000
    Dipole Moment (Debye)
         X       1.0553      Y       2.1670      Z       1.1998
       Tot       2.6924
    Quadrupole Moments (Debye-Ang)
        XX    -149.6707     XY      -3.7697     YY    -152.4227
        XZ      11.9840     YZ      -4.3012     ZZ    -164.0405

 Total job time:  55.77s(wall), 2656.33s(cpu)
        *  Thank you very much for using Q-Chem.  Have a nice day.  *
