 Q-Chem 5.0, Q-Chem, Inc., Pleasanton, CA (2017)
 Q-Chem 5.0.1 for Intel X86 EM64T Linux

User input:
--------------------------------------------------------------
$molecule
0  1
O 2.3909200416 -1.549934312 1.4537775779
C 3.5206017498 -1.1180668719 1.126644244
C 4.0100244565 0.3715009385 1.1500830386
C 4.0566481633 1.0980755044 -0.2604939914
C 3.6278128317 0.26191997 -1.5384223891
O 2.675713322 -0.8173957964 -1.4139336379
C 1.3475736684 -0.3728041795 -0.9083934201
C 0.2373493977 -1.1070006647 -1.751040628
O -0.9319225858 -0.2050227865 -1.9015634447
C -1.9851155245 -0.5938323275 -1.0146155192
C -3.1836328772 0.3888326447 -1.2183823952
C -4.5679028545 -0.1879621024 -0.7011551681
C -4.475173763 -1.6726378213 -0.1828144497
O -4.5043803477 -2.7019874319 -0.8927010331
O 4.59650954 -1.9382156305 0.6704470353
O -4.4174944392 -1.6802535345 1.246698965
O -1.9257203098 -1.5654890368 -0.2276055793
C -4.2310629114 -3.0664255769 1.729476691
C -3.0283123966 1.671805652 -0.2885389021
C -4.0375636884 2.7762636075 -0.7959890716
C -5.4040972593 2.2019490675 -0.267803179
C -4.9265971199 0.8666694739 0.4291537725
O -3.6071280151 1.2299725152 0.9982357142
H -3.2249341943 0.6714217092 -2.2851096164
H -5.310853774 -0.1745270314 -1.5192138051
H -1.9836986851 2.0134298479 -0.1515777687
H -3.8038384459 3.7503341757 -0.3377576949
H -4.0149788923 2.8858106246 -1.8919766072
H -5.8654456578 2.8764775787 0.4709780952
H -6.1297919513 2.0145733261 -1.0750987399
H -5.594712496 0.478999061 1.2213162134
O 4.22955815 0.3971043611 -2.6274961142
C 4.1285032016 -3.3339163265 0.5012697512
C 3.0150970107 1.3157482659 1.9503009543
C 3.7993682924 2.6242823007 2.354647976
C 3.8927775516 3.358969225 0.9649673717
C 3.1136244165 2.3502569747 0.0302589149
O 2.0683602845 1.7973716037 0.918272752
H 5.0183097625 0.3806606711 1.6018507633
H 5.0822981158 1.4417934543 -0.4835289656
H 3.3328994735 -3.3936440764 -0.2696699789
H 2.4653339425 0.8087802796 2.7670950436
H 3.2177477677 3.211745306 3.0828589973
H 4.787668646 2.4025465831 2.787669856
H 3.3801358637 4.3336580597 0.9874989484
H 4.9319446976 3.5135776806 0.6333935682
H 2.661030074 2.8053675926 -0.8724998788
H 3.737848701 -3.7535166586 1.4506350213
H 5.0098092566 -3.9139521599 0.1714311944
H -4.2276519588 -3.0080738257 2.8334032154
H -3.2663670369 -3.4841607776 1.3756937954
H -5.0514379378 -3.733340347 1.3931691016
H 0.6208400687 -1.3141035415 -2.7718349462
H -0.0777173811 -2.0507822594 -1.2599974328
H 1.2056216833 0.7204379042 -1.0170875362
H 1.2638951137 -0.6398929081 0.1696305847
$end

$rem
JOBTYPE                   OPT
METHOD                    B3LYP
DFT_D                     d3_op
BASIS                     STO-3G
GEOM_OPT_MAX_CYCLES       100
GEOM_OPT_TOL_GRADIENT     300
GEOM_OPT_TOL_DISPLACEMENT 1200
GEOM_OPT_TOL_ENERGY       100
SYMMETRY                  False
THRESH                    12
SCF_CONVERGENCE           8
MAX_SUB_FILE_NUM          128
MEM_STATIC                400
MEM_TOTAL                 4000
$end
--------------------------------------------------------------

   16   -1510.2666656814      5.62E-09 Convergence criterion met
 Total energy in the final basis set = -1510.26666568
   13   -1510.2660032501      8.44E-09 Convergence criterion met
 Total energy in the final basis set = -1510.26600325
   13   -1510.2676024259      9.57E-09 Convergence criterion met
 Total energy in the final basis set = -1510.26760243
   13   -1510.2679642869      3.20E-09 Convergence criterion met
 Total energy in the final basis set = -1510.26796429
   13   -1510.2682485664      8.33E-09 Convergence criterion met
 Total energy in the final basis set = -1510.26824857
   13   -1510.2690260370      6.82E-09 Convergence criterion met
 Total energy in the final basis set = -1510.26902604
   13   -1510.2694927585      2.80E-09 Convergence criterion met
 Total energy in the final basis set = -1510.26949276
   13   -1510.2701047470      3.92E-09 Convergence criterion met
   12   -1510.2911275798      5.87E-09 Convergence criterion met
 Total energy in the final basis set = -1510.29112758
   12   -1510.2911250721      2.71E-09 Convergence criterion met
 Total energy in the final basis set = -1510.29112507
   11   -1510.2911538331      8.66E-09 Convergence criterion met
 Total energy in the final basis set = -1510.29115383
   11   -1510.2911694989      5.75E-09 Convergence criterion met
 Total energy in the final basis set = -1510.29116950
   11   -1510.2911803994      5.52E-09 Convergence criterion met
 Total energy in the final basis set = -1510.29118040
   11   -1510.2911857877      5.15E-09 Convergence criterion met
 Total energy in the final basis set = -1510.29118579

             Standard Nuclear Orientation (Angstroms)
    I     Atom           X                Y                Z
 ----------------------------------------------------------------
    1      O       0.9663763866    -2.2695380522     0.3970524144
    2      C       2.0211704321    -1.6242541987     0.5924809181
    3      C       2.1963767277    -0.1373690926     1.0565119912
    4      C       3.1439392151     0.6997005902     0.0947417369
    5      C       3.6513569631    -0.1111236198    -1.1872409257
    6      O       2.7421839752    -0.9303543448    -1.9565557651
    7      C       1.4775091949    -0.2329649134    -2.2995845598
    8      C       0.3130534981    -1.2642767101    -2.4940504515
    9      O      -0.9391627580    -0.4556014310    -2.4146386161
   10      C      -1.6667886124    -0.7672118436    -1.2295376287
   11      C      -2.7475775202     0.3359132297    -0.9723208450
   12      C      -3.4588345539     0.1703444042     0.4336815422
   13      C      -2.8840326121    -1.0042659555     1.3103817823
   14      O      -3.4780182737    -2.0697095719     1.5834609866
   15      O       3.3309668787    -2.1853175620     0.4747286918
   16      O      -1.6334132977    -0.6036382145     1.9097886395
   17      O      -1.4715618925    -1.7817423607    -0.5205566253
   18      C      -1.0245361225    -1.7568880581     2.6168519372
   19      C      -2.1268431604     1.7949192282    -0.8329895769
   20      C      -3.2934099185     2.8392983185    -1.0239723938
   21      C      -4.0728554011     2.6701551552     0.3340989579
   22      C      -3.1775010298     1.5950356346     1.0719053230
   23      O      -1.8072025465     1.9071628590     0.6076646057
   24      H      -3.4803515858     0.3026406434    -1.7996348220
   25      H      -4.5391858025    -0.0201908215     0.3096773646
   26      H      -1.2158910765     1.9604731367    -1.4399840674
   27      H      -2.8832447671     3.8564743168    -1.1285211589
   28      H      -3.9166974317     2.6171508744    -1.9050235428
   29      H      -4.0959995543     3.6106611997     0.9069232707
   30      H      -5.1070170010     2.3188418715     0.1895863750
   31      H      -3.2268211085     1.6199411339     2.1775398459
   32      O       4.8719352444    -0.1893367805    -1.4506137481
   33      C       3.2502974181    -3.5544280272    -0.0844873128
   34      C       0.8810146947     0.7542936777     1.0857133555
   35      C       1.1534099962     1.9556186492     2.0633306607
   36      C       2.1968821132     2.8031183276     1.2374269985
   37      C       2.2550089537     1.9974289254    -0.1192513701
   38      O       0.8774380029     1.4566008684    -0.2283162219
   39      H       2.6421147880    -0.1747012884     2.0675046471
   40      H       4.0768579976     0.9731794995     0.6183881873
   41      H       2.8922995421    -3.5256509279    -1.1340851380
   42      H      -0.0925760836     0.2254728181     1.2443063899
   43      H       0.2170933149     2.5153031134     2.2197767234
   44      H       1.5461387693     1.6269198675     3.0387433468
   45      H       1.8363750649     3.8285691501     1.0593978385
   46      H       3.1831269286     2.8551240868     1.7258935763
   47      H       2.5059176178     2.5953311415    -1.0171273526
   48      H       2.5719474262    -4.1992965874     0.5101689491
   49      H       4.2785631435    -3.9585568825    -0.0542099717
   50      H      -0.5320024103    -1.3681549814     3.5276485230
   51      H      -0.2749620039    -2.2184231309     1.9363043401
   52      H      -1.8087250491    -2.4932928201     2.8781372672
   53      H       0.3386102612    -1.7661871053    -3.4824047760
   54      H       0.3145302187    -2.0201284518    -1.6766621391
   55      H       1.6298271016     0.3415288544    -3.2389435656
   56      H       1.1522870467     0.4659591474    -1.4772094584
 ----------------------------------------------------------------

    9   -1510.2911859112      5.69E-09 Convergence criterion met
 Total energy in the final basis set = -1510.29118591
 Final energy is   -1510.29118591119
 **  OPTIMIZATION CONVERGED  **

                    Orbital Energies (a.u.)
 --------------------------------------------------------------

 Alpha MOs
 -- Occupied --
-18.940 -18.931 -18.921 -18.916 -18.911 -18.888 -18.886 -18.883
-18.875 -18.862 -10.108 -10.102 -10.096 -10.092 -10.072 -10.064
-10.060 -10.058 -10.056 -10.053 -10.042 -10.039 -10.039 -10.038
-10.034 -10.034 -10.026 -10.021 -10.020 -10.019  -1.019  -1.013
 -0.997  -0.995  -0.987  -0.970  -0.943  -0.938  -0.927  -0.924
 -0.770  -0.762  -0.725  -0.723  -0.709  -0.708  -0.689  -0.663
 -0.646  -0.604  -0.599  -0.572  -0.555  -0.544  -0.542  -0.537
 -0.515  -0.506  -0.487  -0.476  -0.465  -0.461  -0.444  -0.443
 -0.435  -0.433  -0.427  -0.414  -0.411  -0.409  -0.404  -0.402
 -0.394  -0.374  -0.371  -0.365  -0.358  -0.356  -0.353  -0.346
 -0.342  -0.337  -0.332  -0.332  -0.329  -0.325  -0.318  -0.315
 -0.311  -0.309  -0.304  -0.295  -0.293  -0.288  -0.281  -0.276
 -0.276  -0.259  -0.253  -0.246  -0.239  -0.233  -0.226  -0.183
 -0.178  -0.169  -0.166  -0.158  -0.155  -0.148  -0.145  -0.142
 -0.142

          Ground-State Mulliken Net Atomic Charges

     Atom                 Charge (a.u.)
  ----------------------------------------
      1 O                    -0.209563
      2 C                     0.215345
      3 C                    -0.086000
      4 C                    -0.084647
      5 C                     0.208974
      6 O                    -0.187632
      7 C                    -0.086044
      8 C                    -0.060191
      9 O                    -0.174243
     10 C                     0.213967
     11 C                    -0.079128
     12 C                    -0.081467
     13 C                     0.219283
     14 O                    -0.216674
     15 O                    -0.167372
     16 O                    -0.178202
     17 O                    -0.198827
     18 C                    -0.144306
     19 C                     0.024852
     20 C                    -0.143547
     21 C                    -0.144564
     22 C                     0.025113
     23 O                    -0.190006
     24 H                     0.086589
     25 H                     0.084398
     26 H                     0.094941
     27 H                     0.077257
     28 H                     0.073776
     29 H                     0.076869
     30 H                     0.073870
     31 H                     0.083275
     32 O                    -0.196333
     33 C                    -0.127880
     34 C                     0.012629
     35 C                    -0.141686
     36 C                    -0.142942
     37 C                     0.023483
     38 O                    -0.184572
     39 H                     0.087901
     40 H                     0.089171
     41 H                     0.095881
     42 H                     0.123187
     43 H                     0.088356
     44 H                     0.072179
     45 H                     0.080162
     46 H                     0.075358
     47 H                     0.085459
     48 H                     0.090981
     49 H                     0.093767
     50 H                     0.076292
     51 H                     0.102024
     52 H                     0.096857
     53 H                     0.082215
     54 H                     0.107460
     55 H                     0.067285
     56 H                     0.116670
  ----------------------------------------
  Sum of atomic charges =     0.000000

                    Cartesian Multipole Moments
 -----------------------------------------------------------------
    Charge (ESU x 10^10)
                 0.0000
    Dipole Moment (Debye)
         X      -0.7513      Y       2.5813      Z       1.0024
       Tot       2.8692
    Quadrupole Moments (Debye-Ang)
        XX    -167.8605     XY      -7.7516     YY    -156.5291
        XZ      10.8755     YZ       0.6497     ZZ    -156.3173

 Total job time:  157.28s(wall), 7501.86s(cpu)
        *  Thank you very much for using Q-Chem.  Have a nice day.  *
