 Q-Chem 5.0, Q-Chem, Inc., Pleasanton, CA (2017)
 Q-Chem 5.0.1 for Intel X86 EM64T Linux

User input:
--------------------------------------------------------------
$molecule
0  1
O -4.2218942337 1.7200549689 1.2342924751
C -4.5385913763 1.2841837249 0.1077641356
C -4.7631366507 -0.2111461881 -0.3313288351
C -3.4657191221 -1.1188912534 -0.4266105655
C -2.0562447036 -0.445391424 -0.5677861995
O -2.0771791581 0.9275028614 -0.1618675594
C -0.7703774275 1.3360571449 0.3957486321
C 0.1843457522 1.9564843306 -0.7020870159
O 1.1252627174 0.9632636619 -1.2668726969
C 2.2348773424 0.7647061737 -0.3848638417
C 3.1797128293 -0.2902843655 -1.0437196942
C 4.7237676144 0.0055415182 -0.8276148746
C 4.9960383767 1.2130323616 0.1444738844
O 5.2344445664 2.3943273626 -0.1912444258
O -4.7655490277 2.1133147399 -1.0417943958
O 5.0173410132 0.7408066316 1.4937161289
O 2.3909470812 1.3850117704 0.6906889418
C 5.1735393774 1.8824023253 2.4217188021
C 3.0499336043 -1.7457818257 -0.4081575976
C 3.6300990826 -2.7734111728 -1.4570324357
C 5.1717117866 -2.4789803197 -1.3407745267
C 5.1931243508 -1.3777602474 -0.2060852043
O 4.0596062953 -1.75523023 0.6713565645
H 2.9283120744 -0.3211108359 -2.1186078337
H 5.219259443 0.2260292784 -1.7894033403
H 2.0442268469 -1.9885554135 -0.0126187672
H 3.3922940364 -3.805028179 -1.1519035453
H 3.2359262334 -2.604334338 -2.4716935233
H 5.730770104 -3.3725197619 -1.0209207351
H 5.6064694647 -2.1102373839 -2.2835300916
H 6.131193956 -1.3222508345 0.3783929626
O -1.0057948911 -1.0600697104 -0.8608428251
C -4.5067019908 3.5290391013 -0.6969965534
C -5.5109305398 -0.9440974903 0.8665973412
C -5.9536144175 -2.3971615635 0.4297115742
C -4.5969365451 -3.1868255313 0.5503371298
C -3.6062696404 -2.0077580258 0.8964898191
O -4.3999415364 -1.1733376891 1.8219134784
H -5.3322754776 -0.2241063924 -1.2770094372
H -3.5660502992 -1.7841215673 -1.3041204902
H -3.4624596681 3.6772136039 -0.3535779654
H -6.3044787171 -0.3362232908 1.3423048811
H -6.7169712627 -2.7928381374 1.1180792038
H -6.3614265098 -2.4101953211 -0.5939480856
H -4.6277577954 -3.9137549952 1.378120618
H -4.320466857 -3.7148141921 -0.3760393833
H -2.6469103267 -2.3098917222 1.3597551046
H -5.1915686093 3.8904654026 0.0973683002
H -4.6779624323 4.1075898233 -1.6234839958
H 5.2552951639 1.4444131516 3.4333405907
H 4.2906572486 2.5523668537 2.3775474613
H 6.0830066633 2.4760911717 2.1954731699
H -0.4237464901 2.3229178919 -1.5537882161
H 0.7468468734 2.8032273792 -0.2533422643
H -0.2608557494 0.4872016662 0.8982105737
H -1.0133008173 2.1141539953 1.1487645792
$end

$rem
JOBTYPE                   OPT
METHOD                    B3LYP
DFT_D                     d3_op
BASIS                     STO-3G
GEOM_OPT_MAX_CYCLES       100
GEOM_OPT_TOL_GRADIENT     300
GEOM_OPT_TOL_DISPLACEMENT 1200
GEOM_OPT_TOL_ENERGY       100
SYMMETRY                  False
THRESH                    12
SCF_CONVERGENCE           8
MAX_SUB_FILE_NUM          128
MEM_STATIC                400
MEM_TOTAL                 4000
$end
--------------------------------------------------------------

   16   -1510.2724082741      5.36E-09 Convergence criterion met
 Total energy in the final basis set = -1510.27240827
   14   -1510.2767255340      4.51E-09 Convergence criterion met
 Total energy in the final basis set = -1510.27672553
   13   -1510.2801445481      8.35E-09 Convergence criterion met
 Total energy in the final basis set = -1510.28014455
   14   -1510.2833340589      1.75E-09 Convergence criterion met
 Total energy in the final basis set = -1510.28333406
   13   -1510.2837269703      9.17E-09 Convergence criterion met
 Total energy in the final basis set = -1510.28372697
   14   -1510.2861378632      4.92E-09 Convergence criterion met
 Total energy in the final basis set = -1510.28613786
   14   -1510.2874116909      4.07E-09 Convergence criterion met
 Total energy in the final basis set = -1510.28741169
   12   -1510.2883575462      9.02E-09 Convergence criterion met
   11   -1510.2985112021      5.92E-09 Convergence criterion met
 Total energy in the final basis set = -1510.29851120
   11   -1510.2985446745      8.09E-09 Convergence criterion met
 Total energy in the final basis set = -1510.29854467
   11   -1510.2985754803      9.83E-09 Convergence criterion met
 Total energy in the final basis set = -1510.29857548
   11   -1510.2985894325      7.48E-09 Convergence criterion met
 Total energy in the final basis set = -1510.29858943
   10   -1510.2985968338      5.21E-09 Convergence criterion met
 Total energy in the final basis set = -1510.29859683
    9   -1510.2985982106      4.51E-09 Convergence criterion met
 Total energy in the final basis set = -1510.29859821

             Standard Nuclear Orientation (Angstroms)
    I     Atom           X                Y                Z
 ----------------------------------------------------------------
    1      O      -2.9971503968     1.3560753608    -0.7510104050
    2      C      -2.9341575008     0.1492098192    -1.0804023818
    3      C      -3.6659258935    -1.0671899638    -0.4156644367
    4      C      -2.8528704777    -1.6592566521     0.8230466030
    5      C      -1.5333642334    -0.8579668953     1.1014998638
    6      O      -1.8534273115     0.3053309873     1.8641830997
    7      C      -0.6805718938     1.1995457651     2.0106389565
    8      C      -0.5164241458     2.1283926056     0.7477343004
    9      O       0.2586194682     1.4722477121    -0.3285531159
   10      C       1.6684556032     1.5033803402    -0.0731212946
   11      C       2.3671379698     0.6794354994    -1.2004225348
   12      C       3.9483019265     0.6737949889    -1.1168311198
   13      C       4.5257590907     1.4793407790     0.1065884960
   14      O       4.9815619513     2.6435271157     0.0778754957
   15      O      -2.1288885582    -0.3603611133    -2.1411111050
   16      O       4.5387352667     0.6341746963     1.2630734226
   17      O       2.1833851114     2.0910757766     0.9024073881
   18      C       4.9994716987     1.4058983278     2.4376393905
   19      C       2.0377544614    -0.8756949522    -1.0594226275
   20      C       2.3634642124    -1.5587484671    -2.4436810974
   21      C       3.9381021446    -1.5434547793    -2.4239447465
   22      C       4.2240468320    -0.8860552484    -1.0137046892
   23      O       3.1094685644    -1.3725699804    -0.1704204287
   24      H       2.0164407360     1.0677574817    -2.1737341235
   25      H       4.3847228704     1.1114133961    -2.0320943777
   26      H       1.0407871694    -1.0889479501    -0.6146986706
   27      H       1.9703730414    -2.5877505701    -2.4659375548
   28      H       1.9414381288    -1.0007993481    -3.2948182312
   29      H       4.3524212951    -2.5633636435    -2.4643155113
   30      H       4.3678097199    -0.9550157334    -3.2504664688
   31      H       5.1986993698    -1.1494024896    -0.5604768449
   32      O      -0.3810220430    -1.1594454613     0.7176858753
   33      C      -1.2759895895     0.7167139985    -2.7047923736
   34      C      -5.0269976692    -0.6572840884     0.2886369337
   35      C      -5.8535045819    -1.9776112567     0.5528178917
   36      C      -5.0507163169    -2.5997304431     1.7551890042
   37      C      -3.9311869529    -1.5063356250     1.9770581620
   38      O      -4.6109489384    -0.2339835363     1.6446087799
   39      H      -3.8156108122    -1.8446932195    -1.1851841131
   40      H      -2.5768811981    -2.7130308730     0.6418481886
   41      H      -1.8894201858     1.5442700685    -3.1138690168
   42      H      -5.5771126276     0.1592744249    -0.2178012497
   43      H      -6.8882645415    -1.7331918556     0.8412537876
   44      H      -5.8774173985    -2.6357951080    -0.3302980258
   45      H      -5.6788180468    -2.6959361822     2.6549763685
   46      H      -4.6237586983    -3.5866444272     1.5156037285
   47      H      -3.5074402027    -1.4640645967     2.9987919587
   48      H      -0.6993030487     0.2448794500    -3.5207202162
   49      H      -0.5903396061     1.1078420780    -1.9146677720
   50      H       5.0172282406     0.6942375467     3.2834324776
   51      H       4.3027173398     2.2384545805     2.6660322185
   52      H       6.0142739299     1.8263251638     2.2823363753
   53      H      -1.5211800673     2.3030544300     0.2997577854
   54      H      -0.0385466749     3.0852334428     1.0464601818
   55      H       0.2500470542     0.6165632297     2.1820964080
   56      H      -0.8971017216     1.8248145979     2.8999667376
 ----------------------------------------------------------------

    9   -1510.2985996918      1.83E-09 Convergence criterion met
 Total energy in the final basis set = -1510.29859969
 Final energy is   -1510.29859969183
 **  OPTIMIZATION CONVERGED  **

                    Orbital Energies (a.u.)
 --------------------------------------------------------------

 Alpha MOs
 -- Occupied --
-18.946 -18.941 -18.934 -18.918 -18.890 -18.889 -18.884 -18.879
-18.875 -18.855 -10.109 -10.108 -10.100 -10.086 -10.076 -10.072
-10.062 -10.061 -10.052 -10.050 -10.046 -10.045 -10.042 -10.039
-10.036 -10.029 -10.022 -10.021 -10.014 -10.013  -1.025  -1.017
 -1.010  -0.995  -0.971  -0.961  -0.948  -0.943  -0.935  -0.920
 -0.766  -0.758  -0.729  -0.720  -0.713  -0.705  -0.693  -0.658
 -0.648  -0.621  -0.598  -0.580  -0.549  -0.540  -0.537  -0.531
 -0.516  -0.507  -0.488  -0.478  -0.462  -0.457  -0.447  -0.443
 -0.434  -0.430  -0.426  -0.420  -0.407  -0.405  -0.403  -0.399
 -0.393  -0.381  -0.375  -0.367  -0.361  -0.360  -0.355  -0.349
 -0.341  -0.337  -0.333  -0.332  -0.329  -0.324  -0.317  -0.314
 -0.309  -0.308  -0.300  -0.297  -0.295  -0.285  -0.282  -0.274
 -0.272  -0.260  -0.251  -0.244  -0.238  -0.236  -0.225  -0.201
 -0.177  -0.172  -0.162  -0.161  -0.160  -0.152  -0.145  -0.137
 -0.135

          Ground-State Mulliken Net Atomic Charges

     Atom                 Charge (a.u.)
  ----------------------------------------
      1 O                    -0.217922
      2 C                     0.206782
      3 C                    -0.078764
      4 C                    -0.077844
      5 C                     0.210746
      6 O                    -0.163337
      7 C                    -0.050839
      8 C                    -0.058016
      9 O                    -0.175350
     10 C                     0.219414
     11 C                    -0.080136
     12 C                    -0.081537
     13 C                     0.212219
     14 O                    -0.221471
     15 O                    -0.169790
     16 O                    -0.167883
     17 O                    -0.206039
     18 C                    -0.127289
     19 C                     0.014711
     20 C                    -0.143774
     21 C                    -0.144952
     22 C                     0.026597
     23 O                    -0.187340
     24 H                     0.083744
     25 H                     0.081776
     26 H                     0.108257
     27 H                     0.077474
     28 H                     0.069647
     29 H                     0.076293
     30 H                     0.071319
     31 H                     0.084347
     32 O                    -0.214052
     33 C                    -0.147377
     34 C                     0.025526
     35 C                    -0.143644
     36 C                    -0.144302
     37 C                     0.026776
     38 O                    -0.183629
     39 H                     0.086766
     40 H                     0.086515
     41 H                     0.081656
     42 H                     0.086074
     43 H                     0.078338
     44 H                     0.073553
     45 H                     0.078383
     46 H                     0.073725
     47 H                     0.085824
     48 H                     0.081387
     49 H                     0.110482
     50 H                     0.087016
     51 H                     0.091420
     52 H                     0.085454
     53 H                     0.115382
     54 H                     0.093793
     55 H                     0.098945
     56 H                     0.094950
  ----------------------------------------
  Sum of atomic charges =    -0.000000

                    Cartesian Multipole Moments
 -----------------------------------------------------------------
    Charge (ESU x 10^10)
                 0.0000
    Dipole Moment (Debye)
         X      -1.7272      Y      -1.7639      Z      -1.0987
       Tot       2.7021
    Quadrupole Moments (Debye-Ang)
        XX    -159.7463     XY       3.1709     YY    -162.7482
        XZ      -0.6871     YZ      -0.2065     ZZ    -150.6378

 Total job time:  174.64s(wall), 8326.61s(cpu)
        *  Thank you very much for using Q-Chem.  Have a nice day.  *
