 Q-Chem 5.0, Q-Chem, Inc., Pleasanton, CA (2017)
 Q-Chem 5.0.1 for Intel X86 EM64T Linux

User input:
--------------------------------------------------------------
$molecule
0  1
O -3.94934 -3.66094 2.70899
C -3.26408 -4.56952 2.26188
C -3.36658 -6.02376 2.66595
C -2.86775 -6.39947 4.07089
C -2.48703 -5.25241 4.9805
O -3.05137 -4.09405 4.52758
C -3.35489 -3.16796 5.57614
C -2.18609 -2.21109 5.78697
O -1.35041 -2.68685 6.85382
C -1.79552 -2.41962 8.10666
C -0.87488 -2.9445 9.18258
C -0.73095 -2.03512 10.41164
C -1.77152 -0.94213 10.55043
O -1.6303 0.21989 10.19781
O -2.40955 -4.29582 1.2411
O -2.99171 -1.30662 11.036
O -2.94084 -2.04975 8.33875
C -4.05886 -0.44793 11.19856
C -1.37809 -4.24064 9.85554
C -0.18851 -5.00503 10.43535
C 0.20025 -4.09218 11.58302
C -0.95029 -3.07839 11.52597
O -2.03608 -3.82 11.02366
H 0.10665 -3.1768 8.70742
H 0.26659 -1.54491 10.45279
H -1.96308 -4.89345 9.17119
H -0.59573 -5.95274 10.85594
H 0.6311 -5.24782 9.72533
H 0.1751 -4.68359 12.5249
H 1.18289 -3.58398 11.47385
H -1.10354 -2.59932 12.51829
O -2.05253 -5.41841 6.11422
C -2.20703 -3.03736 0.71439
C -4.82682 -6.50113 2.74791
C -4.89091 -8.02264 2.61401
C -4.33806 -8.44913 3.95881
C -4.13072 -7.08443 4.62223
O -5.17339 -6.29688 4.09677
H -2.81711 -6.61314 1.89645
H -1.98646 -7.07745 4.02943
H -1.82268 -2.35196 1.50005
H -5.48427 -6.01817 1.99188
H -5.96539 -8.31103 2.56666
H -4.35959 -8.4338 1.72881
H -5.12875 -9.01557 4.49963
H -3.40214 -9.04754 3.92113
H -4.10893 -7.19178 5.72922
H -3.15718 -2.63815 0.29941
H -1.45913 -3.1007 -0.10235
H -4.91987 -1.01252 11.61119
H -4.35254 -0.01262 10.21954
H -3.79094 0.3649 11.90691
H -1.60881 -2.08611 4.84582
H -2.56131 -1.19337 6.04745
H -3.81455 -3.61062 6.48829
H -4.15968 -2.53597 5.14377
$end

$opt
CONSTRAINT
tors           1           2           3           4     -71.082
tors           3           4           5           6     +19.040
tors           4           5           6           7    +149.368
tors           5           6           7           8     +92.260
tors           6           7           8           9     -95.787
tors           7           8           9          10     -80.047
tors           8           9          10          11    -180.000
tors           9          10          11          12    +142.331
tors          11          12          13          14     -97.054
ENDCONSTRAINT
$end

$rem
JOBTYPE                   OPT
METHOD                    B3LYP
DFT_D                     d3_op
BASIS                     STO-3G
GEOM_OPT_MAX_CYCLES       100
GEOM_OPT_TOL_GRADIENT     300
GEOM_OPT_TOL_DISPLACEMENT 1200
GEOM_OPT_TOL_ENERGY       100
SYMMETRY                  False
THRESH                    12
SCF_CONVERGENCE           8
MAX_SUB_FILE_NUM          128
MEM_STATIC                400
MEM_TOTAL                 4000
$end
--------------------------------------------------------------

   16   -1510.1200039541      2.35E-09 Convergence criterion met
 Total energy in the final basis set = -1510.12000395
   14   -1510.1894436443      8.75E-09 Convergence criterion met
 Total energy in the final basis set = -1510.18944364
   14   -1510.2358878021      3.80E-09 Convergence criterion met
 Total energy in the final basis set = -1510.23588780
   14   -1510.2568028394      6.84E-09 Convergence criterion met
 Total energy in the final basis set = -1510.25680284
   14   -1510.2652391220      3.52E-09 Convergence criterion met
 Total energy in the final basis set = -1510.26523912
   13   -1510.2686348443      3.98E-09 Convergence criterion met
 Total energy in the final basis set = -1510.26863484
   13   -1510.2700588590      2.26E-09 Convergence criterion met
 Total energy in the final basis set = -1510.27005886
   12   -1510.2704223774      4.06E-09 Convergence criterion met
   12   -1510.2722735967      3.08E-09 Convergence criterion met
 Total energy in the final basis set = -1510.27227360
   11   -1510.2722843589      7.36E-09 Convergence criterion met
 Total energy in the final basis set = -1510.27228436
   11   -1510.2722989282      6.55E-09 Convergence criterion met
 Total energy in the final basis set = -1510.27229893
   11   -1510.2723062928      5.10E-09 Convergence criterion met
 Total energy in the final basis set = -1510.27230629
    9   -1510.2723091050      6.58E-09 Convergence criterion met
 Total energy in the final basis set = -1510.27230910
    9   -1510.2723112540      4.64E-09 Convergence criterion met
 Total energy in the final basis set = -1510.27231125

             Standard Nuclear Orientation (Angstroms)
    I     Atom           X                Y                Z
 ----------------------------------------------------------------
    1      O      -4.2218942337     1.7200549689     1.2342924751
    2      C      -4.5385913763     1.2841837249     0.1077641356
    3      C      -4.7631366507    -0.2111461881    -0.3313288351
    4      C      -3.4657191221    -1.1188912534    -0.4266105655
    5      C      -2.0562447036    -0.4453914240    -0.5677861995
    6      O      -2.0771791581     0.9275028614    -0.1618675594
    7      C      -0.7703774275     1.3360571449     0.3957486321
    8      C       0.1843457522     1.9564843306    -0.7020870159
    9      O       1.1252627174     0.9632636619    -1.2668726969
   10      C       2.2348773424     0.7647061737    -0.3848638417
   11      C       3.1797128293    -0.2902843655    -1.0437196942
   12      C       4.7237676144     0.0055415182    -0.8276148746
   13      C       4.9960383767     1.2130323616     0.1444738844
   14      O       5.2344445664     2.3943273626    -0.1912444258
   15      O      -4.7655490277     2.1133147399    -1.0417943958
   16      O       5.0173410132     0.7408066316     1.4937161289
   17      O       2.3909470812     1.3850117704     0.6906889418
   18      C       5.1735393774     1.8824023253     2.4217188021
   19      C       3.0499336043    -1.7457818257    -0.4081575976
   20      C       3.6300990826    -2.7734111728    -1.4570324357
   21      C       5.1717117866    -2.4789803197    -1.3407745267
   22      C       5.1931243508    -1.3777602474    -0.2060852043
   23      O       4.0596062953    -1.7552302300     0.6713565645
   24      H       2.9283120744    -0.3211108359    -2.1186078337
   25      H       5.2192594430     0.2260292784    -1.7894033403
   26      H       2.0442268469    -1.9885554135    -0.0126187672
   27      H       3.3922940364    -3.8050281790    -1.1519035453
   28      H       3.2359262334    -2.6043343380    -2.4716935233
   29      H       5.7307701040    -3.3725197619    -1.0209207351
   30      H       5.6064694647    -2.1102373839    -2.2835300916
   31      H       6.1311939560    -1.3222508345     0.3783929626
   32      O      -1.0057948911    -1.0600697104    -0.8608428251
   33      C      -4.5067019908     3.5290391013    -0.6969965534
   34      C      -5.5109305398    -0.9440974903     0.8665973412
   35      C      -5.9536144175    -2.3971615635     0.4297115742
   36      C      -4.5969365451    -3.1868255313     0.5503371298
   37      C      -3.6062696404    -2.0077580258     0.8964898191
   38      O      -4.3999415364    -1.1733376891     1.8219134784
   39      H      -5.3322754776    -0.2241063924    -1.2770094372
   40      H      -3.5660502992    -1.7841215673    -1.3041204902
   41      H      -3.4624596681     3.6772136039    -0.3535779654
   42      H      -6.3044787171    -0.3362232908     1.3423048811
   43      H      -6.7169712627    -2.7928381374     1.1180792038
   44      H      -6.3614265098    -2.4101953211    -0.5939480856
   45      H      -4.6277577954    -3.9137549952     1.3781206180
   46      H      -4.3204668570    -3.7148141921    -0.3760393833
   47      H      -2.6469103267    -2.3098917222     1.3597551046
   48      H      -5.1915686093     3.8904654026     0.0973683002
   49      H      -4.6779624323     4.1075898233    -1.6234839958
   50      H       5.2552951639     1.4444131516     3.4333405907
   51      H       4.2906572486     2.5523668537     2.3775474613
   52      H       6.0830066633     2.4760911717     2.1954731699
   53      H      -0.4237464901     2.3229178919    -1.5537882161
   54      H       0.7468468734     2.8032273792    -0.2533422643
   55      H      -0.2608557494     0.4872016662     0.8982105737
   56      H      -1.0133008173     2.1141539953     1.1487645792
 ----------------------------------------------------------------

    9   -1510.2723120296      2.16E-09 Convergence criterion met
 Total energy in the final basis set = -1510.27231203
 Final energy is   -1510.27231202960
 **  OPTIMIZATION CONVERGED  **

                    Orbital Energies (a.u.)
 --------------------------------------------------------------

 Alpha MOs
 -- Occupied --
-18.936 -18.935 -18.927 -18.923 -18.891 -18.885 -18.880 -18.876
-18.865 -18.859 -10.105 -10.100 -10.094 -10.089 -10.077 -10.074
-10.063 -10.060 -10.060 -10.058 -10.056 -10.052 -10.040 -10.037
-10.035 -10.032 -10.022 -10.021 -10.017 -10.016  -1.019  -1.012
 -1.002  -0.998  -0.973  -0.966  -0.942  -0.937  -0.927  -0.923
 -0.764  -0.760  -0.727  -0.720  -0.712  -0.705  -0.696  -0.660
 -0.650  -0.619  -0.598  -0.583  -0.546  -0.542  -0.539  -0.533
 -0.517  -0.507  -0.483  -0.477  -0.461  -0.459  -0.446  -0.439
 -0.433  -0.429  -0.421  -0.412  -0.410  -0.407  -0.405  -0.400
 -0.393  -0.379  -0.374  -0.364  -0.359  -0.358  -0.352  -0.345
 -0.344  -0.336  -0.334  -0.332  -0.329  -0.326  -0.321  -0.314
 -0.309  -0.307  -0.301  -0.299  -0.297  -0.291  -0.276  -0.275
 -0.272  -0.253  -0.250  -0.243  -0.240  -0.235  -0.230  -0.193
 -0.172  -0.167  -0.164  -0.155  -0.154  -0.149  -0.141  -0.141
 -0.139

          Ground-State Mulliken Net Atomic Charges

     Atom                 Charge (a.u.)
  ----------------------------------------
      1 O                    -0.212487
      2 C                     0.216912
      3 C                    -0.079439
      4 C                    -0.079793
      5 C                     0.208909
      6 O                    -0.175287
      7 C                    -0.046335
      8 C                    -0.051365
      9 O                    -0.166490
     10 C                     0.209268
     11 C                    -0.079263
     12 C                    -0.080112
     13 C                     0.210024
     14 O                    -0.221141
     15 O                    -0.172867
     16 O                    -0.163128
     17 O                    -0.214757
     18 C                    -0.126468
     19 C                     0.026534
     20 C                    -0.142540
     21 C                    -0.145130
     22 C                     0.026953
     23 O                    -0.184734
     24 H                     0.087811
     25 H                     0.083525
     26 H                     0.086639
     27 H                     0.077712
     28 H                     0.074698
     29 H                     0.077103
     30 H                     0.072899
     31 H                     0.085952
     32 O                    -0.210303
     33 C                    -0.128174
     34 C                     0.026118
     35 C                    -0.145632
     36 C                    -0.141636
     37 C                     0.026061
     38 O                    -0.184161
     39 H                     0.085414
     40 H                     0.084349
     41 H                     0.087296
     42 H                     0.083881
     43 H                     0.078592
     44 H                     0.073876
     45 H                     0.078821
     46 H                     0.074703
     47 H                     0.084760
     48 H                     0.087091
     49 H                     0.087890
     50 H                     0.088860
     51 H                     0.092151
     52 H                     0.086258
     53 H                     0.093626
     54 H                     0.094264
     55 H                     0.095498
     56 H                     0.096796
  ----------------------------------------
  Sum of atomic charges =     0.000000

                    Cartesian Multipole Moments
 -----------------------------------------------------------------
    Charge (ESU x 10^10)
                 0.0000
    Dipole Moment (Debye)
         X      -1.5903      Y      -0.9409      Z      -2.1137
       Tot       2.8075
    Quadrupole Moments (Debye-Ang)
        XX    -149.4823     XY      -2.5200     YY    -153.2770
        XZ       3.6454     YZ       2.7503     ZZ    -162.6949

 Total job time:  71.94s(wall), 3419.40s(cpu)
        *  Thank you very much for using Q-Chem.  Have a nice day.  *
