 Q-Chem 5.0, Q-Chem, Inc., Pleasanton, CA (2017)
 Q-Chem 5.0.1 for Intel X86 EM64T Linux

User input:
--------------------------------------------------------------
$molecule
0  1
O -3.9210465558 1.9474287778 1.1276794678
C -4.0110094817 1.6515488558 -0.0842292281
C -4.4482314401 0.2854613955 -0.7184408766
C -3.3450888093 -0.8504370142 -0.7941642815
C -1.9179258625 -0.5539460097 -0.1855631253
O -1.6068301153 0.8583134396 -0.0984675899
C -1.2625132458 1.2093289507 1.3075838436
C 0.2947923636 1.3460357879 1.4926748977
O 0.9163880501 0.3250281944 0.61668597
C 2.3286372249 0.2513677983 0.8548127746
C 2.8909944515 -0.8511127418 -0.1150628157
C 4.3320383122 -0.582298661 -0.70070095
C 4.8265922217 0.8953810905 -0.8950911562
O 5.8974406292 1.2227270209 -1.4542657067
O -3.8156055906 2.5817433748 -1.1599059389
O 3.8144813604 1.8367412384 -0.5311902441
O 2.915037209 0.8572387464 1.7757743251
C 4.2780527101 3.2158688369 -0.8036652325
C 3.2175503531 -2.1093870645 0.8066185241
C 3.6832785333 -3.3358251219 -0.0767903469
C 5.1838733305 -2.958705105 -0.3696115648
C 5.2368554392 -1.5045340097 0.2390143204
O 4.4550878348 -1.6545721152 1.4867152508
H 2.1426908062 -1.0625092781 -0.8978751207
H 4.3674843074 -1.0071180029 -1.7223602025
H 2.4287701396 -2.3409241302 1.548611641
H 3.6006415598 -4.27652193 0.4899364848
H 3.0834902999 -3.4250241883 -0.9968832278
H 5.8768155572 -3.6235503125 0.1710492568
H 5.4333750235 -2.9815103704 -1.4424279788
H 6.2482552956 -1.1065145214 0.4500936211
O -1.1631775481 -1.4500620281 0.2480015643
C -3.3666693829 3.8891868704 -0.6316522045
C -5.5446460855 -0.4339339493 0.1836450736
C -6.2951865443 -1.5072076366 -0.698337314
C -5.2032002737 -2.636341634 -0.7947058605
C -4.035110844 -2.002758186 0.0573142544
O -4.7410771972 -1.2515095202 1.1197495386
H -4.8347217469 0.5031852928 -1.7294851502
H -3.2062992491 -1.171570285 -1.8438578049
H -2.2904281854 3.860629392 -0.3635457686
H -6.1990615064 0.2610267021 0.744434999
H -7.2008235673 -1.8637284661 -0.1824555187
H -6.5835425455 -1.1074572384 -1.6836402085
H -5.5496008219 -3.5748919395 -0.3334259464
H -4.894609557 -2.8457451995 -1.8313545355
H -3.3127964707 -2.7200797889 0.4943865982
H -3.947166394 4.1872655775 0.2645679182
H -3.519771447 4.6245358881 -1.4429086652
H 3.4350532649 3.8772808623 -0.531776462
H 4.534462472 3.3568828548 -1.8736675127
H 5.1650350838 3.4755322067 -0.1907255629
H 0.6370080068 2.3600389963 1.1906366938
H 0.5766956251 1.192995913 2.5573381455
H -1.653991996 0.4456057053 2.009786392
H -1.7725010617 2.1707005487 1.5251739603
$end

$rem
JOBTYPE                   OPT
METHOD                    B3LYP
DFT_D                     d3_op
BASIS                     STO-3G
GEOM_OPT_MAX_CYCLES       100
GEOM_OPT_TOL_GRADIENT     300
GEOM_OPT_TOL_DISPLACEMENT 1200
GEOM_OPT_TOL_ENERGY       100
SYMMETRY                  False
THRESH                    12
SCF_CONVERGENCE           8
MAX_SUB_FILE_NUM          128
MEM_STATIC                400
MEM_TOTAL                 4000
$end
--------------------------------------------------------------

   16   -1510.2569516644      4.74E-09 Convergence criterion met
 Total energy in the final basis set = -1510.25695166
   14   -1510.2626269746      2.99E-09 Convergence criterion met
 Total energy in the final basis set = -1510.26262697
   14   -1510.2677796060      3.42E-09 Convergence criterion met
 Total energy in the final basis set = -1510.26777961
   14   -1510.2715367585      7.66E-09 Convergence criterion met
 Total energy in the final basis set = -1510.27153676
   14   -1510.2744777763      4.80E-09 Convergence criterion met
 Total energy in the final basis set = -1510.27447778
   14   -1510.2770473872      5.39E-09 Convergence criterion met
 Total energy in the final basis set = -1510.27704739
   13   -1510.2792173020      8.97E-09 Convergence criterion met
 Total energy in the final basis set = -1510.27921730
   13   -1510.2808373141      8.14E-09 Convergence criterion met
   12   -1510.3010923085      2.96E-09 Convergence criterion met
 Total energy in the final basis set = -1510.30109231
   11   -1510.3010971349      5.42E-09 Convergence criterion met
 Total energy in the final basis set = -1510.30109713
   11   -1510.3010987420      2.40E-09 Convergence criterion met
 Total energy in the final basis set = -1510.30109874
   11   -1510.3011014910      3.45E-09 Convergence criterion met
 Total energy in the final basis set = -1510.30110149
   11   -1510.3011002416      6.00E-09 Convergence criterion met
 Total energy in the final basis set = -1510.30110024
   10   -1510.3010983225      9.37E-09 Convergence criterion met
 Total energy in the final basis set = -1510.30109832

             Standard Nuclear Orientation (Angstroms)
    I     Atom           X                Y                Z
 ----------------------------------------------------------------
    1      O      -4.0077490095     1.7649381114     0.9273433786
    2      C      -3.1704903794     1.7086675032     0.0038054793
    3      C      -2.7545427394     0.4926634621    -0.8827859750
    4      C      -1.6213107221    -0.4071172673    -0.2301586406
    5      C      -1.4302621586    -0.1918372974     1.3077565730
    6      O      -1.0714398605     1.1840893846     1.5463757108
    7      C      -0.7472428358     1.3776212301     2.9782277500
    8      C       0.8062509061     1.2104822380     3.1940992554
    9      O       1.2489242823    -0.0485470484     2.5459808522
   10      C       1.7285499048     0.2268460744     1.2255050386
   11      C       1.9639868518    -1.1273282144     0.4791772286
   12      C       2.1663928460    -0.9353782620    -1.0813142871
   13      C       1.9872147538     0.5507143559    -1.5703864732
   14      O       2.8573671206     1.3320116366    -2.0032976472
   15      O      -2.3923343531     2.8357406925    -0.4460581500
   16      O       0.5782334875     0.8339930593    -1.5460163495
   17      O       1.9418916835     1.3765074374     0.7777218706
   18      C       0.2990737995     2.2714446249    -1.7664985097
   19      C       3.3642014145    -1.7698843975     0.8785924379
   20      C       3.4000352766    -3.2555264174     0.3430813375
   21      C       3.6451361996    -3.0226116398    -1.1941164047
   22      C       3.6558370561    -1.4458438260    -1.2620535527
   23      O       4.3180222849    -1.0521526880     0.0046480888
   24      H       1.1248887263    -1.8069542561     0.7123370948
   25      H       1.4507107512    -1.5655227105    -1.6401057477
   26      H       3.6358059228    -1.6447248742     1.9448694527
   27      H       4.2311351405    -3.8105639963     0.8065128122
   28      H       2.4594714961    -3.7912798167     0.5491462115
   29      H       4.6180921034    -3.4290964874    -1.5128652326
   30      H       2.8543290620    -3.4610673509    -1.8234761769
   31      H       4.1844820106    -1.0006050081    -2.1270938871
   32      O      -1.5363086448    -1.0478991383     2.2112610526
   33      C      -2.6288392026     4.0076959410     0.4237129870
   34      C      -3.8821459225    -0.5962122844    -1.1555144935
   35      C      -3.4876071548    -1.3316985632    -2.4961567713
   36      C      -2.2350891031    -2.1596227360    -2.0211327010
   37      C      -2.2215404841    -1.8442198644    -0.4731462805
   38      O      -3.6530035727    -1.6400396344    -0.1317353573
   39      H      -2.3852203117     0.9047594708    -1.8376561344
   40      H      -0.6565278834    -0.1763904545    -0.7418309887
   41      H      -2.3163667195     3.8026947959     1.4677215226
   42      H      -4.9216350302    -0.2187954010    -1.1004611913
   43      H      -4.3053129264    -1.9937245385    -2.8237811867
   44      H      -3.2524832891    -0.6286348826    -3.3110965060
   45      H      -2.3698047719    -3.2381922434    -2.1990870161
   46      H      -1.3038303963    -1.8335876493    -2.5120244868
   47      H      -1.7847715349    -2.6290888738     0.1741772340
   48      H      -3.6974570465     4.3046252067     0.4255350122
   49      H      -2.0156187667     4.8284196181     0.0083703614
   50      H      -0.6751929445     2.4913127500    -1.2708300192
   51      H       0.2312052785     2.4914326213    -2.8518597811
   52      H       1.1016042730     2.8946874779    -1.3269280506
   53      H       1.3516318655     2.0664903645     2.7431678311
   54      H       1.0389915252     1.1276971783     4.2748419600
   55      H      -1.2948350464     0.6265305938     3.5857763273
   56      H      -1.0629665606     2.4039059399     3.2549227161
 ----------------------------------------------------------------

    9   -1510.3010987964      3.28E-09 Convergence criterion met
 Total energy in the final basis set = -1510.30109880
 Final energy is   -1510.30109879639
 **  OPTIMIZATION CONVERGED  **

                    Orbital Energies (a.u.)
 --------------------------------------------------------------

 Alpha MOs
 -- Occupied --
-18.943 -18.938 -18.933 -18.930 -18.890 -18.889 -18.882 -18.878
-18.878 -18.873 -10.109 -10.102 -10.100 -10.097 -10.076 -10.074
-10.068 -10.065 -10.060 -10.056 -10.054 -10.045 -10.044 -10.039
-10.032 -10.023 -10.022 -10.020 -10.018 -10.017  -1.027  -1.014
 -1.008  -1.004  -0.973  -0.965  -0.947  -0.939  -0.937  -0.933
 -0.767  -0.760  -0.730  -0.723  -0.714  -0.704  -0.698  -0.665
 -0.654  -0.620  -0.599  -0.580  -0.549  -0.545  -0.540  -0.535
 -0.514  -0.507  -0.492  -0.472  -0.469  -0.461  -0.456  -0.445
 -0.433  -0.432  -0.429  -0.421  -0.414  -0.411  -0.407  -0.402
 -0.397  -0.382  -0.377  -0.367  -0.366  -0.357  -0.353  -0.351
 -0.347  -0.341  -0.337  -0.335  -0.329  -0.328  -0.326  -0.315
 -0.308  -0.307  -0.305  -0.303  -0.296  -0.283  -0.282  -0.280
 -0.273  -0.259  -0.253  -0.247  -0.242  -0.237  -0.227  -0.197
 -0.182  -0.173  -0.169  -0.164  -0.160  -0.152  -0.149  -0.147
 -0.139

          Ground-State Mulliken Net Atomic Charges

     Atom                 Charge (a.u.)
  ----------------------------------------
      1 O                    -0.210467
      2 C                     0.214526
      3 C                    -0.081989
      4 C                    -0.098149
      5 C                     0.207043
      6 O                    -0.178093
      7 C                    -0.053688
      8 C                    -0.053908
      9 O                    -0.170118
     10 C                     0.213906
     11 C                    -0.079368
     12 C                    -0.081756
     13 C                     0.221969
     14 O                    -0.207751
     15 O                    -0.171397
     16 O                    -0.183033
     17 O                    -0.206155
     18 C                    -0.142172
     19 C                     0.025908
     20 C                    -0.143670
     21 C                    -0.143789
     22 C                     0.024843
     23 O                    -0.187837
     24 H                     0.089152
     25 H                     0.082054
     26 H                     0.085814
     27 H                     0.079200
     28 H                     0.075011
     29 H                     0.078974
     30 H                     0.073230
     31 H                     0.090191
     32 O                    -0.208787
     33 C                    -0.126378
     34 C                     0.024067
     35 C                    -0.141947
     36 C                    -0.145258
     37 C                     0.021731
     38 O                    -0.188717
     39 H                     0.084499
     40 H                     0.114917
     41 H                     0.088122
     42 H                     0.084388
     43 H                     0.077063
     44 H                     0.072713
     45 H                     0.076068
     46 H                     0.072209
     47 H                     0.084899
     48 H                     0.090209
     49 H                     0.090802
     50 H                     0.109547
     51 H                     0.076644
     52 H                     0.094350
     53 H                     0.100217
     54 H                     0.091190
     55 H                     0.102055
     56 H                     0.086916
  ----------------------------------------
  Sum of atomic charges =    -0.000000

                    Cartesian Multipole Moments
 -----------------------------------------------------------------
    Charge (ESU x 10^10)
                -0.0000
    Dipole Moment (Debye)
         X      -0.0777      Y       0.1360      Z      -0.6725
       Tot       0.6905
    Quadrupole Moments (Debye-Ang)
        XX    -177.8860     XY     -13.1902     YY    -150.2288
        XZ      10.4338     YZ       9.3972     ZZ    -152.9896

 Total job time:  134.61s(wall), 6416.79s(cpu)
        *  Thank you very much for using Q-Chem.  Have a nice day.  *
