 Q-Chem 5.0, Q-Chem, Inc., Pleasanton, CA (2017)
 Q-Chem 5.0.1 for Intel X86 EM64T Linux

User input:
--------------------------------------------------------------
$molecule
0  1
O -3.94934 -3.66094 2.70899
C -3.26408 -4.56952 2.26188
C -3.36658 -6.02376 2.66595
C -2.66411 -6.44244 3.96791
C -2.08823 -5.32728 4.81222
O -1.8571 -4.2285 4.03461
C -2.51731 -3.05157 4.51232
C -1.52409 -2.14937 5.23737
O -0.56656 -2.94857 5.94962
C 0.27007 -2.26419 6.76866
C 1.25144 -3.15875 7.4879
C 2.64339 -2.54826 7.70712
C 2.74606 -1.04922 7.50951
O 3.78248 -0.40112 7.52853
O -2.46489 -4.31111 1.19211
O 1.72275 -0.25072 7.132
O -0.24566 -1.34577 7.40108
C 1.76074 1.11578 6.91189
C 0.86367 -3.46942 8.95139
C 1.53386 -4.76813 9.39655
C 2.9818 -4.32574 9.47875
C 2.82648 -2.82469 9.20628
O 1.55318 -2.51159 9.71821
H 1.30654 -4.12355 6.93197
H 3.40695 -3.01591 7.04759
H -0.23529 -3.52822 9.11122
H 1.16796 -4.97849 10.42738
H 1.3444 -5.65592 8.75582
H 3.34653 -4.51024 10.51349
H 3.66546 -4.79872 8.7408
H 3.67955 -2.25636 9.63898
O -1.72564 -5.43319 5.97515
C -2.28968 -3.06193 0.63423
C -4.82051 -6.42003 2.96688
C -4.98782 -7.93622 2.86417
C -4.28476 -8.38084 4.12805
C -3.88414 -7.02562 4.71643
O -4.94436 -6.17848 4.34479
H -2.9766 -6.62317 1.81207
H -1.87597 -7.21761 3.84498
H -1.85963 -2.36465 1.38428
H -5.55512 -5.90586 2.3086
H -6.07146 -8.1732 2.96018
H -4.59384 -8.37322 1.92144
H -5.03488 -8.86173 4.79532
H -3.42044 -9.06358 3.97994
H -3.70921 -7.13043 5.81011
H -3.26034 -2.66672 0.26612
H -1.58846 -3.14089 -0.2215
H 0.75103 1.46341 6.61379
H 2.47395 1.35624 6.09539
H 2.05817 1.64374 7.8421
H -0.93494 -1.56051 4.49387
H -2.09323 -1.43938 5.88024
H -3.34142 -3.30038 5.22592
H -2.81792 -2.28142 3.7703
$end

$opt
CONSTRAINT
tors           1           2           3           4     -80.823
tors           3           4           5           6     -22.929
tors           4           5           6           7    +123.970
tors           5           6           7           8    +102.029
tors           6           7           8           9     -35.680
tors           7           8           9          10    -172.152
tors           8           9          10          11    -180.000
tors           9          10          11          12    +144.721
tors          11          12          13          14    -173.553
ENDCONSTRAINT
$end

$rem
JOBTYPE                   OPT
METHOD                    B3LYP
DFT_D                     d3_op
BASIS                     STO-3G
GEOM_OPT_MAX_CYCLES       100
GEOM_OPT_TOL_GRADIENT     300
GEOM_OPT_TOL_DISPLACEMENT 1200
GEOM_OPT_TOL_ENERGY       100
SYMMETRY                  False
THRESH                    12
SCF_CONVERGENCE           8
MAX_SUB_FILE_NUM          128
MEM_STATIC                400
MEM_TOTAL                 4000
$end
--------------------------------------------------------------

   15   -1510.0574894299      9.94E-09 Convergence criterion met
 Total energy in the final basis set = -1510.05748943
   14   -1510.1396303567      7.37E-09 Convergence criterion met
 Total energy in the final basis set = -1510.13963036
   14   -1510.1911865443      3.90E-09 Convergence criterion met
 Total energy in the final basis set = -1510.19118654
   14   -1510.2218254337      5.63E-09 Convergence criterion met
 Total energy in the final basis set = -1510.22182543
   14   -1510.2373693538      4.10E-09 Convergence criterion met
 Total energy in the final basis set = -1510.23736935
   14   -1510.2452213820      2.73E-09 Convergence criterion met
 Total energy in the final basis set = -1510.24522138
   13   -1510.2495081546      3.09E-09 Convergence criterion met
 Total energy in the final basis set = -1510.24950815
   13   -1510.2517137561      4.91E-09 Convergence criterion met
   10   -1510.2569365071      5.39E-09 Convergence criterion met
 Total energy in the final basis set = -1510.25693651
    9   -1510.2569398228      4.75E-09 Convergence criterion met
 Total energy in the final basis set = -1510.25693982
    9   -1510.2569435266      3.48E-09 Convergence criterion met
 Total energy in the final basis set = -1510.25694353
    9   -1510.2569458779      3.23E-09 Convergence criterion met
 Total energy in the final basis set = -1510.25694588
    9   -1510.2569476565      2.69E-09 Convergence criterion met
 Total energy in the final basis set = -1510.25694766
    9   -1510.2569487658      2.58E-09 Convergence criterion met
 Total energy in the final basis set = -1510.25694877

             Standard Nuclear Orientation (Angstroms)
    I     Atom           X                Y                Z
 ----------------------------------------------------------------
    1      O      -3.9210465558     1.9474287778     1.1276794678
    2      C      -4.0110094817     1.6515488558    -0.0842292281
    3      C      -4.4482314401     0.2854613955    -0.7184408766
    4      C      -3.3450888093    -0.8504370142    -0.7941642815
    5      C      -1.9179258625    -0.5539460097    -0.1855631253
    6      O      -1.6068301153     0.8583134396    -0.0984675899
    7      C      -1.2625132458     1.2093289507     1.3075838436
    8      C       0.2947923636     1.3460357879     1.4926748977
    9      O       0.9163880501     0.3250281944     0.6166859700
   10      C       2.3286372249     0.2513677983     0.8548127746
   11      C       2.8909944515    -0.8511127418    -0.1150628157
   12      C       4.3320383122    -0.5822986610    -0.7007009500
   13      C       4.8265922217     0.8953810905    -0.8950911562
   14      O       5.8974406292     1.2227270209    -1.4542657067
   15      O      -3.8156055906     2.5817433748    -1.1599059389
   16      O       3.8144813604     1.8367412384    -0.5311902441
   17      O       2.9150372090     0.8572387464     1.7757743251
   18      C       4.2780527101     3.2158688369    -0.8036652325
   19      C       3.2175503531    -2.1093870645     0.8066185241
   20      C       3.6832785333    -3.3358251219    -0.0767903469
   21      C       5.1838733305    -2.9587051050    -0.3696115648
   22      C       5.2368554392    -1.5045340097     0.2390143204
   23      O       4.4550878348    -1.6545721152     1.4867152508
   24      H       2.1426908062    -1.0625092781    -0.8978751207
   25      H       4.3674843074    -1.0071180029    -1.7223602025
   26      H       2.4287701396    -2.3409241302     1.5486116410
   27      H       3.6006415598    -4.2765219300     0.4899364848
   28      H       3.0834902999    -3.4250241883    -0.9968832278
   29      H       5.8768155572    -3.6235503125     0.1710492568
   30      H       5.4333750235    -2.9815103704    -1.4424279788
   31      H       6.2482552956    -1.1065145214     0.4500936211
   32      O      -1.1631775481    -1.4500620281     0.2480015643
   33      C      -3.3666693829     3.8891868704    -0.6316522045
   34      C      -5.5446460855    -0.4339339493     0.1836450736
   35      C      -6.2951865443    -1.5072076366    -0.6983373140
   36      C      -5.2032002737    -2.6363416340    -0.7947058605
   37      C      -4.0351108440    -2.0027581860     0.0573142544
   38      O      -4.7410771972    -1.2515095202     1.1197495386
   39      H      -4.8347217469     0.5031852928    -1.7294851502
   40      H      -3.2062992491    -1.1715702850    -1.8438578049
   41      H      -2.2904281854     3.8606293920    -0.3635457686
   42      H      -6.1990615064     0.2610267021     0.7444349990
   43      H      -7.2008235673    -1.8637284661    -0.1824555187
   44      H      -6.5835425455    -1.1074572384    -1.6836402085
   45      H      -5.5496008219    -3.5748919395    -0.3334259464
   46      H      -4.8946095570    -2.8457451995    -1.8313545355
   47      H      -3.3127964707    -2.7200797889     0.4943865982
   48      H      -3.9471663940     4.1872655775     0.2645679182
   49      H      -3.5197714470     4.6245358881    -1.4429086652
   50      H       3.4350532649     3.8772808623    -0.5317764620
   51      H       4.5344624720     3.3568828548    -1.8736675127
   52      H       5.1650350838     3.4755322067    -0.1907255629
   53      H       0.6370080068     2.3600389963     1.1906366938
   54      H       0.5766956251     1.1929959130     2.5573381455
   55      H      -1.6539919960     0.4456057053     2.0097863920
   56      H      -1.7725010617     2.1707005487     1.5251739603
 ----------------------------------------------------------------

    9   -1510.2569495610      2.19E-09 Convergence criterion met
 Total energy in the final basis set = -1510.25694956
 Final energy is   -1510.25694956097
 **  OPTIMIZATION CONVERGED  **

                    Orbital Energies (a.u.)
 --------------------------------------------------------------

 Alpha MOs
 -- Occupied --
-18.935 -18.930 -18.922 -18.920 -18.895 -18.890 -18.884 -18.867
-18.867 -18.861 -10.108 -10.098 -10.097 -10.089 -10.071 -10.066
-10.063 -10.062 -10.061 -10.061 -10.056 -10.055 -10.041 -10.037
-10.034 -10.031 -10.023 -10.022 -10.017 -10.016  -1.014  -1.009
 -1.005  -0.997  -0.973  -0.966  -0.941  -0.932  -0.931  -0.922
 -0.764  -0.758  -0.726  -0.720  -0.709  -0.705  -0.695  -0.662
 -0.660  -0.611  -0.599  -0.577  -0.546  -0.541  -0.539  -0.532
 -0.514  -0.507  -0.484  -0.477  -0.460  -0.458  -0.450  -0.444
 -0.434  -0.429  -0.426  -0.413  -0.410  -0.409  -0.405  -0.399
 -0.388  -0.384  -0.372  -0.368  -0.363  -0.355  -0.352  -0.345
 -0.341  -0.338  -0.333  -0.331  -0.329  -0.325  -0.317  -0.312
 -0.310  -0.308  -0.303  -0.297  -0.291  -0.285  -0.283  -0.272
 -0.267  -0.252  -0.248  -0.246  -0.239  -0.237  -0.229  -0.176
 -0.172  -0.171  -0.165  -0.158  -0.150  -0.149  -0.147  -0.143
 -0.135

          Ground-State Mulliken Net Atomic Charges

     Atom                 Charge (a.u.)
  ----------------------------------------
      1 O                    -0.225637
      2 C                     0.213946
      3 C                    -0.081393
      4 C                    -0.079270
      5 C                     0.220989
      6 O                    -0.182237
      7 C                    -0.047854
      8 C                    -0.048796
      9 O                    -0.170271
     10 C                     0.217054
     11 C                    -0.077086
     12 C                    -0.080323
     13 C                     0.208935
     14 O                    -0.218304
     15 O                    -0.170126
     16 O                    -0.166110
     17 O                    -0.212115
     18 C                    -0.126190
     19 C                     0.025428
     20 C                    -0.145322
     21 C                    -0.141589
     22 C                     0.026266
     23 O                    -0.186887
     24 H                     0.088163
     25 H                     0.083688
     26 H                     0.084658
     27 H                     0.077993
     28 H                     0.073884
     29 H                     0.077582
     30 H                     0.073572
     31 H                     0.086509
     32 O                    -0.189172
     33 C                    -0.129999
     34 C                     0.025495
     35 C                    -0.144077
     36 C                    -0.143939
     37 C                     0.023432
     38 O                    -0.189958
     39 H                     0.086005
     40 H                     0.085446
     41 H                     0.084428
     42 H                     0.084987
     43 H                     0.078433
     44 H                     0.073870
     45 H                     0.078901
     46 H                     0.073843
     47 H                     0.089804
     48 H                     0.091088
     49 H                     0.088924
     50 H                     0.090060
     51 H                     0.089145
     52 H                     0.091157
     53 H                     0.081565
     54 H                     0.090549
     55 H                     0.091466
     56 H                     0.099392
  ----------------------------------------
  Sum of atomic charges =    -0.000000

                    Cartesian Multipole Moments
 -----------------------------------------------------------------
    Charge (ESU x 10^10)
                -0.0000
    Dipole Moment (Debye)
         X      -2.7120      Y       0.1332      Z      -2.7266
       Tot       3.8480
    Quadrupole Moments (Debye-Ang)
        XX    -163.8380     XY      -2.0893     YY    -145.6696
        XZ       2.6766     YZ       3.2730     ZZ    -164.4942

 Total job time:  87.65s(wall), 4174.73s(cpu)
        *  Thank you very much for using Q-Chem.  Have a nice day.  *
