 Q-Chem 5.0, Q-Chem, Inc., Pleasanton, CA (2017)
 Q-Chem 5.0.1 for Intel X86 EM64T Linux

User input:
--------------------------------------------------------------
$molecule
0  1
O 2.8917889776 -1.4930167221 0.7264076079
C 4.0542572243 -1.1521645095 0.4201636309
C 4.6417413084 0.2921367049 0.2487739994
C 3.777944008 1.3364930739 -0.5609086797
C 2.7862391729 0.8657234039 -1.6966803608
O 2.6151882294 -0.5614763574 -1.8669990379
C 1.2767519643 -1.0493866681 -1.4385793745
C 0.345938181 -0.0076089422 -0.7261959403
O -0.7212202595 -0.7852177695 -0.0451696619
C -1.9732911208 -0.0953649168 -0.123149108
C -3.0495833809 -0.9788763549 0.5871918318
C -4.3321594269 -0.1767641204 1.0568089693
C -4.4242923228 1.2882101047 0.484402703
O -4.3255550208 2.3452304834 1.1459947185
O 5.1231267076 -2.0827471808 0.2002409379
O -4.8223241604 1.2339696686 -0.8903055534
O -2.1204666223 1.034469107 -0.641099222
C -4.8769366194 2.6023552212 -1.4488513102
C -3.7007844104 -2.1074279732 -0.331657863
C -4.2778272152 -3.2169633561 0.6321458279
C -5.5191793976 -2.4635094711 1.2399766668
C -5.4741919208 -1.0968496226 0.4441850483
O -4.9197289753 -1.4747625913 -0.8772082864
H -2.5483021164 -1.451887479 1.4510396967
H -4.3831830209 -0.1115707862 2.1576672534
H -3.0492844912 -2.4762798615 -1.1476059795
H -4.5886893901 -4.1003957571 0.0516038476
H -3.5500865674 -3.533289621 1.3965332274
H -6.4595439638 -3.0003451182 1.0376117343
H -5.428570138 -2.3079669906 2.326996754
H -6.4517509236 -0.5924608565 0.3212618857
O 2.1949268365 1.6956013619 -2.4240274556
C 4.6303064603 -3.4688190963 0.3737118877
C 4.5435622562 0.9580379291 1.6968036771
C 5.246977813 2.375221229 1.7073265751
C 4.1398700424 3.2785221903 1.0454275134
C 3.0947362292 2.1788183843 0.6157356289
O 3.0941791061 1.2632644223 1.7764973364
H 5.6745415963 0.217591669 -0.1318722143
H 4.4839683721 2.0126717299 -1.0787949563
H 3.8275084062 -3.7092046897 -0.3527982619
H 4.8401731504 0.2844344425 2.5242334865
H 5.470658969 2.6903165684 2.7386209908
H 6.1853098376 2.3666227125 1.1295613247
H 3.6887293604 3.9646670135 1.7803329746
H 4.5134944302 3.8653482661 0.1915336871
H 2.0735824296 2.5484034661 0.3985386426
H 4.2401816317 -3.6402434021 1.3978689122
H 5.5000362631 -4.1271643284 0.1941012815
H -5.2864282392 2.4994514825 -2.4705385303
H -3.864135867 3.0522773007 -1.4991292127
H -5.5309366159 3.2667262503 -0.8476756946
H 0.9236522331 0.5361178122 0.0525247601
H -0.1014764138 0.7278264895 -1.4272835585
H 1.4763854037 -1.8694772381 -0.714011698
H 0.7533357237 -1.4691911533 -2.3267754842
$end

$rem
JOBTYPE                   OPT
METHOD                    B3LYP
DFT_D                     d3_op
BASIS                     STO-3G
GEOM_OPT_MAX_CYCLES       100
GEOM_OPT_TOL_GRADIENT     300
GEOM_OPT_TOL_DISPLACEMENT 1200
GEOM_OPT_TOL_ENERGY       100
SYMMETRY                  False
THRESH                    12
SCF_CONVERGENCE           8
MAX_SUB_FILE_NUM          128
MEM_STATIC                400
MEM_TOTAL                 4000
$end
--------------------------------------------------------------

   16   -1510.2523997526      5.93E-09 Convergence criterion met
 Total energy in the final basis set = -1510.25239975
   14   -1510.2560916655      4.92E-09 Convergence criterion met
 Total energy in the final basis set = -1510.25609167
   14   -1510.2606748883      3.35E-09 Convergence criterion met
 Total energy in the final basis set = -1510.26067489
   13   -1510.2646380294      5.80E-09 Convergence criterion met
 Total energy in the final basis set = -1510.26463803
   13   -1510.2680517213      8.65E-09 Convergence criterion met
 Total energy in the final basis set = -1510.26805172
   13   -1510.2709452329      8.11E-09 Convergence criterion met
 Total energy in the final basis set = -1510.27094523
   13   -1510.2736292794      8.23E-09 Convergence criterion met
 Total energy in the final basis set = -1510.27362928
   13   -1510.2762696702      5.33E-09 Convergence criterion met
   13   -1510.2990691379      8.72E-09 Convergence criterion met
 Total energy in the final basis set = -1510.29906914
   12   -1510.2993335468      7.89E-09 Convergence criterion met
 Total energy in the final basis set = -1510.29933355
   12   -1510.2993952866      6.80E-09 Convergence criterion met
 Total energy in the final basis set = -1510.29939529
   13   -1510.2993906435      2.58E-09 Convergence criterion met
 Total energy in the final basis set = -1510.29939064
   12   -1510.2994008060      2.93E-09 Convergence criterion met
 Total energy in the final basis set = -1510.29940081
   11   -1510.2994068596      8.52E-09 Convergence criterion met
 Total energy in the final basis set = -1510.29940686

             Standard Nuclear Orientation (Angstroms)
    I     Atom           X                Y                Z
 ----------------------------------------------------------------
    1      O       2.1380659754     0.4192909463     2.3002760733
    2      C       2.0637957792    -0.4191483026     1.3752109219
    3      C       2.6775024336    -0.3059858137    -0.0592004865
    4      C       2.6801024038     1.1797724577    -0.6107519087
    5      C       1.9356010888     2.1935940426     0.3267000855
    6      O       0.5495155867     1.8192349947     0.3256995503
    7      C      -0.2209755674     2.6457821309     1.2808459870
    8      C      -0.5800039640     1.7714055079     2.5381624675
    9      O      -0.9796861469     0.3929330452     2.1539896463
   10      C      -2.1896883587     0.3863229259     1.3939512627
   11      C      -2.4925590553    -1.0691191130     0.8968571112
   12      C      -3.6259680617    -1.1024663906    -0.2121614902
   13      C      -4.2262150650     0.3035141694    -0.5856738858
   14      O      -5.3561918755     0.7358062222    -0.2705152707
   15      O       1.4070455016    -1.6878638718     1.4916661843
   16      O      -3.3198976100     0.9745603017    -1.4732759916
   17      O      -2.8849265591     1.4073040097     1.1914863969
   18      C      -3.8439129033     2.3188506838    -1.7963012803
   19      C      -1.2785328652    -1.7371714006     0.1132753245
   20      C      -1.5728303632    -3.2855896966    -0.0062219823
   21      C      -2.6779537954    -3.3076789808    -1.1245052458
   22      C      -2.8343832051    -1.7647532310    -1.4216918840
   23      O      -1.4569744659    -1.2418296890    -1.2689654167
   24      H      -2.7744339156    -1.6772289039     1.7767747147
   25      H      -4.4685124631    -1.7365265843     0.1152513837
   26      H      -0.2657869161    -1.4987324116     0.5067731250
   27      H      -0.6639484375    -3.8207136646    -0.3240831458
   28      H      -1.9202117836    -3.7183630854     0.9455140839
   29      H      -2.3311842458    -3.8391393465    -2.0250282535
   30      H      -3.6213542070    -3.7650362944    -0.7860958630
   31      H      -3.2351298280    -1.5136491135    -2.4224426558
   32      O       2.4039649013     3.1871994095     0.9209001861
   33      C       0.8140022147    -1.8323698753     2.8475158532
   34      C       4.2423125942    -0.5983015772    -0.0144394030
   35      C       4.7661405368    -0.7621469537    -1.4969009719
   36      C       4.7934897067     0.7357600891    -1.9799271018
   37      C       4.2331872937     1.4745173017    -0.7031902418
   38      O       4.8061400860     0.6974135054     0.4220086292
   39      H       2.1448888293    -1.0008439577    -0.7317877631
   40      H       2.1969062468     1.2179597972    -1.6040402425
   41      H       0.0028671332    -1.0805362372     2.9676484018
   42      H       4.5378240019    -1.4075165400     0.6814808247
   43      H       5.7730226803    -1.2089217378    -1.5016368058
   44      H       4.0957977042    -1.3922454640    -2.1032306388
   45      H       5.8202680396     1.0695922214    -2.1988705203
   46      H       4.1673286754     0.9083768824    -2.8697947156
   47      H       4.4972251562     2.5453938329    -0.6054863180
   48      H       1.5773462176    -1.6996200163     3.6389644822
   49      H       0.4018913906    -2.8566964778     2.8889374581
   50      H      -3.1277054209     2.7633521161    -2.5116444298
   51      H      -3.9056011688     2.9538734015    -0.8886923131
   52      H      -4.8506820246     2.2683734280    -2.2595306394
   53      H       0.3234039058     1.6236935913     3.1639324096
   54      H      -1.3802021867     2.2693623824     3.1276114033
   55      H      -1.1499032457     2.9683371134     0.7691519205
   56      H       0.3855871387     3.5242360543     1.5905205513
 ----------------------------------------------------------------

    9   -1510.2994062727      9.85E-09 Convergence criterion met
 Total energy in the final basis set = -1510.29940627
 Final energy is   -1510.29940627271
 **  OPTIMIZATION CONVERGED  **

                    Orbital Energies (a.u.)
 --------------------------------------------------------------

 Alpha MOs
 -- Occupied --
-18.948 -18.943 -18.928 -18.917 -18.889 -18.888 -18.882 -18.881
-18.876 -18.855 -10.111 -10.105 -10.099 -10.087 -10.076 -10.067
-10.063 -10.058 -10.057 -10.055 -10.052 -10.047 -10.040 -10.039
-10.037 -10.030 -10.021 -10.020 -10.016 -10.015  -1.025  -1.017
 -1.007  -0.995  -0.971  -0.964  -0.948  -0.942  -0.934  -0.920
 -0.765  -0.759  -0.728  -0.721  -0.712  -0.705  -0.695  -0.663
 -0.650  -0.620  -0.597  -0.581  -0.546  -0.542  -0.538  -0.533
 -0.512  -0.508  -0.484  -0.467  -0.464  -0.463  -0.453  -0.448
 -0.433  -0.429  -0.428  -0.417  -0.416  -0.408  -0.403  -0.401
 -0.394  -0.382  -0.371  -0.365  -0.361  -0.358  -0.352  -0.350
 -0.341  -0.336  -0.334  -0.331  -0.328  -0.326  -0.320  -0.312
 -0.311  -0.307  -0.305  -0.298  -0.292  -0.285  -0.280  -0.273
 -0.272  -0.265  -0.253  -0.244  -0.240  -0.235  -0.229  -0.193
 -0.183  -0.170  -0.161  -0.161  -0.159  -0.154  -0.145  -0.140
 -0.136

          Ground-State Mulliken Net Atomic Charges

     Atom                 Charge (a.u.)
  ----------------------------------------
      1 O                    -0.212751
      2 C                     0.215982
      3 C                    -0.078258
      4 C                    -0.078638
      5 C                     0.216632
      6 O                    -0.176358
      7 C                    -0.058016
      8 C                    -0.050621
      9 O                    -0.172452
     10 C                     0.219893
     11 C                    -0.079213
     12 C                    -0.081776
     13 C                     0.212862
     14 O                    -0.221028
     15 O                    -0.169448
     16 O                    -0.171284
     17 O                    -0.207478
     18 C                    -0.127838
     19 C                     0.013160
     20 C                    -0.144904
     21 C                    -0.144820
     22 C                     0.026495
     23 O                    -0.189848
     24 H                     0.083545
     25 H                     0.081926
     26 H                     0.100314
     27 H                     0.076091
     28 H                     0.069245
     29 H                     0.075863
     30 H                     0.072237
     31 H                     0.083879
     32 O                    -0.210339
     33 C                    -0.141007
     34 C                     0.025519
     35 C                    -0.143833
     36 C                    -0.143504
     37 C                     0.024564
     38 O                    -0.187559
     39 H                     0.090433
     40 H                     0.088691
     41 H                     0.107635
     42 H                     0.082457
     43 H                     0.078295
     44 H                     0.074898
     45 H                     0.078294
     46 H                     0.074288
     47 H                     0.090341
     48 H                     0.087243
     49 H                     0.085632
     50 H                     0.086497
     51 H                     0.089262
     52 H                     0.085875
     53 H                     0.104452
     54 H                     0.090270
     55 H                     0.096248
     56 H                     0.101955
  ----------------------------------------
  Sum of atomic charges =     0.000000

                    Cartesian Multipole Moments
 -----------------------------------------------------------------
    Charge (ESU x 10^10)
                 0.0000
    Dipole Moment (Debye)
         X       0.3362      Y      -2.4530      Z      -0.5895
       Tot       2.5452
    Quadrupole Moments (Debye-Ang)
        XX    -174.4830     XY      -1.7248     YY    -154.2765
        XZ      -7.5097     YZ      -6.0291     ZZ    -153.3606

 Total job time:  170.36s(wall), 8121.69s(cpu)
        *  Thank you very much for using Q-Chem.  Have a nice day.  *
