 Q-Chem 5.0, Q-Chem, Inc., Pleasanton, CA (2017)
 Q-Chem 5.0.1 for Intel X86 EM64T Linux

User input:
--------------------------------------------------------------
$molecule
0  1
O -3.94934 -3.66094 2.70899
C -3.26408 -4.56952 2.26188
C -3.36658 -6.02376 2.66595
C -3.47804 -6.3293 4.16864
C -3.65351 -5.1405 5.08737
O -3.80558 -4.00174 4.34877
C -5.13206 -3.46653 4.40572
C -6.05546 -4.42807 5.14661
O -7.42644 -4.0952 4.87739
C -8.2778 -4.23995 5.92304
C -9.69732 -3.8517 5.58411
C -10.76955 -4.44762 6.50794
C -10.267 -5.03131 7.81311
O -10.28018 -6.21692 8.11098
O -2.24547 -4.25613 1.41767
O -9.73634 -4.15425 8.71196
O -7.93231 -4.85484 6.92284
C -9.23427 -4.50827 9.94697
C -10.01233 -2.35063 5.7101
C -11.19622 -2.00474 4.80764
C -12.32968 -2.69507 5.54587
C -11.58967 -3.17854 6.79978
O -10.58157 -2.21128 6.99031
H -9.87395 -4.18318 4.53437
H -11.33899 -5.25304 5.99267
H -9.14099 -1.69831 5.48362
H -11.34372 -0.90319 4.88087
H -11.08695 -2.28623 3.73821
H -13.09609 -1.93109 5.80398
H -12.80164 -3.54364 5.00467
H -12.29566 -3.32454 7.64688
O -3.60021 -5.17891 6.30929
C -1.96611 -2.97933 0.97728
C -4.58925 -6.788 2.12371
C -4.25724 -8.27801 2.01653
C -4.1984 -8.66281 3.4856
C -4.63836 -7.344 4.1369
O -5.51195 -6.79194 3.17549
H -2.47098 -6.51504 2.21918
H -2.53488 -6.80241 4.52206
H -1.72924 -2.3201 1.8397
H -4.9539 -6.39529 1.14975
H -5.14185 -8.77344 1.55534
H -3.35222 -8.53138 1.42356
H -4.94957 -9.4632 3.66723
H -3.20091 -8.98863 3.85205
H -5.05639 -7.53011 5.15018
H -2.83433 -2.56928 0.41828
H -1.08793 -3.01182 0.30038
H -8.86926 -3.59803 10.46522
H -8.38635 -5.21605 9.82741
H -10.03094 -4.97653 10.56354
H -6.02827 -5.4571 4.84777
H -5.80713 -4.37368 6.23042
H -5.77389 -3.25887 3.49408
H -5.11243 -2.4868 4.93028
$end

$opt
CONSTRAINT
tors           1           2           3           4     -44.791
tors           3           4           5           6      +5.755
tors           4           5           6           7    +109.725
tors           5           6           7           8      -7.062
tors           6           7           8           9    -163.511
tors           7           8           9          10    -142.723
tors           8           9          10          11    +178.981
tors           9          10          11          12    +158.937
tors          11          12          13          14    -112.250
ENDCONSTRAINT
$end

$rem
JOBTYPE                   OPT
METHOD                    B3LYP
DFT_D                     d3_op
BASIS                     STO-3G
GEOM_OPT_MAX_CYCLES       100
GEOM_OPT_TOL_GRADIENT     300
GEOM_OPT_TOL_DISPLACEMENT 1200
GEOM_OPT_TOL_ENERGY       100
SYMMETRY                  False
THRESH                    12
SCF_CONVERGENCE           8
MAX_SUB_FILE_NUM          128
MEM_STATIC                400
MEM_TOTAL                 4000
$end
--------------------------------------------------------------

   16   -1509.9819778549      3.77E-09 Convergence criterion met
 Total energy in the final basis set = -1509.98197785
   14   -1510.0820031439      4.52E-09 Convergence criterion met
 Total energy in the final basis set = -1510.08200314
   14   -1510.1502553006      5.87E-09 Convergence criterion met
 Total energy in the final basis set = -1510.15025530
   14   -1510.1948232217      5.00E-09 Convergence criterion met
 Total energy in the final basis set = -1510.19482322
   14   -1510.2217905366      4.31E-09 Convergence criterion met
 Total energy in the final basis set = -1510.22179054
   14   -1510.2365635820      4.91E-09 Convergence criterion met
 Total energy in the final basis set = -1510.23656358
   13   -1510.2442854638      8.63E-09 Convergence criterion met
 Total energy in the final basis set = -1510.24428546
   13   -1510.2482242774      6.43E-09 Convergence criterion met
   11   -1510.2524586862      9.98E-09 Convergence criterion met
 Total energy in the final basis set = -1510.25245869
   11   -1510.2524946920      6.78E-09 Convergence criterion met
 Total energy in the final basis set = -1510.25249469
   10   -1510.2525101118      8.35E-09 Convergence criterion met
 Total energy in the final basis set = -1510.25251011
   11   -1510.2525202375      2.77E-09 Convergence criterion met
 Total energy in the final basis set = -1510.25252024
    9   -1510.2525231327      6.70E-09 Convergence criterion met
 Total energy in the final basis set = -1510.25252313
    9   -1510.2525249989      3.83E-09 Convergence criterion met
 Total energy in the final basis set = -1510.25252500

             Standard Nuclear Orientation (Angstroms)
    I     Atom           X                Y                Z
 ----------------------------------------------------------------
    1      O       2.8917889776    -1.4930167221     0.7264076079
    2      C       4.0542572243    -1.1521645095     0.4201636309
    3      C       4.6417413084     0.2921367049     0.2487739994
    4      C       3.7779440080     1.3364930739    -0.5609086797
    5      C       2.7862391729     0.8657234039    -1.6966803608
    6      O       2.6151882294    -0.5614763574    -1.8669990379
    7      C       1.2767519643    -1.0493866681    -1.4385793745
    8      C       0.3459381810    -0.0076089422    -0.7261959403
    9      O      -0.7212202595    -0.7852177695    -0.0451696619
   10      C      -1.9732911208    -0.0953649168    -0.1231491080
   11      C      -3.0495833809    -0.9788763549     0.5871918318
   12      C      -4.3321594269    -0.1767641204     1.0568089693
   13      C      -4.4242923228     1.2882101047     0.4844027030
   14      O      -4.3255550208     2.3452304834     1.1459947185
   15      O       5.1231267076    -2.0827471808     0.2002409379
   16      O      -4.8223241604     1.2339696686    -0.8903055534
   17      O      -2.1204666223     1.0344691070    -0.6410992220
   18      C      -4.8769366194     2.6023552212    -1.4488513102
   19      C      -3.7007844104    -2.1074279732    -0.3316578630
   20      C      -4.2778272152    -3.2169633561     0.6321458279
   21      C      -5.5191793976    -2.4635094711     1.2399766668
   22      C      -5.4741919208    -1.0968496226     0.4441850483
   23      O      -4.9197289753    -1.4747625913    -0.8772082864
   24      H      -2.5483021164    -1.4518874790     1.4510396967
   25      H      -4.3831830209    -0.1115707862     2.1576672534
   26      H      -3.0492844912    -2.4762798615    -1.1476059795
   27      H      -4.5886893901    -4.1003957571     0.0516038476
   28      H      -3.5500865674    -3.5332896210     1.3965332274
   29      H      -6.4595439638    -3.0003451182     1.0376117343
   30      H      -5.4285701380    -2.3079669906     2.3269967540
   31      H      -6.4517509236    -0.5924608565     0.3212618857
   32      O       2.1949268365     1.6956013619    -2.4240274556
   33      C       4.6303064603    -3.4688190963     0.3737118877
   34      C       4.5435622562     0.9580379291     1.6968036771
   35      C       5.2469778130     2.3752212290     1.7073265751
   36      C       4.1398700424     3.2785221903     1.0454275134
   37      C       3.0947362292     2.1788183843     0.6157356289
   38      O       3.0941791061     1.2632644223     1.7764973364
   39      H       5.6745415963     0.2175916690    -0.1318722143
   40      H       4.4839683721     2.0126717299    -1.0787949563
   41      H       3.8275084062    -3.7092046897    -0.3527982619
   42      H       4.8401731504     0.2844344425     2.5242334865
   43      H       5.4706589690     2.6903165684     2.7386209908
   44      H       6.1853098376     2.3666227125     1.1295613247
   45      H       3.6887293604     3.9646670135     1.7803329746
   46      H       4.5134944302     3.8653482661     0.1915336871
   47      H       2.0735824296     2.5484034661     0.3985386426
   48      H       4.2401816317    -3.6402434021     1.3978689122
   49      H       5.5000362631    -4.1271643284     0.1941012815
   50      H      -5.2864282392     2.4994514825    -2.4705385303
   51      H      -3.8641358670     3.0522773007    -1.4991292127
   52      H      -5.5309366159     3.2667262503    -0.8476756946
   53      H       0.9236522331     0.5361178122     0.0525247601
   54      H      -0.1014764138     0.7278264895    -1.4272835585
   55      H       1.4763854037    -1.8694772381    -0.7140116980
   56      H       0.7533357237    -1.4691911533    -2.3267754842
 ----------------------------------------------------------------

    9   -1510.2525253311      3.64E-09 Convergence criterion met
 Total energy in the final basis set = -1510.25252533
 Final energy is   -1510.25252533109
 **  OPTIMIZATION CONVERGED  **

                    Orbital Energies (a.u.)
 --------------------------------------------------------------

 Alpha MOs
 -- Occupied --
-18.936 -18.934 -18.917 -18.905 -18.897 -18.896 -18.887 -18.881
-18.874 -18.855 -10.111 -10.102 -10.100 -10.085 -10.068 -10.067
-10.067 -10.066 -10.065 -10.060 -10.057 -10.048 -10.042 -10.041
-10.036 -10.031 -10.026 -10.025 -10.019 -10.018  -1.015  -1.012
 -1.006  -0.994  -0.978  -0.968  -0.941  -0.937  -0.931  -0.919
 -0.767  -0.761  -0.728  -0.722  -0.711  -0.709  -0.695  -0.665
 -0.647  -0.614  -0.600  -0.583  -0.549  -0.544  -0.543  -0.535
 -0.514  -0.510  -0.481  -0.473  -0.462  -0.459  -0.453  -0.442
 -0.436  -0.431  -0.430  -0.413  -0.412  -0.406  -0.399  -0.397
 -0.384  -0.383  -0.373  -0.369  -0.360  -0.359  -0.354  -0.349
 -0.339  -0.337  -0.336  -0.334  -0.329  -0.327  -0.324  -0.317
 -0.312  -0.309  -0.304  -0.297  -0.294  -0.292  -0.279  -0.273
 -0.272  -0.256  -0.252  -0.244  -0.237  -0.236  -0.232  -0.178
 -0.177  -0.166  -0.162  -0.156  -0.155  -0.152  -0.148  -0.141
 -0.136

          Ground-State Mulliken Net Atomic Charges

     Atom                 Charge (a.u.)
  ----------------------------------------
      1 O                    -0.216760
      2 C                     0.215009
      3 C                    -0.079099
      4 C                    -0.083405
      5 C                     0.215966
      6 O                    -0.195758
      7 C                    -0.048070
      8 C                    -0.057647
      9 O                    -0.169796
     10 C                     0.211836
     11 C                    -0.079633
     12 C                    -0.080388
     13 C                     0.212007
     14 O                    -0.220918
     15 O                    -0.170004
     16 O                    -0.165377
     17 O                    -0.208489
     18 C                    -0.127039
     19 C                     0.026516
     20 C                    -0.142466
     21 C                    -0.145127
     22 C                     0.027152
     23 O                    -0.183740
     24 H                     0.087367
     25 H                     0.083820
     26 H                     0.083427
     27 H                     0.077597
     28 H                     0.074152
     29 H                     0.077522
     30 H                     0.073579
     31 H                     0.084717
     32 O                    -0.188409
     33 C                    -0.128776
     34 C                     0.025632
     35 C                    -0.145523
     36 C                    -0.140852
     37 C                     0.024298
     38 O                    -0.187200
     39 H                     0.088823
     40 H                     0.085615
     41 H                     0.089111
     42 H                     0.082787
     43 H                     0.079619
     44 H                     0.075094
     45 H                     0.080147
     46 H                     0.076454
     47 H                     0.086490
     48 H                     0.087903
     49 H                     0.090304
     50 H                     0.087425
     51 H                     0.091312
     52 H                     0.085966
     53 H                     0.090101
     54 H                     0.102129
     55 H                     0.104106
     56 H                     0.080493
  ----------------------------------------
  Sum of atomic charges =     0.000000

                    Cartesian Multipole Moments
 -----------------------------------------------------------------
    Charge (ESU x 10^10)
                 0.0000
    Dipole Moment (Debye)
         X       2.4891      Y      -1.7540      Z       1.3509
       Tot       3.3313
    Quadrupole Moments (Debye-Ang)
        XX    -144.8273     XY       7.8111     YY    -152.6293
        XZ       1.2011     YZ      -3.2001     ZZ    -164.6432

 Total job time:  94.94s(wall), 4519.74s(cpu)
        *  Thank you very much for using Q-Chem.  Have a nice day.  *
