 Q-Chem 5.0, Q-Chem, Inc., Pleasanton, CA (2017)
 Q-Chem 5.0.1 for Intel X86 EM64T Linux

User input:
--------------------------------------------------------------
$molecule
0  1
O -3.94934 -3.66094 2.70899
C -3.26408 -4.56952 2.26188
C -3.36658 -6.02376 2.66595
C -4.4044 -6.38252 3.74209
C -5.34599 -5.2772 4.16606
O -6.18035 -4.95684 3.13328
C -7.19522 -4.01628 3.50022
C -7.5103 -3.0975 2.32433
O -6.89815 -1.8143 2.52815
C -7.56366 -0.97651 3.36142
C -6.87075 0.35412 3.53455
C -7.80984 1.56549 3.62926
C -9.26848 1.25162 3.89487
O -9.83211 0.20549 3.60765
O -2.34612 -4.28393 1.30165
O -10.03509 2.29414 4.31474
O -8.2818 -1.43025 4.24772
C -11.39282 2.22067 4.54634
C -6.10591 0.45615 4.86704
C -5.00672 1.50916 4.74857
C -5.83748 2.77358 4.69439
C -7.23806 2.1913 4.92492
O -7.01412 1.06997 5.74347
H -6.14287 0.47053 2.69838
H -7.75502 2.26933 2.77028
H -5.67825 -0.51418 5.20311
H -4.44058 1.49489 5.70765
H -4.29802 1.37088 3.90385
H -5.53419 3.42684 5.5426
H -5.78458 3.3383 3.73843
H -7.89803 2.97533 5.35598
O -5.43761 -4.87213 5.31887
C -2.1235 -3.02204 0.7916
C -3.83596 -6.93893 1.51701
C -3.3717 -8.37262 1.77408
C -4.29148 -8.76999 2.91213
C -5.1616 -7.51319 3.01915
O -5.22839 -7.04138 1.69364
H -2.34158 -6.31861 2.98588
H -3.90444 -6.74279 4.66934
H -1.79859 -2.33374 1.60098
H -3.49317 -6.59755 0.51591
H -3.6416 -8.9738 0.87634
H -2.2853 -8.48653 1.97815
H -4.90663 -9.63596 2.58057
H -3.78463 -9.01002 3.87176
H -6.13276 -7.7469 3.50843
H -3.04941 -2.63269 0.31656
H -1.32367 -3.07537 0.02487
H -11.75859 3.21247 4.88254
H -11.60473 1.47293 5.34032
H -11.92654 1.94003 3.61325
H -7.18535 -3.55433 1.36504
H -8.61323 -2.95399 2.23068
H -7.09215 -3.49507 4.4754
H -8.10373 -4.64795 3.60994
$end

$opt
CONSTRAINT
tors           1           2           3           4      -0.942
tors           3           4           5           6     +67.431
tors           4           5           6           7    +173.788
tors           5           6           7           8    +145.932
tors           6           7           8           9    -103.351
tors           7           8           9          10     -80.047
tors           8           9          10          11    -180.000
tors           9          10          11          12    +142.331
tors          11          12          13          14     -25.761
ENDCONSTRAINT
$end

$rem
JOBTYPE                   OPT
METHOD                    B3LYP
DFT_D                     d3_op
BASIS                     STO-3G
GEOM_OPT_MAX_CYCLES       100
GEOM_OPT_TOL_GRADIENT     300
GEOM_OPT_TOL_DISPLACEMENT 1200
GEOM_OPT_TOL_ENERGY       100
SYMMETRY                  False
THRESH                    12
SCF_CONVERGENCE           8
MAX_SUB_FILE_NUM          128
MEM_STATIC                400
MEM_TOTAL                 4000
$end
--------------------------------------------------------------

   15   -1510.1324257534      6.70E-09 Convergence criterion met
 Total energy in the final basis set = -1510.13242575
   13   -1510.2039157072      9.23E-09 Convergence criterion met
 Total energy in the final basis set = -1510.20391571
   14   -1510.2420214936      3.24E-09 Convergence criterion met
 Total energy in the final basis set = -1510.24202149
   14   -1510.2611997919      5.11E-09 Convergence criterion met
 Total energy in the final basis set = -1510.26119979
   13   -1510.2695702601      6.56E-09 Convergence criterion met
 Total energy in the final basis set = -1510.26957026
   13   -1510.2735561875      4.46E-09 Convergence criterion met
 Total energy in the final basis set = -1510.27355619
   13   -1510.2758640639      1.98E-09 Convergence criterion met
 Total energy in the final basis set = -1510.27586406
   12   -1510.2770926581      8.46E-09 Convergence criterion met
   11   -1510.2795242962      5.84E-09 Convergence criterion met
 Total energy in the final basis set = -1510.27952430
   10   -1510.2795516423      7.41E-09 Convergence criterion met
 Total energy in the final basis set = -1510.27955164
   10   -1510.2795739494      6.64E-09 Convergence criterion met
 Total energy in the final basis set = -1510.27957395
    9   -1510.2795846478      8.30E-09 Convergence criterion met
 Total energy in the final basis set = -1510.27958465
    9   -1510.2795886824      6.03E-09 Convergence criterion met
 Total energy in the final basis set = -1510.27958868
    9   -1510.2795901290      4.23E-09 Convergence criterion met
 Total energy in the final basis set = -1510.27959013

             Standard Nuclear Orientation (Angstroms)
    I     Atom           X                Y                Z
 ----------------------------------------------------------------
    1      O       2.1525216715    -1.3987872972    -0.0207453405
    2      C       3.3499941009    -1.5141346676     0.3219755717
    3      C       4.5764681015    -0.6744576234    -0.1702749563
    4      C       4.2098175987     0.4267676869    -1.2456901389
    5      C       2.6678337286     0.6707691011    -1.4365714781
    6      O       2.1388842435     1.2607784521    -0.2423966501
    7      C       0.7213209332     1.6413793697    -0.4392434806
    8      C      -0.0334844021     1.4353892577     0.9277486167
    9      O      -0.8626032808     0.2060462109     0.9376437099
   10      C      -2.1007782226     0.4482762746     0.2567366082
   11      C      -2.9386757623    -0.8778718503     0.2947870684
   12      C      -4.4928580850    -0.6611599980     0.4912863481
   13      C      -4.8914589116     0.7542329436     1.0400801503
   14      O      -4.1924274052     1.5265055264     1.7307682629
   15      O       3.8174795766    -2.4707657081     1.2773960557
   16      O      -6.2425428108     1.0295519216     0.6537601404
   17      O      -2.3769438493     1.5150746445    -0.3326630889
   18      C      -6.6551735081     2.3547166969     1.1700285021
   19      C      -2.9320056741    -1.4992686251    -1.1713336620
   20      C      -3.5845682924    -2.9394982240    -1.1403747673
   21      C      -5.1169311116    -2.5832379538    -1.0692245711
   22      C      -5.0491460732    -1.0109599004    -0.9579026126
   23      O      -3.9356646598    -0.6629113667    -1.8693246252
   24      H      -2.5055077583    -1.5582280651     1.0479034346
   25      H      -4.8777176938    -1.3987960382     1.2213309279
   26      H      -1.9526207718    -1.4404198185    -1.6851898076
   27      H      -3.3379660059    -3.4958577022    -2.0585402686
   28      H      -3.2439500853    -3.5247674964    -0.2711798502
   29      H      -5.6411371203    -2.8795212601    -1.9919544409
   30      H      -5.6264699252    -3.0448420319    -0.2082645520
   31      H      -5.9720447726    -0.4650339075    -1.2328112909
   32      O       2.0086601832     0.4666391267    -2.4799621449
   33      C       2.6791515848    -3.2704017901     1.7880887315
   34      C       5.2752993937     0.2027902070     0.9591173639
   35      C       6.7456613363     0.5113979921     0.4723061578
   36      C       6.4650704860     1.5495897555    -0.6774343502
   37      C       4.8932536158     1.7003662471    -0.5824477061
   38      O       4.6070579717     1.5178373176     0.8598661927
   39      H       5.3084334480    -1.3910490893    -0.5870918198
   40      H       4.6380985669     0.1852191913    -2.2337832441
   41      H       2.1922865749    -3.8507220081     0.9776863586
   42      H       5.1872172713    -0.2104521342     1.9826335125
   43      H       7.3309042390     0.9631890600     1.2892642575
   44      H       7.2697177383    -0.3905114672     0.1179425303
   45      H       6.9590339778     2.5145703415    -0.4824171143
   46      H       6.7831699379     1.1832474379    -1.6666459603
   47      H       4.4917664399     2.6700344081    -0.9349060965
   48      H       1.9131620397    -2.6278912142     2.2684041173
   49      H       3.1047054242    -3.9646206591     2.5358019514
   50      H      -7.6936908364     2.5073886357     0.8230361083
   51      H      -6.0080082845     3.1644247993     0.7755161565
   52      H      -6.6254445958     2.3891823090     2.2784221209
   53      H       0.7147687544     1.3027568553     1.7355001302
   54      H      -0.6643299274     2.3233760533     1.1436557925
   55      H       0.2748037627     1.0252336987    -1.2493205328
   56      H       0.6676626575     2.7091511464    -0.7451683163
 ----------------------------------------------------------------

    9   -1510.2795905666      1.60E-09 Convergence criterion met
 Total energy in the final basis set = -1510.27959057
 Final energy is   -1510.27959056660
 **  OPTIMIZATION CONVERGED  **

                    Orbital Energies (a.u.)
 --------------------------------------------------------------

 Alpha MOs
 -- Occupied --
-18.938 -18.931 -18.922 -18.917 -18.888 -18.883 -18.882 -18.871
-18.862 -18.859 -10.103 -10.096 -10.089 -10.088 -10.067 -10.061
-10.061 -10.061 -10.059 -10.056 -10.055 -10.054 -10.038 -10.034
-10.033 -10.031 -10.020 -10.019 -10.017 -10.016  -1.016  -1.008
 -1.001  -0.996  -0.970  -0.966  -0.939  -0.933  -0.925  -0.920
 -0.762  -0.758  -0.723  -0.719  -0.710  -0.704  -0.687  -0.664
 -0.658  -0.610  -0.594  -0.573  -0.545  -0.540  -0.537  -0.533
 -0.513  -0.507  -0.482  -0.467  -0.462  -0.455  -0.446  -0.439
 -0.433  -0.430  -0.415  -0.413  -0.409  -0.407  -0.404  -0.404
 -0.390  -0.376  -0.372  -0.361  -0.356  -0.352  -0.349  -0.345
 -0.341  -0.334  -0.329  -0.327  -0.325  -0.324  -0.315  -0.314
 -0.307  -0.304  -0.299  -0.297  -0.290  -0.284  -0.281  -0.273
 -0.267  -0.257  -0.251  -0.240  -0.236  -0.234  -0.229  -0.182
 -0.176  -0.169  -0.159  -0.152  -0.152  -0.143  -0.141  -0.140
 -0.138

          Ground-State Mulliken Net Atomic Charges

     Atom                 Charge (a.u.)
  ----------------------------------------
      1 O                    -0.205448
      2 C                     0.211984
      3 C                    -0.079070
      4 C                    -0.080569
      5 C                     0.213965
      6 O                    -0.172073
      7 C                    -0.050827
      8 C                    -0.048654
      9 O                    -0.171391
     10 C                     0.211861
     11 C                    -0.078674
     12 C                    -0.079317
     13 C                     0.212809
     14 O                    -0.212332
     15 O                    -0.170950
     16 O                    -0.171533
     17 O                    -0.213676
     18 C                    -0.127915
     19 C                     0.025479
     20 C                    -0.144743
     21 C                    -0.142809
     22 C                     0.024472
     23 O                    -0.187627
     24 H                     0.085859
     25 H                     0.082816
     26 H                     0.085698
     27 H                     0.078055
     28 H                     0.072935
     29 H                     0.077454
     30 H                     0.072207
     31 H                     0.091377
     32 O                    -0.219537
     33 C                    -0.128519
     34 C                     0.025968
     35 C                    -0.142704
     36 C                    -0.144966
     37 C                     0.026959
     38 O                    -0.185301
     39 H                     0.085189
     40 H                     0.084048
     41 H                     0.089162
     42 H                     0.086379
     43 H                     0.077872
     44 H                     0.073622
     45 H                     0.077865
     46 H                     0.073724
     47 H                     0.083534
     48 H                     0.092090
     49 H                     0.090737
     50 H                     0.089830
     51 H                     0.092583
     52 H                     0.087615
     53 H                     0.095978
     54 H                     0.093726
     55 H                     0.102120
     56 H                     0.082661
  ----------------------------------------
  Sum of atomic charges =     0.000000

                    Cartesian Multipole Moments
 -----------------------------------------------------------------
    Charge (ESU x 10^10)
                 0.0000
    Dipole Moment (Debye)
         X       1.0758      Y      -2.2690      Z       1.7005
       Tot       3.0328
    Quadrupole Moments (Debye-Ang)
        XX    -132.8101     XY       1.3472     YY    -150.1230
        XZ      -7.3573     YZ      -2.8086     ZZ    -164.7739

 Total job time:  57.44s(wall), 2729.33s(cpu)
        *  Thank you very much for using Q-Chem.  Have a nice day.  *
