 Q-Chem 5.0, Q-Chem, Inc., Pleasanton, CA (2017)
 Q-Chem 5.0.1 for Intel X86 EM64T Linux

User input:
--------------------------------------------------------------
$molecule
0  1
O 2.1525216715 -1.3987872972 -0.0207453405
C 3.3499941009 -1.5141346676 0.3219755717
C 4.5764681015 -0.6744576234 -0.1702749563
C 4.2098175987 0.4267676869 -1.2456901389
C 2.6678337286 0.6707691011 -1.4365714781
O 2.1388842435 1.2607784521 -0.2423966501
C 0.7213209332 1.6413793697 -0.4392434806
C -0.0334844021 1.4353892577 0.9277486167
O -0.8626032808 0.2060462109 0.9376437099
C -2.1007782226 0.4482762746 0.2567366082
C -2.9386757623 -0.8778718503 0.2947870684
C -4.492858085 -0.661159998 0.4912863481
C -4.8914589116 0.7542329436 1.0400801503
O -4.1924274052 1.5265055264 1.7307682629
O 3.8174795766 -2.4707657081 1.2773960557
O -6.2425428108 1.0295519216 0.6537601404
O -2.3769438493 1.5150746445 -0.3326630889
C -6.6551735081 2.3547166969 1.1700285021
C -2.9320056741 -1.4992686251 -1.171333662
C -3.5845682924 -2.939498224 -1.1403747673
C -5.1169311116 -2.5832379538 -1.0692245711
C -5.0491460732 -1.0109599004 -0.9579026126
O -3.9356646598 -0.6629113667 -1.8693246252
H -2.5055077583 -1.5582280651 1.0479034346
H -4.8777176938 -1.3987960382 1.2213309279
H -1.9526207718 -1.4404198185 -1.6851898076
H -3.3379660059 -3.4958577022 -2.0585402686
H -3.2439500853 -3.5247674964 -0.2711798502
H -5.6411371203 -2.8795212601 -1.9919544409
H -5.6264699252 -3.0448420319 -0.208264552
H -5.9720447726 -0.4650339075 -1.2328112909
O 2.0086601832 0.4666391267 -2.4799621449
C 2.6791515848 -3.2704017901 1.7880887315
C 5.2752993937 0.202790207 0.9591173639
C 6.7456613363 0.5113979921 0.4723061578
C 6.465070486 1.5495897555 -0.6774343502
C 4.8932536158 1.7003662471 -0.5824477061
O 4.6070579717 1.5178373176 0.8598661927
H 5.308433448 -1.3910490893 -0.5870918198
H 4.6380985669 0.1852191913 -2.2337832441
H 2.1922865749 -3.8507220081 0.9776863586
H 5.1872172713 -0.2104521342 1.9826335125
H 7.330904239 0.96318906 1.2892642575
H 7.2697177383 -0.3905114672 0.1179425303
H 6.9590339778 2.5145703415 -0.4824171143
H 6.7831699379 1.1832474379 -1.6666459603
H 4.4917664399 2.6700344081 -0.9349060965
H 1.9131620397 -2.6278912142 2.2684041173
H 3.1047054242 -3.9646206591 2.5358019514
H -7.6936908364 2.5073886357 0.8230361083
H -6.0080082845 3.1644247993 0.7755161565
H -6.6254445958 2.389182309 2.2784221209
H 0.7147687544 1.3027568553 1.7355001302
H -0.6643299274 2.3233760533 1.1436557925
H 0.2748037627 1.0252336987 -1.2493205328
H 0.6676626575 2.7091511464 -0.7451683163
$end

$rem
JOBTYPE                   OPT
METHOD                    B3LYP
DFT_D                     d3_op
BASIS                     STO-3G
GEOM_OPT_MAX_CYCLES       100
GEOM_OPT_TOL_GRADIENT     300
GEOM_OPT_TOL_DISPLACEMENT 1200
GEOM_OPT_TOL_ENERGY       100
SYMMETRY                  False
THRESH                    12
SCF_CONVERGENCE           8
MAX_SUB_FILE_NUM          128
MEM_STATIC                400
MEM_TOTAL                 4000
$end
--------------------------------------------------------------

   16   -1510.2794173373      6.38E-09 Convergence criterion met
 Total energy in the final basis set = -1510.27941734
   13   -1510.2808157303      6.33E-09 Convergence criterion met
 Total energy in the final basis set = -1510.28081573
   14   -1510.2822853912      3.81E-09 Convergence criterion met
 Total energy in the final basis set = -1510.28228539
   14   -1510.2840101621      2.08E-09 Convergence criterion met
 Total energy in the final basis set = -1510.28401016
   14   -1510.2718560557      4.89E-09 Convergence criterion met
 Total energy in the final basis set = -1510.27185606
   14   -1510.2851535987      3.61E-09 Convergence criterion met
 Total energy in the final basis set = -1510.28515360
   13   -1510.2859364198      6.25E-09 Convergence criterion met
 Total energy in the final basis set = -1510.28593642
   13   -1510.2869467087      3.80E-09 Convergence criterion met
   13   -1510.3011790379      4.26E-09 Convergence criterion met
 Total energy in the final basis set = -1510.30117904
   13   -1510.3013248136      3.62E-09 Convergence criterion met
 Total energy in the final basis set = -1510.30132481
   11   -1510.3013333318      8.27E-09 Convergence criterion met
 Total energy in the final basis set = -1510.30133333
   10   -1510.3013413577      6.98E-09 Convergence criterion met
 Total energy in the final basis set = -1510.30134136
   10   -1510.3013613900      8.39E-09 Convergence criterion met
 Total energy in the final basis set = -1510.30136139
    9   -1510.3013624143      7.42E-09 Convergence criterion met
 Total energy in the final basis set = -1510.30136241

             Standard Nuclear Orientation (Angstroms)
    I     Atom           X                Y                Z
 ----------------------------------------------------------------
    1      O       0.6614526089    -1.8160158762     0.2252620704
    2      C       1.6545974912    -1.2283572180     0.7214978178
    3      C       3.0973584176    -1.2014418350     0.1077749919
    4      C       3.2983065642    -0.0126546696    -0.9375824340
    5      C       2.0018468514     0.8396939776    -1.1942579483
    6      O       2.1156078020     2.1152933796    -0.5565230120
    7      C       0.9324944344     2.9603633339    -0.8549025871
    8      C      -0.1973567167     2.7932278455     0.2281574748
    9      O      -0.6591489719     1.3966936525     0.3282990525
   10      C      -1.4976168225     1.0367199589    -0.7957889971
   11      C      -1.8010110562    -0.4968858655    -0.6810036826
   12      C      -2.9541726733    -0.8732008419     0.3307659052
   13      C      -3.6294857698     0.3826983173     0.9706747836
   14      O      -3.3934693591     1.5840655004     0.7069694451
   15      O       1.6329520814    -0.4818747750     1.9279395908
   16      O      -4.6030448720    -0.0483141485     1.9233124644
   17      O      -1.7741805859     1.8203934937    -1.7253540265
   18      C      -5.2860395776     1.1248137788     2.5173472119
   19      C      -2.3842147210    -1.0723669222    -2.0347181722
   20      C      -2.2069403653    -2.6403610350    -2.0037325175
   21      C      -3.3330664288    -3.0502658981    -0.9835978904
   22      C      -3.9598313543    -1.6421009911    -0.6358508200
   23      O      -3.8503925270    -0.8843250789    -1.9006427286
   24      H      -0.8564235696    -1.0084273653    -0.3885176645
   25      H      -2.5946375265    -1.5342111558     1.1398704759
   26      H      -2.0100773992    -0.5616338743    -2.9427278331
   27      H      -2.3881834050    -3.0731289341    -3.0003578342
   28      H      -1.1995812737    -2.9293598219    -1.6637487247
   29      H      -4.0892812907    -3.7002077825    -1.4521273103
   30      H      -2.9349169621    -3.5585113668    -0.0907905465
   31      H      -5.0074969031    -1.6646722016    -0.2771299254
   32      O       1.0223041495     0.4829590727    -1.8870844977
   33      C       0.2413997791    -0.3498175895     2.4345826354
   34      C       4.2279799777    -0.8558036896     1.1644143588
   35      C       5.6291557073    -1.2160273010     0.5289774764
   36      C       5.8198262703    -0.0274087790    -0.4842459872
   37      C       4.4849451906     0.7867278320    -0.2534923493
   38      O       4.2280546258     0.6249762888     1.1958716715
   39      H       3.2693538073    -2.1756632947    -0.3836575162
   40      H       3.6025721061    -0.4264901818    -1.9163614395
   41      H      -0.2598383386    -1.3360576886     2.4950979504
   42      H       4.0472553970    -1.2648721171     2.1766945427
   43      H       6.4131442660    -1.2182974284     1.3029833345
   44      H       5.6194105390    -2.2002254629     0.0338924383
   45      H       6.6952763638     0.5889215222    -0.2247921999
   46      H       5.9245087256    -0.3684260231    -1.5266477966
   47      H       4.5266348646     1.8589226116    -0.5228960212
   48      H      -0.3229397350     0.3311784004     1.7509823133
   49      H       0.3295550826     0.0894887941     3.4442456895
   50      H      -6.0267827729     0.7182352899     3.2301613636
   51      H      -5.8054045166     1.7283909727     1.7452123838
   52      H      -4.5731311531     1.7814014133     3.0568135449
   53      H       0.1955519604     3.0529179413     1.2316928916
   54      H      -1.0390900971     3.4720742240    -0.0314316856
   55      H       0.5151859014     2.7047919323    -1.8515050231
   56      H       1.2924203145     4.0094398161    -0.8499348160
 ----------------------------------------------------------------

    9   -1510.3013630003      9.98E-09 Convergence criterion met
 Total energy in the final basis set = -1510.30136300
 Final energy is   -1510.30136300027
 **  OPTIMIZATION CONVERGED  **

                    Orbital Energies (a.u.)
 --------------------------------------------------------------

 Alpha MOs
 -- Occupied --
-18.939 -18.937 -18.936 -18.922 -18.886 -18.880 -18.875 -18.875
-18.875 -18.861 -10.102 -10.101 -10.101 -10.090 -10.070 -10.068
-10.067 -10.059 -10.058 -10.052 -10.043 -10.043 -10.039 -10.038
-10.030 -10.020 -10.019 -10.011 -10.010 -10.005  -1.017  -1.014
 -1.010  -0.996  -0.968  -0.959  -0.939  -0.939  -0.935  -0.925
 -0.763  -0.752  -0.724  -0.717  -0.710  -0.700  -0.689  -0.662
 -0.654  -0.614  -0.594  -0.576  -0.546  -0.537  -0.535  -0.526
 -0.513  -0.503  -0.485  -0.471  -0.469  -0.450  -0.446  -0.440
 -0.432  -0.426  -0.421  -0.414  -0.413  -0.409  -0.406  -0.401
 -0.390  -0.376  -0.374  -0.368  -0.360  -0.354  -0.349  -0.345
 -0.342  -0.337  -0.331  -0.327  -0.325  -0.323  -0.315  -0.309
 -0.306  -0.302  -0.299  -0.294  -0.288  -0.286  -0.279  -0.269
 -0.266  -0.255  -0.252  -0.247  -0.239  -0.232  -0.223  -0.188
 -0.181  -0.172  -0.161  -0.159  -0.155  -0.149  -0.141  -0.140
 -0.133

          Ground-State Mulliken Net Atomic Charges

     Atom                 Charge (a.u.)
  ----------------------------------------
      1 O                    -0.222151
      2 C                     0.212467
      3 C                    -0.078076
      4 C                    -0.077921
      5 C                     0.206511
      6 O                    -0.168306
      7 C                    -0.054969
      8 C                    -0.046991
      9 O                    -0.184744
     10 C                     0.227263
     11 C                    -0.095866
     12 C                    -0.079524
     13 C                     0.212535
     14 O                    -0.209193
     15 O                    -0.162545
     16 O                    -0.169288
     17 O                    -0.214895
     18 C                    -0.128314
     19 C                     0.025483
     20 C                    -0.144264
     21 C                    -0.143453
     22 C                     0.024948
     23 O                    -0.192647
     24 H                     0.112057
     25 H                     0.084981
     26 H                     0.089368
     27 H                     0.074382
     28 H                     0.081573
     29 H                     0.075243
     30 H                     0.072903
     31 H                     0.081972
     32 O                    -0.214447
     33 C                    -0.148231
     34 C                     0.025946
     35 C                    -0.144496
     36 C                    -0.144190
     37 C                     0.024668
     38 O                    -0.185544
     39 H                     0.084786
     40 H                     0.085336
     41 H                     0.080061
     42 H                     0.086963
     43 H                     0.077627
     44 H                     0.072830
     45 H                     0.077617
     46 H                     0.072707
     47 H                     0.089451
     48 H                     0.115836
     49 H                     0.083763
     50 H                     0.091305
     51 H                     0.091540
     52 H                     0.088985
     53 H                     0.089747
     54 H                     0.096897
     55 H                     0.103686
     56 H                     0.088620
  ----------------------------------------
  Sum of atomic charges =    -0.000000

                    Cartesian Multipole Moments
 -----------------------------------------------------------------
    Charge (ESU x 10^10)
                -0.0000
    Dipole Moment (Debye)
         X       1.7140      Y      -0.8036      Z       1.9536
       Tot       2.7203
    Quadrupole Moments (Debye-Ang)
        XX    -149.5085     XY      -1.9032     YY    -153.4768
        XZ     -15.9805     YZ       1.4180     ZZ    -160.4513

 Total job time:  149.58s(wall), 7142.19s(cpu)
        *  Thank you very much for using Q-Chem.  Have a nice day.  *
