 Q-Chem 5.0, Q-Chem, Inc., Pleasanton, CA (2017)
 Q-Chem 5.0.1 for Intel X86 EM64T Linux

User input:
--------------------------------------------------------------
$molecule
0  1
O -3.94934 -3.66094 2.70899
C -3.26408 -4.56952 2.26188
C -3.36658 -6.02376 2.66595
C -4.63982 -6.45812 3.41029
C -5.74577 -5.43106 3.51089
O -6.95127 -6.05892 3.64499
C -8.03354 -5.154 3.88803
C -9.30811 -5.66956 3.22786
O -9.03393 -6.06077 1.87337
C -9.24128 -5.10259 0.93633
C -8.88775 -5.55826 -0.45939
C -9.82439 -5.04727 -1.56387
C -10.73465 -3.89832 -1.17911
O -10.68048 -3.27149 -0.13091
O -2.23448 -4.25383 1.43189
O -11.61135 -3.49406 -2.13579
O -9.01873 -3.94352 1.27229
C -12.48956 -2.44073 -1.99016
C -7.53857 -5.00954 -0.97361
C -6.99399 -5.93001 -2.06423
C -7.97306 -5.64708 -3.18766
C -8.78827 -4.50782 -2.56243
O -7.87469 -3.85828 -1.71053
H -8.82889 -6.67166 -0.45211
H -10.47597 -5.86244 -1.94874
H -6.7828 -4.87541 -0.16831
H -5.99622 -5.52685 -2.35175
H -6.88605 -7.00073 -1.78708
H -7.39841 -5.29335 -4.07214
H -8.62903 -6.49855 -3.47146
H -9.25052 -3.87667 -3.35321
O -5.56472 -4.41612 4.17506
C -1.95586 -2.97829 0.98748
C -3.44523 -6.92785 1.41469
C -2.96538 -8.33445 1.75981
C -4.11756 -8.81762 2.60747
C -5.07294 -7.62495 2.47911
O -4.81842 -7.1147 1.19741
H -2.43221 -6.26469 3.22066
H -4.43987 -6.82962 4.43995
H -1.73571 -2.31171 1.84857
H -2.86799 -6.54434 0.54513
H -2.95356 -8.91817 0.81115
H -1.9642 -8.39252 2.23846
H -4.55073 -9.72192 2.12434
H -3.87052 -9.03569 3.669
H -6.10714 -7.99075 2.65133
H -2.81791 -2.57753 0.41234
H -1.06748 -3.01026 0.324
H -13.08512 -2.33247 -2.91971
H -11.92997 -1.4976 -1.81198
H -13.18102 -2.63361 -1.14217
H -9.61332 -6.58975 3.76972
H -10.15223 -4.94768 3.31929
H -7.83697 -4.14532 3.45616
H -8.20234 -5.0379 4.98042
$end

$opt
CONSTRAINT
tors           1           2           3           4     +16.461
tors           3           4           5           6    +154.032
tors           4           5           6           7    +173.788
tors           5           6           7           8    +145.932
tors           6           7           8           9     -47.694
tors           7           8           9          10     -92.802
tors           8           9          10          11    +177.893
tors           9          10          11          12    +142.331
tors          11          12          13          14      +8.129
ENDCONSTRAINT
$end

$rem
JOBTYPE                   OPT
METHOD                    B3LYP
DFT_D                     d3_op
BASIS                     STO-3G
GEOM_OPT_MAX_CYCLES       100
GEOM_OPT_TOL_GRADIENT     300
GEOM_OPT_TOL_DISPLACEMENT 1200
GEOM_OPT_TOL_ENERGY       100
SYMMETRY                  False
THRESH                    12
SCF_CONVERGENCE           8
MAX_SUB_FILE_NUM          128
MEM_STATIC                400
MEM_TOTAL                 4000
$end
--------------------------------------------------------------

   16   -1510.0879093283      3.81E-09 Convergence criterion met
 Total energy in the final basis set = -1510.08790933
   14   -1510.1655362385      9.66E-09 Convergence criterion met
 Total energy in the final basis set = -1510.16553624
   14   -1510.2094723848      2.31E-09 Convergence criterion met
 Total energy in the final basis set = -1510.20947238
   14   -1510.2365198022      9.28E-09 Convergence criterion met
 Total energy in the final basis set = -1510.23651980
   13   -1510.2496506567      8.15E-09 Convergence criterion met
 Total energy in the final basis set = -1510.24965066
   14   -1510.2570515878      4.37E-09 Convergence criterion met
 Total energy in the final basis set = -1510.25705159
   13   -1510.2614201764      3.81E-09 Convergence criterion met
 Total energy in the final basis set = -1510.26142018
   13   -1510.2640023746      3.03E-09 Convergence criterion met
   11   -1510.2730416331      3.90E-09 Convergence criterion met
 Total energy in the final basis set = -1510.27304163
   11   -1510.2730663328      7.53E-09 Convergence criterion met
 Total energy in the final basis set = -1510.27306633
   11   -1510.2730775520      6.41E-09 Convergence criterion met
 Total energy in the final basis set = -1510.27307755
    9   -1510.2730889916      9.02E-09 Convergence criterion met
 Total energy in the final basis set = -1510.27308899
   11   -1510.2730956623      1.63E-09 Convergence criterion met
 Total energy in the final basis set = -1510.27309566
   10   -1510.2730997179      9.51E-09 Convergence criterion met
 Total energy in the final basis set = -1510.27309972

             Standard Nuclear Orientation (Angstroms)
    I     Atom           X                Y                Z
 ----------------------------------------------------------------
    1      O      -1.7966854686    -0.7870013968     1.2848075214
    2      C      -2.9177469482    -1.1358379845     0.8565353545
    3      C      -4.0091893476    -0.2778640179     0.0975943284
    4      C      -3.4162756284     1.0637630524    -0.4783888588
    5      C      -2.3438392237     1.7512860230     0.4328634324
    6      O      -1.4798803826     2.5424241062    -0.3889496181
    7      C      -0.5497734790     3.3211041267     0.4650474793
    8      C       0.7876808412     3.4015673342    -0.3450288778
    9      O       1.0779631356     2.0252344862    -0.8164723876
   10      C       1.9260257629     1.3252943776     0.1066047969
   11      C       2.1027768754    -0.1168466013    -0.4846948208
   12      C       3.5241249643    -0.7874434273    -0.3284435174
   13      C       4.7373439898     0.1470769085     0.0068225655
   14      O       4.7664243440     1.3569526240     0.3115205455
   15      O      -3.4525020275    -2.4515995709     1.0389896111
   16      O       5.9134829104    -0.6752955324    -0.0737175333
   17      O       2.3008075278     1.7918253249     1.2018343382
   18      C       7.1115412793     0.1222001731     0.2717757285
   19      C       1.2222763480    -1.1156967706     0.3976875397
   20      C       1.1561049348    -2.5235110279    -0.3206267625
   21      C       2.5662863095    -3.1250641600     0.0329113263
   22      C       3.2257280261    -1.9005225165     0.7786582003
   23      O       2.1028175455    -1.3485805639     1.5662255262
   24      H       1.7739883410    -0.0955940585    -1.5381502313
   25      H       3.7895693470    -1.2929478728    -1.2751971969
   26      H       0.2318842635    -0.7250903867     0.7202136778
   27      H       0.3380595232    -3.1290629397     0.1001131854
   28      H       0.9949360940    -2.4234203252    -1.4059637414
   29      H       2.4785360079    -3.9863124949     0.7146636550
   30      H       3.1392969107    -3.4333465352    -0.8559307210
   31      H       4.0855658029    -2.1439017694     1.4323227208
   32      O      -2.3260028220     1.7713534649     1.6829640350
   33      C      -2.4747661796    -3.3037900676     1.7528139950
   34      C      -4.2373503926    -1.0548771656    -1.2710007007
   35      C      -5.2452946068    -0.2892071658    -2.2175142262
   36      C      -4.3175870717     0.8253159043    -2.8336798020
   37      C      -3.0213157699     0.6279396429    -1.9581845335
   38      O      -2.9062249096    -0.8494871715    -1.9028289990
   39      H      -4.9126369225    -0.1419296077     0.7180073468
   40      H      -4.2390204187     1.8017292583    -0.5449703916
   41      H      -2.1807542708    -2.8623605414     2.7267133423
   42      H      -4.4396648738    -2.1348333283    -1.1359405770
   43      H      -5.6400079264    -0.9664044501    -2.9912206388
   44      H      -6.0935643242     0.1314511664    -1.6535565758
   45      H      -4.0986507486     0.6215997825    -3.8943472711
   46      H      -4.7417530351     1.8382129704    -2.7450190255
   47      H      -2.0905235557     1.0856374537    -2.3449931183
   48      H      -1.5575802519    -3.4634591786     1.1493880909
   49      H      -2.9795263281    -4.2732347270     1.9190477050
   50      H       7.9680467956    -0.5750192323     0.2208541458
   51      H       7.0395252962     0.5480156026     1.2934884524
   52      H       7.2699140706     0.9552616145    -0.4434892488
   53      H       0.6670727591     4.0303034735    -1.2498411327
   54      H       1.6084172226     3.7894226824     0.2954097034
   55      H      -0.4034797327     2.8013430474     1.4355204006
   56      H      -0.9667175918     4.3332397798     0.6621581654
 ----------------------------------------------------------------

    9   -1510.2730997884      7.09E-09 Convergence criterion met
 Total energy in the final basis set = -1510.27309979
 Final energy is   -1510.27309978840
 **  OPTIMIZATION CONVERGED  **

                    Orbital Energies (a.u.)
 --------------------------------------------------------------

 Alpha MOs
 -- Occupied --
-18.936 -18.927 -18.925 -18.919 -18.886 -18.880 -18.879 -18.872
-18.868 -18.865 -10.102 -10.095 -10.093 -10.087 -10.066 -10.065
-10.063 -10.059 -10.059 -10.059 -10.053 -10.045 -10.040 -10.036
-10.031 -10.028 -10.022 -10.020 -10.014 -10.012  -1.015  -1.009
 -1.005  -0.997  -0.971  -0.962  -0.939  -0.932  -0.929  -0.920
 -0.764  -0.755  -0.725  -0.719  -0.711  -0.701  -0.689  -0.663
 -0.656  -0.612  -0.595  -0.573  -0.545  -0.538  -0.536  -0.529
 -0.514  -0.504  -0.480  -0.469  -0.458  -0.453  -0.448  -0.441
 -0.436  -0.428  -0.426  -0.415  -0.410  -0.407  -0.404  -0.400
 -0.391  -0.376  -0.369  -0.366  -0.360  -0.354  -0.349  -0.343
 -0.339  -0.338  -0.330  -0.328  -0.319  -0.317  -0.314  -0.311
 -0.308  -0.305  -0.300  -0.294  -0.291  -0.285  -0.279  -0.275
 -0.262  -0.256  -0.251  -0.245  -0.237  -0.235  -0.224  -0.180
 -0.172  -0.171  -0.165  -0.159  -0.153  -0.146  -0.141  -0.136
 -0.133

          Ground-State Mulliken Net Atomic Charges

     Atom                 Charge (a.u.)
  ----------------------------------------
      1 O                    -0.209198
      2 C                     0.218908
      3 C                    -0.074554
      4 C                    -0.081000
      5 C                     0.212950
      6 O                    -0.174443
      7 C                    -0.052803
      8 C                    -0.049795
      9 O                    -0.174375
     10 C                     0.212108
     11 C                    -0.079643
     12 C                    -0.080244
     13 C                     0.208262
     14 O                    -0.206162
     15 O                    -0.171932
     16 O                    -0.175278
     17 O                    -0.204621
     18 C                    -0.129096
     19 C                     0.019173
     20 C                    -0.144058
     21 C                    -0.142657
     22 C                     0.026735
     23 O                    -0.187716
     24 H                     0.085885
     25 H                     0.083995
     26 H                     0.101176
     27 H                     0.071931
     28 H                     0.074231
     29 H                     0.075635
     30 H                     0.072704
     31 H                     0.084492
     32 O                    -0.211826
     33 C                    -0.127788
     34 C                     0.022196
     35 C                    -0.146289
     36 C                    -0.140976
     37 C                     0.022535
     38 O                    -0.195070
     39 H                     0.088840
     40 H                     0.082950
     41 H                     0.093675
     42 H                     0.088824
     43 H                     0.078301
     44 H                     0.073788
     45 H                     0.077691
     46 H                     0.073630
     47 H                     0.093494
     48 H                     0.086804
     49 H                     0.090521
     50 H                     0.088447
     51 H                     0.089672
     52 H                     0.086903
     53 H                     0.087932
     54 H                     0.099536
     55 H                     0.104416
     56 H                     0.081187
  ----------------------------------------
  Sum of atomic charges =    -0.000000

                    Cartesian Multipole Moments
 -----------------------------------------------------------------
    Charge (ESU x 10^10)
                 0.0000
    Dipole Moment (Debye)
         X      -1.5985      Y      -0.9162      Z      -2.5128
       Tot       3.1159
    Quadrupole Moments (Debye-Ang)
        XX    -139.7297     XY      -4.5525     YY    -149.1043
        XZ      -0.9216     YZ      -5.4830     ZZ    -164.7058

 Total job time:  95.01s(wall), 4527.58s(cpu)
        *  Thank you very much for using Q-Chem.  Have a nice day.  *
