 Q-Chem 5.0, Q-Chem, Inc., Pleasanton, CA (2017)
 Q-Chem 5.0.1 for Intel X86 EM64T Linux

User input:
--------------------------------------------------------------
$molecule
0  1
O -1.7966854686 -0.7870013968 1.2848075214
C -2.9177469482 -1.1358379845 0.8565353545
C -4.0091893476 -0.2778640179 0.0975943284
C -3.4162756284 1.0637630524 -0.4783888588
C -2.3438392237 1.751286023 0.4328634324
O -1.4798803826 2.5424241062 -0.3889496181
C -0.549773479 3.3211041267 0.4650474793
C 0.7876808412 3.4015673342 -0.3450288778
O 1.0779631356 2.0252344862 -0.8164723876
C 1.9260257629 1.3252943776 0.1066047969
C 2.1027768754 -0.1168466013 -0.4846948208
C 3.5241249643 -0.7874434273 -0.3284435174
C 4.7373439898 0.1470769085 0.0068225655
O 4.766424344 1.356952624 0.3115205455
O -3.4525020275 -2.4515995709 1.0389896111
O 5.9134829104 -0.6752955324 -0.0737175333
O 2.3008075278 1.7918253249 1.2018343382
C 7.1115412793 0.1222001731 0.2717757285
C 1.222276348 -1.1156967706 0.3976875397
C 1.1561049348 -2.5235110279 -0.3206267625
C 2.5662863095 -3.12506416 0.0329113263
C 3.2257280261 -1.9005225165 0.7786582003
O 2.1028175455 -1.3485805639 1.5662255262
H 1.773988341 -0.0955940585 -1.5381502313
H 3.789569347 -1.2929478728 -1.2751971969
H 0.2318842635 -0.7250903867 0.7202136778
H 0.3380595232 -3.1290629397 0.1001131854
H 0.994936094 -2.4234203252 -1.4059637414
H 2.4785360079 -3.9863124949 0.714663655
H 3.1392969107 -3.4333465352 -0.855930721
H 4.0855658029 -2.1439017694 1.4323227208
O -2.326002822 1.7713534649 1.682964035
C -2.4747661796 -3.3037900676 1.752813995
C -4.2373503926 -1.0548771656 -1.2710007007
C -5.2452946068 -0.2892071658 -2.2175142262
C -4.3175870717 0.8253159043 -2.833679802
C -3.0213157699 0.6279396429 -1.9581845335
O -2.9062249096 -0.8494871715 -1.902828999
H -4.9126369225 -0.1419296077 0.7180073468
H -4.2390204187 1.8017292583 -0.5449703916
H -2.1807542708 -2.8623605414 2.7267133423
H -4.4396648738 -2.1348333283 -1.135940577
H -5.6400079264 -0.9664044501 -2.9912206388
H -6.0935643242 0.1314511664 -1.6535565758
H -4.0986507486 0.6215997825 -3.8943472711
H -4.7417530351 1.8382129704 -2.7450190255
H -2.0905235557 1.0856374537 -2.3449931183
H -1.5575802519 -3.4634591786 1.1493880909
H -2.9795263281 -4.273234727 1.919047705
H 7.9680467956 -0.5750192323 0.2208541458
H 7.0395252962 0.5480156026 1.2934884524
H 7.2699140706 0.9552616145 -0.4434892488
H 0.6670727591 4.0303034735 -1.2498411327
H 1.6084172226 3.7894226824 0.2954097034
H -0.4034797327 2.8013430474 1.4355204006
H -0.9667175918 4.3332397798 0.6621581654
$end

$rem
JOBTYPE                   OPT
METHOD                    B3LYP
DFT_D                     d3_op
BASIS                     STO-3G
GEOM_OPT_MAX_CYCLES       100
GEOM_OPT_TOL_GRADIENT     300
GEOM_OPT_TOL_DISPLACEMENT 1200
GEOM_OPT_TOL_ENERGY       100
SYMMETRY                  False
THRESH                    12
SCF_CONVERGENCE           8
MAX_SUB_FILE_NUM          128
MEM_STATIC                400
MEM_TOTAL                 4000
$end
--------------------------------------------------------------

   16   -1510.2730358359      5.63E-09 Convergence criterion met
 Total energy in the final basis set = -1510.27303584
   15   -1510.1739662234      5.36E-09 Convergence criterion met
 Total energy in the final basis set = -1510.17396622
   14   -1510.2760488134      7.63E-09 Convergence criterion met
 Total energy in the final basis set = -1510.27604881
   13   -1510.2786895162      5.37E-09 Convergence criterion met
 Total energy in the final basis set = -1510.27868952
   13   -1510.2807754000      4.25E-09 Convergence criterion met
 Total energy in the final basis set = -1510.28077540
   13   -1510.2826031592      7.53E-09 Convergence criterion met
 Total energy in the final basis set = -1510.28260316
   13   -1510.2841734277      4.98E-09 Convergence criterion met
 Total energy in the final basis set = -1510.28417343
   13   -1510.2858042475      6.02E-09 Convergence criterion met
   12   -1510.2955183473      2.83E-09 Convergence criterion met
 Total energy in the final basis set = -1510.29551835
   12   -1510.2955292635      2.63E-09 Convergence criterion met
 Total energy in the final basis set = -1510.29552926
   10   -1510.2955350760      9.73E-09 Convergence criterion met
 Total energy in the final basis set = -1510.29553508
   10   -1510.2955314236      5.52E-09 Convergence criterion met
 Total energy in the final basis set = -1510.29553142
   11   -1510.2955295517      3.45E-09 Convergence criterion met
 Total energy in the final basis set = -1510.29552955
    9   -1510.2955278393      7.49E-09 Convergence criterion met
 Total energy in the final basis set = -1510.29552784

             Standard Nuclear Orientation (Angstroms)
    I     Atom           X                Y                Z
 ----------------------------------------------------------------
    1      O      -1.5005568275    -0.2572419891     1.7773264224
    2      C      -2.4522654824    -0.8315624342     1.2023351972
    3      C      -3.2631695918    -0.3031815474    -0.0300042448
    4      C      -3.0793507970     1.2550912104    -0.2536088210
    5      C      -2.4161003149     1.9967105375     0.9720177454
    6      O      -1.1461993771     2.4969289785     0.5644532451
    7      C      -0.3733238661     3.0267837038     1.7132053251
    8      C       1.1187562617     3.0239746968     1.2070134250
    9      O       1.3106040221     1.8931468224     0.2735208226
   10      C       1.3163825195     0.6493522415     1.0013420755
   11      C       1.1188615187    -0.5198031634    -0.0262846216
   12      C       2.2958568181    -0.7096546638    -1.0622572682
   13      C       3.5408884604     0.1743033734    -0.7220891697
   14      O       3.7940939206     0.7323832108     0.3687604043
   15      O      -2.9517538794    -2.1220304570     1.5527759293
   16      O       4.4038505535     0.2168085186    -1.8630642709
   17      O       1.3430128008     0.5679164396     2.2470070191
   18      C       5.6178369669     1.0049311323    -1.5476718403
   19      C       1.1283197095    -1.9221217974     0.7109288555
   20      C       0.4100989727    -2.9771703528    -0.2121644038
   21      C       1.4737929827    -3.1385118607    -1.3602825328
   22      C       2.6551937359    -2.2391801316    -0.8147157455
   23      O       2.5465677861    -2.3568046312     0.6564688801
   24      H       0.1534217661    -0.3304495799    -0.5569402113
   25      H       1.9831539055    -0.5195520678    -2.1041799580
   26      H       0.7785167867    -1.8690527151     1.7599939767
   27      H       0.2577806656    -3.9247963556     0.3294504872
   28      H      -0.5630113790    -2.6199970468    -0.5791548712
   29      H       1.8006401035    -4.1847248143    -1.4698421049
   30      H       1.1009543167    -2.7804683868    -2.3334672378
   31      H       3.6661210025    -2.5325758645    -1.1593434694
   32      O      -2.9338599968     2.1889587283     2.0937716539
   33      C      -2.1867464330    -2.6761469945     2.6951060837
   34      C      -2.6169602222    -0.8690018745    -1.3647929821
   35      C      -3.5375527918    -0.5004525098    -2.5933372447
   36      C      -3.1870137175     1.0198281579    -2.7991384883
   37      C      -2.2116210026     1.2698849622    -1.5859530488
   38      O      -1.4322967987     0.0053371751    -1.5336847470
   39      H      -4.3222849306    -0.5979276992     0.0731962441
   40      H      -4.0654074869     1.7229656362    -0.4277967096
   41      H      -2.1351212741    -1.9571325625     3.5372116141
   42      H      -2.3181794158    -1.9334718457    -1.3098903343
   43      H      -3.2658706074    -1.1041477441    -3.4736811539
   44      H      -4.6034593554    -0.6642025698    -2.3678241518
   45      H      -2.6631969435     1.1860148604    -3.7541512748
   46      H      -4.0741015856     1.6718079291    -2.7628063769
   47      H      -1.5289897129     2.1352935887    -1.6788329178
   48      H      -1.1536399986    -2.9446502926     2.3956029707
   49      H      -2.7267709358    -3.5875200042     3.0107606785
   50      H       6.2470296735     0.9744794781    -2.4561410250
   51      H       6.1760732490     0.5703986433    -0.6934276363
   52      H       5.3683095149     2.0580771852    -1.3044597484
   53      H       1.3320640105     3.9363201532     0.6155938956
   54      H       1.8129113107     2.9695789200     2.0731011123
   55      H      -0.4917294553     2.3595139285     2.5924647904
   56      H      -0.7069000273     4.0511820551     1.9890647242
 ----------------------------------------------------------------

    9   -1510.2955272404      5.71E-09 Convergence criterion met
 Total energy in the final basis set = -1510.29552724
 Final energy is   -1510.29552724044
 **  OPTIMIZATION CONVERGED  **

                    Orbital Energies (a.u.)
 --------------------------------------------------------------

 Alpha MOs
 -- Occupied --
-18.943 -18.929 -18.925 -18.906 -18.906 -18.885 -18.874 -18.870
-18.862 -18.850 -10.106 -10.095 -10.091 -10.077 -10.072 -10.067
-10.065 -10.061 -10.060 -10.060 -10.051 -10.045 -10.043 -10.038
-10.029 -10.026 -10.025 -10.013 -10.011 -10.006  -1.019  -1.006
 -1.004  -0.986  -0.982  -0.959  -0.944  -0.930  -0.929  -0.912
 -0.770  -0.749  -0.730  -0.719  -0.713  -0.699  -0.686  -0.668
 -0.657  -0.609  -0.592  -0.574  -0.553  -0.545  -0.534  -0.528
 -0.514  -0.497  -0.485  -0.472  -0.460  -0.454  -0.447  -0.440
 -0.435  -0.432  -0.421  -0.415  -0.414  -0.407  -0.405  -0.400
 -0.384  -0.378  -0.367  -0.365  -0.358  -0.351  -0.350  -0.343
 -0.339  -0.338  -0.334  -0.330  -0.323  -0.322  -0.317  -0.314
 -0.308  -0.304  -0.299  -0.293  -0.287  -0.282  -0.281  -0.270
 -0.263  -0.259  -0.249  -0.246  -0.240  -0.227  -0.221  -0.184
 -0.173  -0.168  -0.162  -0.158  -0.152  -0.146  -0.142  -0.133
 -0.129

          Ground-State Mulliken Net Atomic Charges

     Atom                 Charge (a.u.)
  ----------------------------------------
      1 O                    -0.205690
      2 C                     0.212058
      3 C                    -0.078260
      4 C                    -0.080958
      5 C                     0.214350
      6 O                    -0.173983
      7 C                    -0.049942
      8 C                    -0.046055
      9 O                    -0.175723
     10 C                     0.220157
     11 C                    -0.094358
     12 C                    -0.078121
     13 C                     0.213803
     14 O                    -0.208130
     15 O                    -0.169343
     16 O                    -0.171171
     17 O                    -0.218146
     18 C                    -0.128493
     19 C                     0.021353
     20 C                    -0.144597
     21 C                    -0.143821
     22 C                     0.024565
     23 O                    -0.192815
     24 H                     0.108688
     25 H                     0.085894
     26 H                     0.088205
     27 H                     0.072225
     28 H                     0.068657
     29 H                     0.075025
     30 H                     0.073141
     31 H                     0.080371
     32 O                    -0.220100
     33 C                    -0.129467
     34 C                     0.025651
     35 C                    -0.143829
     36 C                    -0.143006
     37 C                     0.025798
     38 O                    -0.189111
     39 H                     0.089303
     40 H                     0.083676
     41 H                     0.096211
     42 H                     0.083538
     43 H                     0.079525
     44 H                     0.076512
     45 H                     0.079466
     46 H                     0.075764
     47 H                     0.099622
     48 H                     0.090032
     49 H                     0.092010
     50 H                     0.089082
     51 H                     0.089621
     52 H                     0.088842
     53 H                     0.084154
     54 H                     0.093914
     55 H                     0.102138
     56 H                     0.081771
  ----------------------------------------
  Sum of atomic charges =     0.000000

                    Cartesian Multipole Moments
 -----------------------------------------------------------------
    Charge (ESU x 10^10)
                 0.0000
    Dipole Moment (Debye)
         X      -2.0871      Y      -0.3850      Z      -3.3269
       Tot       3.9463
    Quadrupole Moments (Debye-Ang)
        XX    -151.0275     XY       6.4920     YY    -150.1763
        XZ      -0.5927     YZ      -2.5065     ZZ    -161.7057

 Total job time:  142.93s(wall), 6811.93s(cpu)
        *  Thank you very much for using Q-Chem.  Have a nice day.  *
