 Q-Chem 5.0, Q-Chem, Inc., Pleasanton, CA (2017)
 Q-Chem 5.0.1 for Intel X86 EM64T Linux

User input:
--------------------------------------------------------------
$molecule
0  1
O 3.9247522825 -1.1505616573 1.3781412799
C 4.7730096908 -1.1089037654 0.4613599302
C 4.7923984504 -0.1733533513 -0.8023930622
C 3.5462347815 0.7908619387 -0.8657340763
C 2.2407807605 0.2915196762 -0.1520109828
O 2.0419068186 -1.0913330662 -0.4841741146
C 1.0594358056 -1.7149804941 0.4299679226
C -0.3815297504 -1.7445696944 -0.2020982683
O -1.1753278739 -0.6678021948 0.4381786764
C -2.5648637171 -0.8285406103 0.1224744099
C -3.3675794603 0.25225418 0.9317925385
C -4.5879990967 0.8835014687 0.1514856933
C -4.5188851908 0.7524271029 -1.4090012313
O -3.5426713412 0.4218784725 -2.1151550428
O 5.9384715861 -1.939269702 0.4139526196
O -5.8028265541 1.1071808528 -1.937790617
O -3.020658224 -1.7689559104 -0.5623617041
C -5.786660045 1.0054648165 -3.4149470753
C -4.1569550243 -0.519709996 2.0805156487
C -4.8598810137 0.5201344783 3.0424417188
C -6.1199318708 0.9284188968 2.1911324473
C -5.8243588623 0.1588973285 0.8462893299
O -5.2752031268 -1.1301494088 1.3235465727
H -2.6695417262 1.0133147838 1.3213893467
H -4.6389442333 1.9677305699 0.3669529495
H -3.5640562593 -1.3026189791 2.5921175234
H -5.1462873869 0.0399190976 3.9912688748
H -4.204216049 1.3774598651 3.2649294478
H -7.0500053544 0.5527449876 2.6473310529
H -6.2096545957 2.0168807581 2.0465846881
H -6.6938106499 -0.0022936349 0.1801568872
O 1.5007841561 0.9529680158 0.605784167
C 5.9798019029 -2.8211647203 1.6030060277
C 5.9363771498 0.900778876 -0.5418697553
C 6.061015233 1.8910110952 -1.7675892524
C 4.8568576468 2.8718070544 -1.5037933381
C 4.154633558 2.1425733728 -0.2949521715
O 5.3117766986 1.7169135639 0.5299367013
H 4.936690964 -0.768250321 -1.7215411949
H 3.2774066933 0.9378554199 -1.9293668583
H 5.097407364 -3.4920612421 1.6443709301
H 6.8902107157 0.4603733771 -0.1915410303
H 7.0287501859 2.4162727605 -1.7447943719
H 5.9710485474 1.3616281112 -2.7299340455
H 5.2131643768 3.8678935116 -1.195100947
H 4.1943801433 2.985453926 -2.3767887704
H 3.4443217527 2.746976883 0.3024654223
H 6.0206914335 -2.2362850592 2.5445380406
H 6.8995522949 -3.4262822353 1.502326971
H -6.8054940287 1.27331931 -3.7505282902
H -5.5431274488 -0.0233464616 -3.7505261963
H -5.0524609975 1.7046473512 -3.8652337567
H -0.3148572309 -1.5860954953 -1.3015109833
H -0.8677636362 -2.7297443513 -0.0317406238
H 1.0206820543 -1.1703806918 1.3970938367
H 1.4184748931 -2.7511744938 0.5955000924
$end

$rem
JOBTYPE                   OPT
METHOD                    B3LYP
DFT_D                     d3_op
BASIS                     STO-3G
GEOM_OPT_MAX_CYCLES       100
GEOM_OPT_TOL_GRADIENT     300
GEOM_OPT_TOL_DISPLACEMENT 1200
GEOM_OPT_TOL_ENERGY       100
SYMMETRY                  False
THRESH                    12
SCF_CONVERGENCE           8
MAX_SUB_FILE_NUM          128
MEM_STATIC                400
MEM_TOTAL                 4000
$end
--------------------------------------------------------------

   16   -1510.2737263055      6.79E-09 Convergence criterion met
 Total energy in the final basis set = -1510.27372631
   14   -1510.2763581255      2.15E-09 Convergence criterion met
 Total energy in the final basis set = -1510.27635813
   14   -1510.2784209080      1.30E-09 Convergence criterion met
 Total energy in the final basis set = -1510.27842091
   13   -1510.2796978958      4.80E-09 Convergence criterion met
 Total energy in the final basis set = -1510.27969790
   13   -1510.2808659977      4.28E-09 Convergence criterion met
 Total energy in the final basis set = -1510.28086600
   13   -1510.2819736572      4.63E-09 Convergence criterion met
 Total energy in the final basis set = -1510.28197366
   13   -1510.2829848408      7.84E-09 Convergence criterion met
 Total energy in the final basis set = -1510.28298484
   13   -1510.2838344975      6.81E-09 Convergence criterion met
   11   -1510.2954285774      4.12E-09 Convergence criterion met
 Total energy in the final basis set = -1510.29542858
   10   -1510.2954453212      8.79E-09 Convergence criterion met
 Total energy in the final basis set = -1510.29544532
   10   -1510.2954489702      4.94E-09 Convergence criterion met
 Total energy in the final basis set = -1510.29544897
   10   -1510.2954638259      5.93E-09 Convergence criterion met
 Total energy in the final basis set = -1510.29546383
   10   -1510.2954729130      7.02E-09 Convergence criterion met
 Total energy in the final basis set = -1510.29547291
   10   -1510.2954784488      7.78E-09 Convergence criterion met
 Total energy in the final basis set = -1510.29547845

             Standard Nuclear Orientation (Angstroms)
    I     Atom           X                Y                Z
 ----------------------------------------------------------------
    1      O       3.9039907453    -1.4845992224    -0.7525681394
    2      C       4.0492144073    -0.2416419615    -0.7828107338
    3      C       2.9720263136     0.8378439581    -0.4315036542
    4      C       1.5840225186     0.1906532240    -0.0498512048
    5      C       1.4554117787    -1.3605622174    -0.2645274454
    6      O       1.2248622992    -1.5811913851    -1.6706698356
    7      C       0.7111057415    -2.9520716867    -1.8829860968
    8      C      -0.8584604688    -2.9090169873    -1.8630400714
    9      O      -1.2155934595    -2.2457513234    -0.5870599348
   10      C      -2.6059983442    -1.9059310976    -0.5527979611
   11      C      -2.8453630080    -1.1150981181     0.7869816779
   12      C      -2.3322893748     0.3826970427     0.7721462771
   13      C      -1.8367516656     0.8453696102    -0.6359198713
   14      O      -1.9319171807     0.2315714832    -1.7207876932
   15      O       5.2657768589     0.4143607178    -1.1433821486
   16      O      -1.2532450515     2.1532087927    -0.5133357361
   17      O      -3.4552560786    -2.2806413121    -1.3879205417
   18      C      -0.8419882969     2.6571010804    -1.8455491912
   19      C      -4.3872548822    -0.9068754977     1.0902822513
   20      C      -4.5463381631    -0.5883433575     2.6274774863
   21      C      -3.9792886630     0.8787016079     2.6892617527
   22      C      -3.6685909396     1.1534896468     1.1642611455
   23      O      -4.7068378360     0.3876268101     0.4408099334
   24      H      -2.3456182103    -1.6758932432     1.5972561503
   25      H      -1.5287485993     0.5569015910     1.5091189948
   26      H      -5.0389123459    -1.7076163688     0.6901179959
   27      H      -5.6079513283    -0.6224473119     2.9200212197
   28      H      -3.9811765945    -1.2911688027     3.2601558006
   29      H      -4.7325897482     1.5905940555     3.0624746819
   30      H      -3.0760000480     0.9595133624     3.3146821445
   31      H      -3.6825359327     2.2191054145     0.8625427611
   32      O       1.4133947460    -2.2453197434     0.6155546820
   33      C       6.3087715788    -0.5921254523    -1.4526585379
   34      C       3.3262611619     1.5866820763     0.9256946545
   35      C       2.3441422723     2.8169890811     1.0916643576
   36      C       1.0157180234     2.0990038050     1.5386717091
   37      C       1.4674438827     0.5892235047     1.4807273943
   38      O       2.8718539167     0.6247104164     1.9531863495
   39      H       2.8845983764     1.5449365872    -1.2760607261
   40      H       0.7789201573     0.6600820761    -0.6379754389
   41      H       6.0120641741    -1.2376986777    -2.3044309405
   42      H       4.4024731034     1.8171082208     1.0489608008
   43      H       2.7171027149     3.5058492177     1.8662464598
   44      H       2.2278480297     3.3767802912     0.1496141334
   45      H       0.7337667229     2.3801127680     2.5656084476
   46      H       0.1657183771     2.2927011293     0.8565072632
   47      H       0.8778164498    -0.1249880376     2.0877008241
   48      H       6.5209116913    -1.2395532835    -0.5774736149
   49      H       7.2156592736    -0.0190632117    -1.7194847375
   50      H      -0.3311015027     3.6200001148    -1.6619317353
   51      H      -1.7201131743     2.8205142814    -2.5026886244
   52      H      -0.1480370776     1.9559383058    -2.3523581946
   53      H      -1.2481485229    -2.3231463129    -2.7233398551
   54      H      -1.2809316933    -3.9372243385    -1.9164532427
   55      H       1.0816424272    -3.6221948506    -1.0782172607
   56      H       1.0734296204    -3.3008828179    -2.8711929999
 ----------------------------------------------------------------

   10   -1510.2954792915      8.81E-09 Convergence criterion met
 Total energy in the final basis set = -1510.29547929
 Final energy is   -1510.29547929151
 **  OPTIMIZATION CONVERGED  **

                    Orbital Energies (a.u.)
 --------------------------------------------------------------

 Alpha MOs
 -- Occupied --
-18.953 -18.940 -18.920 -18.912 -18.896 -18.889 -18.883 -18.883
-18.864 -18.859 -10.114 -10.103 -10.093 -10.088 -10.077 -10.068
-10.064 -10.063 -10.061 -10.059 -10.058 -10.052 -10.044 -10.038
-10.034 -10.028 -10.022 -10.020 -10.017 -10.006  -1.027  -1.017
 -1.004  -0.991  -0.972  -0.967  -0.952  -0.941  -0.929  -0.920
 -0.766  -0.761  -0.726  -0.720  -0.712  -0.705  -0.692  -0.673
 -0.665  -0.612  -0.597  -0.576  -0.547  -0.542  -0.538  -0.532
 -0.515  -0.508  -0.485  -0.476  -0.466  -0.459  -0.455  -0.451
 -0.435  -0.430  -0.423  -0.419  -0.416  -0.413  -0.407  -0.403
 -0.389  -0.384  -0.375  -0.366  -0.360  -0.357  -0.354  -0.345
 -0.344  -0.340  -0.333  -0.332  -0.329  -0.326  -0.320  -0.317
 -0.312  -0.305  -0.304  -0.300  -0.296  -0.279  -0.278  -0.272
 -0.271  -0.263  -0.256  -0.244  -0.236  -0.234  -0.231  -0.194
 -0.183  -0.168  -0.166  -0.159  -0.157  -0.147  -0.144  -0.141
 -0.139

          Ground-State Mulliken Net Atomic Charges

     Atom                 Charge (a.u.)
  ----------------------------------------
      1 O                    -0.204013
      2 C                     0.214612
      3 C                    -0.077649
      4 C                    -0.083211
      5 C                     0.221875
      6 O                    -0.180360
      7 C                    -0.050184
      8 C                    -0.047542
      9 O                    -0.180304
     10 C                     0.216669
     11 C                    -0.081334
     12 C                    -0.078538
     13 C                     0.215884
     14 O                    -0.199323
     15 O                    -0.169545
     16 O                    -0.169958
     17 O                    -0.214378
     18 C                    -0.129454
     19 C                     0.024545
     20 C                    -0.143518
     21 C                    -0.143950
     22 C                     0.025132
     23 O                    -0.189310
     24 H                     0.087131
     25 H                     0.089214
     26 H                     0.090355
     27 H                     0.078538
     28 H                     0.074737
     29 H                     0.078593
     30 H                     0.074388
     31 H                     0.084072
     32 O                    -0.214706
     33 C                    -0.128188
     34 C                     0.024817
     35 C                    -0.144356
     36 C                    -0.157493
     37 C                     0.022435
     38 O                    -0.190808
     39 H                     0.084417
     40 H                     0.080187
     41 H                     0.090464
     42 H                     0.084393
     43 H                     0.076208
     44 H                     0.069379
     45 H                     0.070860
     46 H                     0.088100
     47 H                     0.084732
     48 H                     0.091889
     49 H                     0.091389
     50 H                     0.092909
     51 H                     0.093829
     52 H                     0.093369
     53 H                     0.093061
     54 H                     0.083840
     55 H                     0.100342
     56 H                     0.085757
  ----------------------------------------
  Sum of atomic charges =    -0.000000

                    Cartesian Multipole Moments
 -----------------------------------------------------------------
    Charge (ESU x 10^10)
                -0.0000
    Dipole Moment (Debye)
         X       1.3541      Y       2.6080      Z      -0.2706
       Tot       2.9510
    Quadrupole Moments (Debye-Ang)
        XX    -160.3373     XY       0.4990     YY    -154.4711
        XZ     -16.5031     YZ       0.3063     ZZ    -157.5205

 Total job time:  109.89s(wall), 5240.46s(cpu)
        *  Thank you very much for using Q-Chem.  Have a nice day.  *
