 Q-Chem 5.0, Q-Chem, Inc., Pleasanton, CA (2017)
 Q-Chem 5.0.1 for Intel X86 EM64T Linux

User input:
--------------------------------------------------------------
$molecule
0  1
O -3.94934 -3.66094 2.70899
C -3.26408 -4.56952 2.26188
C -3.36658 -6.02376 2.66595
C -4.4044 -6.38252 3.74209
C -5.34599 -5.2772 4.16606
O -4.64925 -4.11545 4.34014
C -5.48955 -2.95786 4.39619
C -5.76348 -2.57695 5.8474
O -7.08897 -2.98658 6.21907
C -7.55072 -2.47656 7.38775
C -8.99036 -2.84179 7.66108
C -9.31498 -3.1376 9.1326
C -8.27726 -2.6881 10.14146
O -7.13908 -2.32962 9.87575
O -2.34547 -4.28363 1.30232
O -8.63716 -2.78471 11.44917
O -7.11559 -1.39191 7.768
C -7.81875 -2.45206 12.50824
C -9.97836 -1.69427 7.37114
C -11.37001 -2.26776 7.11145
C -11.74308 -2.73944 8.50188
C -10.54222 -2.2171 9.30031
O -10.14964 -1.05522 8.6108
H -9.25241 -3.70624 7.00775
H -9.54166 -4.20761 9.33343
H -9.66227 -1.04682 6.52393
H -12.02606 -1.41 6.83863
H -11.43164 -3.04122 6.31595
H -12.67973 -2.22211 8.80699
H -11.85799 -3.8391 8.61681
H -10.82837 -2.07268 10.36526
O -6.56937 -5.35432 4.11809
C -2.1198 -3.02106 0.79549
C -3.85358 -6.91584 1.50744
C -3.3983 -8.35589 1.73549
C -4.30289 -8.76024 2.8809
C -5.16848 -7.50184 3.01063
O -5.24576 -7.00604 1.69609
H -2.3421 -6.32933 2.97723
H -3.90904 -6.73332 4.67434
H -1.79366 -2.33564 1.60683
H -3.51797 -6.56316 0.50764
H -3.68961 -8.93894 0.83242
H -2.31011 -8.48518 1.91991
H -4.92082 -9.62499 2.55124
H -3.7841 -9.00489 3.83305
H -6.1346 -7.75496 3.49936
H -3.04454 -2.6284 0.32103
H -1.31976 -3.07432 0.02897
H -8.36458 -2.62559 13.4582
H -7.53452 -1.37961 12.44941
H -6.90517 -3.08423 12.49978
H -4.97415 -2.91687 6.55401
H -5.75959 -1.46062 5.84903
H -6.37649 -2.94409 3.7211
H -4.86244 -2.10609 4.04096
$end

$opt
CONSTRAINT
tors           1           2           3           4      -0.942
tors           3           4           5           6     -44.050
tors           4           5           6           7    +164.593
tors           5           6           7           8     +97.090
tors           6           7           8           9    -103.351
tors           7           8           9          10    -167.453
tors           8           9          10          11    +174.780
tors           9          10          11          12    +142.331
tors          11          12          13          14     -13.035
ENDCONSTRAINT
$end

$rem
JOBTYPE                   OPT
METHOD                    B3LYP
DFT_D                     d3_op
BASIS                     STO-3G
GEOM_OPT_MAX_CYCLES       100
GEOM_OPT_TOL_GRADIENT     300
GEOM_OPT_TOL_DISPLACEMENT 1200
GEOM_OPT_TOL_ENERGY       100
SYMMETRY                  False
THRESH                    12
SCF_CONVERGENCE           8
MAX_SUB_FILE_NUM          128
MEM_STATIC                400
MEM_TOTAL                 4000
$end
--------------------------------------------------------------

   16   -1510.0591549899      5.16E-09 Convergence criterion met
 Total energy in the final basis set = -1510.05915499
   14   -1510.1413224897      6.39E-09 Convergence criterion met
 Total energy in the final basis set = -1510.14132249
   14   -1510.1917331724      6.19E-09 Convergence criterion met
 Total energy in the final basis set = -1510.19173317
   14   -1510.2244774486      7.03E-09 Convergence criterion met
 Total energy in the final basis set = -1510.22447745
   14   -1510.2425598899      4.14E-09 Convergence criterion met
 Total energy in the final basis set = -1510.24255989
   14   -1510.2527020582      2.60E-09 Convergence criterion met
 Total energy in the final basis set = -1510.25270206
   13   -1510.2589289716      8.81E-09 Convergence criterion met
 Total energy in the final basis set = -1510.25892897
   12   -1510.2627986754      8.65E-09 Convergence criterion met
   12   -1510.2734008110      2.89E-09 Convergence criterion met
 Total energy in the final basis set = -1510.27340081
   10   -1510.2734408851      7.60E-09 Convergence criterion met
 Total energy in the final basis set = -1510.27344089
   11   -1510.2734724600      5.55E-09 Convergence criterion met
 Total energy in the final basis set = -1510.27347246
   10   -1510.2734778490      7.92E-09 Convergence criterion met
 Total energy in the final basis set = -1510.27347785
   11   -1510.2734919072      3.39E-09 Convergence criterion met
 Total energy in the final basis set = -1510.27349191
    9   -1510.2734958699      6.31E-09 Convergence criterion met
 Total energy in the final basis set = -1510.27349587

             Standard Nuclear Orientation (Angstroms)
    I     Atom           X                Y                Z
 ----------------------------------------------------------------
    1      O       3.9247522825    -1.1505616573     1.3781412799
    2      C       4.7730096908    -1.1089037654     0.4613599302
    3      C       4.7923984504    -0.1733533513    -0.8023930622
    4      C       3.5462347815     0.7908619387    -0.8657340763
    5      C       2.2407807605     0.2915196762    -0.1520109828
    6      O       2.0419068186    -1.0913330662    -0.4841741146
    7      C       1.0594358056    -1.7149804941     0.4299679226
    8      C      -0.3815297504    -1.7445696944    -0.2020982683
    9      O      -1.1753278739    -0.6678021948     0.4381786764
   10      C      -2.5648637171    -0.8285406103     0.1224744099
   11      C      -3.3675794603     0.2522541800     0.9317925385
   12      C      -4.5879990967     0.8835014687     0.1514856933
   13      C      -4.5188851908     0.7524271029    -1.4090012313
   14      O      -3.5426713412     0.4218784725    -2.1151550428
   15      O       5.9384715861    -1.9392697020     0.4139526196
   16      O      -5.8028265541     1.1071808528    -1.9377906170
   17      O      -3.0206582240    -1.7689559104    -0.5623617041
   18      C      -5.7866600450     1.0054648165    -3.4149470753
   19      C      -4.1569550243    -0.5197099960     2.0805156487
   20      C      -4.8598810137     0.5201344783     3.0424417188
   21      C      -6.1199318708     0.9284188968     2.1911324473
   22      C      -5.8243588623     0.1588973285     0.8462893299
   23      O      -5.2752031268    -1.1301494088     1.3235465727
   24      H      -2.6695417262     1.0133147838     1.3213893467
   25      H      -4.6389442333     1.9677305699     0.3669529495
   26      H      -3.5640562593    -1.3026189791     2.5921175234
   27      H      -5.1462873869     0.0399190976     3.9912688748
   28      H      -4.2042160490     1.3774598651     3.2649294478
   29      H      -7.0500053544     0.5527449876     2.6473310529
   30      H      -6.2096545957     2.0168807581     2.0465846881
   31      H      -6.6938106499    -0.0022936349     0.1801568872
   32      O       1.5007841561     0.9529680158     0.6057841670
   33      C       5.9798019029    -2.8211647203     1.6030060277
   34      C       5.9363771498     0.9007788760    -0.5418697553
   35      C       6.0610152330     1.8910110952    -1.7675892524
   36      C       4.8568576468     2.8718070544    -1.5037933381
   37      C       4.1546335580     2.1425733728    -0.2949521715
   38      O       5.3117766986     1.7169135639     0.5299367013
   39      H       4.9366909640    -0.7682503210    -1.7215411949
   40      H       3.2774066933     0.9378554199    -1.9293668583
   41      H       5.0974073640    -3.4920612421     1.6443709301
   42      H       6.8902107157     0.4603733771    -0.1915410303
   43      H       7.0287501859     2.4162727605    -1.7447943719
   44      H       5.9710485474     1.3616281112    -2.7299340455
   45      H       5.2131643768     3.8678935116    -1.1951009470
   46      H       4.1943801433     2.9854539260    -2.3767887704
   47      H       3.4443217527     2.7469768830     0.3024654223
   48      H       6.0206914335    -2.2362850592     2.5445380406
   49      H       6.8995522949    -3.4262822353     1.5023269710
   50      H      -6.8054940287     1.2733193100    -3.7505282902
   51      H      -5.5431274488    -0.0233464616    -3.7505261963
   52      H      -5.0524609975     1.7046473512    -3.8652337567
   53      H      -0.3148572309    -1.5860954953    -1.3015109833
   54      H      -0.8677636362    -2.7297443513    -0.0317406238
   55      H       1.0206820543    -1.1703806918     1.3970938367
   56      H       1.4184748931    -2.7511744938     0.5955000924
 ----------------------------------------------------------------

    9   -1510.2734967526      4.98E-09 Convergence criterion met
 Total energy in the final basis set = -1510.27349675
 Final energy is   -1510.27349675258
 **  OPTIMIZATION CONVERGED  **

                    Orbital Energies (a.u.)
 --------------------------------------------------------------

 Alpha MOs
 -- Occupied --
-18.935 -18.931 -18.921 -18.920 -18.884 -18.884 -18.876 -18.873
-18.870 -18.860 -10.099 -10.096 -10.094 -10.087 -10.065 -10.065
-10.062 -10.062 -10.059 -10.057 -10.056 -10.056 -10.038 -10.034
-10.033 -10.031 -10.020 -10.018 -10.018 -10.017  -1.013  -1.009
 -1.003  -0.997  -0.968  -0.967  -0.937  -0.934  -0.929  -0.921
 -0.762  -0.758  -0.724  -0.719  -0.710  -0.703  -0.692  -0.663
 -0.659  -0.610  -0.595  -0.576  -0.542  -0.540  -0.536  -0.534
 -0.511  -0.509  -0.480  -0.471  -0.459  -0.454  -0.450  -0.446
 -0.431  -0.430  -0.419  -0.413  -0.409  -0.408  -0.406  -0.400
 -0.387  -0.373  -0.372  -0.367  -0.359  -0.355  -0.348  -0.346
 -0.341  -0.338  -0.333  -0.329  -0.326  -0.320  -0.314  -0.310
 -0.309  -0.304  -0.299  -0.298  -0.294  -0.281  -0.276  -0.272
 -0.268  -0.254  -0.252  -0.243  -0.241  -0.232  -0.230  -0.180
 -0.175  -0.167  -0.165  -0.153  -0.152  -0.147  -0.143  -0.141
 -0.136

          Ground-State Mulliken Net Atomic Charges

     Atom                 Charge (a.u.)
  ----------------------------------------
      1 O                    -0.212394
      2 C                     0.216515
      3 C                    -0.074858
      4 C                    -0.080845
      5 C                     0.217069
      6 O                    -0.179053
      7 C                    -0.047652
      8 C                    -0.050623
      9 O                    -0.171315
     10 C                     0.211987
     11 C                    -0.078935
     12 C                    -0.079553
     13 C                     0.212018
     14 O                    -0.209359
     15 O                    -0.172095
     16 O                    -0.172845
     17 O                    -0.212466
     18 C                    -0.128299
     19 C                     0.025557
     20 C                    -0.145189
     21 C                    -0.142213
     22 C                     0.025555
     23 O                    -0.187638
     24 H                     0.088853
     25 H                     0.084018
     26 H                     0.081782
     27 H                     0.077709
     28 H                     0.074508
     29 H                     0.077479
     30 H                     0.073435
     31 H                     0.089295
     32 O                    -0.208947
     33 C                    -0.128210
     34 C                     0.023273
     35 C                    -0.145495
     36 C                    -0.141477
     37 C                     0.023290
     38 O                    -0.192539
     39 H                     0.088245
     40 H                     0.082497
     41 H                     0.088276
     42 H                     0.085206
     43 H                     0.078042
     44 H                     0.073625
     45 H                     0.077760
     46 H                     0.073514
     47 H                     0.091464
     48 H                     0.090460
     49 H                     0.090401
     50 H                     0.089576
     51 H                     0.091489
     52 H                     0.087658
     53 H                     0.090223
     54 H                     0.088614
     55 H                     0.105370
     56 H                     0.087236
  ----------------------------------------
  Sum of atomic charges =    -0.000000

                    Cartesian Multipole Moments
 -----------------------------------------------------------------
    Charge (ESU x 10^10)
                 0.0000
    Dipole Moment (Debye)
         X       1.0645      Y       0.6771      Z      -0.8039
       Tot       1.4960
    Quadrupole Moments (Debye-Ang)
        XX    -144.9428     XY     -15.3506     YY    -155.3618
        XZ      -5.2776     YZ      -6.9879     ZZ    -152.2721

 Total job time:  71.23s(wall), 3385.84s(cpu)
        *  Thank you very much for using Q-Chem.  Have a nice day.  *
