 Q-Chem 5.0, Q-Chem, Inc., Pleasanton, CA (2017)
 Q-Chem 5.0.1 for Intel X86 EM64T Linux

User input:
--------------------------------------------------------------
$molecule
0  1
O -1.288338841 -0.7822069535 0.7225775544
C -2.3530200526 -1.4396658099 0.6919199111
C -3.8196996922 -0.890348337 0.7605725885
C -3.8911842417 0.6873573198 0.9061452516
C -2.4733072859 1.3750900529 0.9239239423
O -2.0298316836 1.5470216142 -0.4277673869
C -0.7419480511 2.2754619531 -0.4453012614
C -0.1048050642 2.023551475 -1.8618717327
O 1.0674630028 1.1059952298 -1.961739525
C 1.8590484736 0.8829532809 -0.8042616718
C 2.9951809552 -0.1142719592 -1.2345086283
C 4.2641615796 -0.0603632019 -0.2922084968
C 4.3315091464 1.2290562993 0.6084639399
O 4.2320985439 2.4120174289 0.2157604396
O -2.4024572022 -2.8634949276 0.576648553
O 4.5511028282 0.8562959713 1.9716295777
O 1.6914149237 1.3216744857 0.3589784901
C 4.5602010096 2.0662562549 2.8249807407
C 2.4838617903 -1.5920714153 -0.9385181063
C 3.5090884167 -2.6315035493 -1.5452510911
C 4.6666965677 -2.5782360823 -0.479490932
C 4.1352555176 -1.4435021482 0.4806115478
O 2.6770325549 -1.7053902116 0.5245078151
H 3.2403762347 0.0413269468 -2.2992751191
H 5.1795482515 -0.0578879122 -0.9134994592
H 1.4229558469 -1.7635013649 -1.2064785072
H 3.055668663 -3.633631972 -1.6047863871
H 3.8450077605 -2.3355685482 -2.5521068898
H 4.7532243039 -3.5314889049 0.0662638924
H 5.6457251758 -2.3336130466 -0.9213466058
H 4.5608210039 -1.4334031293 1.5018250964
O -1.8842352037 1.8265018743 1.9298252498
C -1.0279236797 -3.408271725 0.4669277899
C -4.6011821795 -1.1081778038 -0.6083891736
C -6.1433446528 -0.925237599 -0.3241013976
C -6.2356117973 0.6370539356 -0.1585608169
C -4.7300039104 1.0607411479 -0.3884042658
O -4.2489422911 0.0902608728 -1.4008641164
H -4.3392035846 -1.4009464268 1.5919968913
H -4.4115963906 0.9733884895 1.8367340314
H -0.3788070732 -3.0594033774 1.2955906263
H -4.3237692727 -2.0343912262 -1.148111468
H -6.7373781128 -1.2771711161 -1.1825491596
H -6.4668355816 -1.4704169788 0.5768474643
H -6.8825866485 1.0865157367 -0.9285698103
H -6.6063231389 0.9386799152 0.8342386047
H -4.5814432946 2.0971338606 -0.747031281
H -0.555060129 -3.1167486464 -0.4932607265
H -1.1310664899 -4.5081528882 0.5074067605
H 4.7037394932 1.7080527453 3.8608941752
H 3.6011315594 2.6179965422 2.7498820497
H 5.3862735558 2.7544570582 2.5514003825
H -0.8753782565 1.5795545736 -2.5282810279
H 0.2145552086 2.9936326694 -2.3033385906
H -0.0279129987 1.9271623223 0.335095759
H -0.9214563627 3.3645142243 -0.3140634484
$end

$rem
JOBTYPE                   OPT
METHOD                    B3LYP
DFT_D                     d3_op
BASIS                     STO-3G
GEOM_OPT_MAX_CYCLES       100
GEOM_OPT_TOL_GRADIENT     300
GEOM_OPT_TOL_DISPLACEMENT 1200
GEOM_OPT_TOL_ENERGY       100
SYMMETRY                  False
THRESH                    12
SCF_CONVERGENCE           8
MAX_SUB_FILE_NUM          128
MEM_STATIC                400
MEM_TOTAL                 4000
$end
--------------------------------------------------------------

   15   -1510.2744120057      9.44E-09 Convergence criterion met
 Total energy in the final basis set = -1510.27441201
   15   -1510.2631516319      5.04E-09 Convergence criterion met
 Total energy in the final basis set = -1510.26315163
   15   -1510.2753176230      2.82E-09 Convergence criterion met
 Total energy in the final basis set = -1510.27531762
   14   -1510.2764618782      3.54E-09 Convergence criterion met
 Total energy in the final basis set = -1510.27646188
   13   -1510.2784969007      8.65E-09 Convergence criterion met
 Total energy in the final basis set = -1510.27849690
   13   -1510.2806561626      9.45E-09 Convergence criterion met
 Total energy in the final basis set = -1510.28065616
   13   -1510.2833510762      9.51E-09 Convergence criterion met
 Total energy in the final basis set = -1510.28335108
   14   -1510.2734172002      4.63E-09 Convergence criterion met
   12   -1510.2985646401      9.13E-09 Convergence criterion met
 Total energy in the final basis set = -1510.29856464
   12   -1510.2985781195      4.46E-09 Convergence criterion met
 Total energy in the final basis set = -1510.29857812
   12   -1510.2985635046      2.74E-09 Convergence criterion met
 Total energy in the final basis set = -1510.29856350
   12   -1510.2986041038      3.82E-09 Convergence criterion met
 Total energy in the final basis set = -1510.29860410
   11   -1510.2985941433      6.99E-09 Convergence criterion met
 Total energy in the final basis set = -1510.29859414
   11   -1510.2986086260      4.46E-09 Convergence criterion met
 Total energy in the final basis set = -1510.29860863

             Standard Nuclear Orientation (Angstroms)
    I     Atom           X                Y                Z
 ----------------------------------------------------------------
    1      O      -0.6582734981    -0.6649548217     0.1505095059
    2      C      -1.5706266425    -1.2881314193     0.7405846956
    3      C      -2.9738707116    -0.7154757257     1.1381444506
    4      C      -3.0608507220     0.8562343767     0.9781922543
    5      C      -1.6931865277     1.5592787885     0.6336249477
    6      O      -1.6325277254     1.8371876467    -0.7701236300
    7      C      -0.4199155425     2.6180325634    -1.1042705977
    8      C       0.2304107278     2.0496616453    -2.4134911568
    9      O       0.9621765000     0.7821068524    -2.1880677571
   10      C       2.2582693169     1.0432081959    -1.6421271984
   11      C       3.0150842201    -0.3198628772    -1.4427710531
   12      C       3.9505322181    -0.3425483237    -0.1606764234
   13      C       3.7671722036     0.9171147842     0.7617511024
   14      O       4.6527469359     1.7069994705     1.1543955835
   15      O      -1.5301433709    -2.6512014370     1.1447299973
   16      O       2.3859091725     0.9923555441     1.1125294154
   17      O       2.7114102238     2.1892018885    -1.4264749857
   18      C       2.1066352944     2.1961622488     1.9275987293
   19      C       2.0516777907    -1.5423311703    -1.1529063226
   20      C       2.8332409293    -2.8743349204    -1.4723751428
   21      C       3.8476883426    -2.9251027060    -0.2681541772
   22      C       3.4148757543    -1.6511859914     0.5604450977
   23      O       1.9545687362    -1.5586460326     0.3263143835
   24      H       3.6112017931    -0.5028420948    -2.3567689707
   25      H       5.0175516507    -0.4227450107    -0.4317053162
   26      H       1.0426838291    -1.4377683541    -1.5950658559
   27      H       2.1476493415    -3.7366856384    -1.4584120287
   28      H       3.3350891404    -2.8378549798    -2.4522931534
   29      H       3.7168800369    -3.8388883963     0.3332616884
   30      H       4.8980178778    -2.8650454629    -0.5953397621
   31      H       3.6292867189    -1.6998222719     1.6455907617
   32      O      -0.8583176442     1.9592236649     1.4776134740
   33      C      -0.2733514647    -3.3187378910     0.7197911063
   34      C      -4.0785255811    -1.1827112635     0.0925913595
   35      C      -5.5053315344    -0.8512908318     0.6834214199
   36      C      -5.5700865601     0.7060330481     0.4682727860
   37      C      -4.1515172930     0.9830844628    -0.1688064309
   38      O      -3.9181948433    -0.2121187812    -1.0131674088
   39      H      -3.2218106325    -1.0459386984     2.1624366714
   40      H      -3.4160198964     1.3126752729     1.9196962482
   41      H       0.6075295455    -2.6233622404     0.7136686376
   42      H      -3.9477810298    -2.2202190284    -0.2719243054
   43      H      -6.2894771649    -1.3725557615     0.1116198236
   44      H      -5.5909211740    -1.1401672474     1.7432711221
   45      H      -6.3682132259     0.9819107707    -0.2392111570
   46      H      -5.7231273095     1.2604853337     1.4080557889
   47      H      -4.0723628878     1.9051618234    -0.7751175750
   48      H      -0.4056423371    -3.7434331400    -0.2967075085
   49      H      -0.1134570710    -4.1494089773     1.4316705141
   50      H       0.9981587799     2.2649811554     1.9563728745
   51      H       2.5402936372     3.1038734956     1.4619814680
   52      H       2.5170364050     2.0929173246     2.9526957037
   53      H      -0.5620042148     1.8111359740    -3.1516974359
   54      H       0.9131238520     2.8214257804    -2.8311564211
   55      H       0.2983558091     2.5873771287    -0.2591882341
   56      H      -0.7148469048     3.6758965959    -1.2833356921
 ----------------------------------------------------------------

    9   -1510.2986079880      8.34E-09 Convergence criterion met
 Total energy in the final basis set = -1510.29860799
 Final energy is   -1510.29860798802
 **  OPTIMIZATION CONVERGED  **

                    Orbital Energies (a.u.)
 --------------------------------------------------------------

 Alpha MOs
 -- Occupied --
-18.934 -18.926 -18.926 -18.916 -18.902 -18.885 -18.873 -18.871
-18.865 -18.859 -10.099 -10.098 -10.094 -10.085 -10.072 -10.065
-10.064 -10.058 -10.058 -10.056 -10.037 -10.034 -10.034 -10.033
-10.033 -10.032 -10.023 -10.022 -10.019 -10.018  -1.012  -1.006
 -0.999  -0.994  -0.976  -0.967  -0.936  -0.930  -0.928  -0.920
 -0.763  -0.759  -0.726  -0.720  -0.714  -0.705  -0.693  -0.650
 -0.642  -0.611  -0.594  -0.576  -0.545  -0.542  -0.538  -0.534
 -0.513  -0.505  -0.481  -0.472  -0.464  -0.455  -0.443  -0.436
 -0.433  -0.432  -0.421  -0.413  -0.403  -0.400  -0.397  -0.394
 -0.391  -0.371  -0.369  -0.365  -0.360  -0.350  -0.346  -0.344
 -0.339  -0.335  -0.330  -0.328  -0.326  -0.323  -0.317  -0.310
 -0.308  -0.302  -0.301  -0.298  -0.292  -0.283  -0.277  -0.273
 -0.270  -0.253  -0.249  -0.241  -0.234  -0.231  -0.228  -0.180
 -0.168  -0.162  -0.160  -0.153  -0.151  -0.147  -0.145  -0.141
 -0.137

          Ground-State Mulliken Net Atomic Charges

     Atom                 Charge (a.u.)
  ----------------------------------------
      1 O                    -0.203068
      2 C                     0.213592
      3 C                    -0.078235
      4 C                    -0.080583
      5 C                     0.223921
      6 O                    -0.170120
      7 C                    -0.051765
      8 C                    -0.046022
      9 O                    -0.166155
     10 C                     0.216658
     11 C                    -0.076481
     12 C                    -0.078145
     13 C                     0.210350
     14 O                    -0.215405
     15 O                    -0.173855
     16 O                    -0.169789
     17 O                    -0.218644
     18 C                    -0.142945
     19 C                     0.026548
     20 C                    -0.144672
     21 C                    -0.145233
     22 C                     0.027616
     23 O                    -0.178062
     24 H                     0.083741
     25 H                     0.083796
     26 H                     0.104893
     27 H                     0.076592
     28 H                     0.074687
     29 H                     0.077454
     30 H                     0.075732
     31 H                     0.085354
     32 O                    -0.225506
     33 C                    -0.153456
     34 C                     0.024965
     35 C                    -0.144022
     36 C                    -0.144176
     37 C                     0.025525
     38 O                    -0.189381
     39 H                     0.086129
     40 H                     0.083129
     41 H                     0.123159
     42 H                     0.084206
     43 H                     0.077279
     44 H                     0.073864
     45 H                     0.077035
     46 H                     0.072906
     47 H                     0.087563
     48 H                     0.070001
     49 H                     0.077562
     50 H                     0.113156
     51 H                     0.084797
     52 H                     0.078277
     53 H                     0.094969
     54 H                     0.092322
     55 H                     0.106642
     56 H                     0.081299
  ----------------------------------------
  Sum of atomic charges =    -0.000000

                    Cartesian Multipole Moments
 -----------------------------------------------------------------
    Charge (ESU x 10^10)
                 0.0000
    Dipole Moment (Debye)
         X      -1.6691      Y      -1.8686      Z      -0.8801
       Tot       2.6556
    Quadrupole Moments (Debye-Ang)
        XX    -155.8307     XY     -14.9355     YY    -153.7056
        XZ      -9.0171     YZ      -2.1212     ZZ    -156.6518

 Total job time:  133.16s(wall), 6350.82s(cpu)
        *  Thank you very much for using Q-Chem.  Have a nice day.  *
