 Q-Chem 5.0, Q-Chem, Inc., Pleasanton, CA (2017)
 Q-Chem 5.0.1 for Intel X86 EM64T Linux

User input:
--------------------------------------------------------------
$molecule
0  1
O -3.94934 -3.66094 2.70899
C -3.26408 -4.56952 2.26188
C -3.36658 -6.02376 2.66595
C -4.4044 -6.38252 3.74209
C -5.34599 -5.2772 4.16606
O -6.3859 -5.1901 3.2849
C -7.36898 -4.22256 3.6679
C -8.24317 -3.85971 2.47196
O -7.91278 -2.54185 2.00617
C -7.31664 -1.73367 2.91755
C -6.9948 -0.36426 2.3682
C -6.82712 0.73505 3.42728
C -6.64986 0.25637 4.85422
O -7.38151 -0.53388 5.43279
O -2.34691 -4.28217 1.30139
O -5.5319 0.6679 5.51429
O -8.15161 -1.69757 3.79424
C -5.19309 0.28634 6.79591
C -5.64243 -0.27482 1.63783
C -5.6972 0.85978 0.6187
C -5.74398 2.06373 1.54028
C -5.52765 1.38095 2.89908
O -4.75036 0.24673 2.59464
H -7.81666 -0.09507 1.66288
H -7.7046 1.41809 3.43712
H -5.3381 -1.22639 1.14941
H -4.71799 0.85359 0.08764
H -6.5163 0.8062 -0.13032
H -4.89637 2.73551 1.27972
H -6.70021 2.63061 1.53199
H -5.08286 2.10559 3.61497
O -5.33775 -4.80204 5.29595
C -2.12996 -3.01946 0.79012
C -3.82653 -6.94345 1.51712
C -3.33979 -8.36947 1.77152
C -4.24149 -8.77669 2.91985
C -5.13678 -7.53665 3.02402
O -5.21635 -7.06855 1.69817
H -2.34118 -6.31418 2.9891
H -3.90033 -6.73467 4.67039
H -1.8089 -2.32857 1.59886
H -3.49282 -6.59662 0.51482
H -3.61278 -8.97365 0.87665
H -2.24999 -8.47182 1.96315
H -4.83778 -9.66052 2.60136
H -3.7222 -8.99416 3.87819
H -6.10078 -7.79214 3.51661
H -3.05759 -2.63444 0.31467
H -1.32976 -3.06962 0.0236
H -4.23656 0.77156 7.07878
H -5.06327 -0.81604 6.84501
H -5.98151 0.60477 7.51093
H -8.1801 -4.61497 1.65949
H -9.31029 -3.81212 2.78754
H -7.08577 -3.53131 4.48877
H -8.06786 -4.8537 4.26186
$end

$opt
CONSTRAINT
tors           1           2           3           4      -0.942
tors           3           4           5           6     +82.906
tors           4           5           6           7    +176.115
tors           5           6           7           8    +162.234
tors           6           7           8           9    -106.996
tors           7           8           9          10     -22.596
tors           8           9          10          11    -180.000
tors           9          10          11          12    +157.908
tors          11          12          13          14     -51.696
ENDCONSTRAINT
$end

$rem
JOBTYPE                   OPT
METHOD                    B3LYP
DFT_D                     d3_op
BASIS                     STO-3G
GEOM_OPT_MAX_CYCLES       100
GEOM_OPT_TOL_GRADIENT     300
GEOM_OPT_TOL_DISPLACEMENT 1200
GEOM_OPT_TOL_ENERGY       100
SYMMETRY                  False
THRESH                    12
SCF_CONVERGENCE           8
MAX_SUB_FILE_NUM          128
MEM_STATIC                400
MEM_TOTAL                 4000
$end
--------------------------------------------------------------

   16   -1510.0147589743      4.36E-09 Convergence criterion met
 Total energy in the final basis set = -1510.01475897
   16   -1510.1068960545      2.25E-09 Convergence criterion met
 Total energy in the final basis set = -1510.10689605
   15   -1510.1609373577      7.41E-09 Convergence criterion met
 Total energy in the final basis set = -1510.16093736
   15   -1510.1967857880      4.81E-09 Convergence criterion met
 Total energy in the final basis set = -1510.19678579
   15   -1510.2188504289      1.76E-09 Convergence criterion met
 Total energy in the final basis set = -1510.21885043
   14   -1510.2331547487      6.52E-09 Convergence criterion met
 Total energy in the final basis set = -1510.23315475
   14   -1510.2436025337      3.14E-09 Convergence criterion met
 Total energy in the final basis set = -1510.24360253
   13   -1510.2514869017      8.22E-09 Convergence criterion met
   11   -1510.2742062479      7.29E-09 Convergence criterion met
 Total energy in the final basis set = -1510.27420625
   11   -1510.2742666466      2.59E-09 Convergence criterion met
 Total energy in the final basis set = -1510.27426665
   11   -1510.2743073347      2.91E-09 Convergence criterion met
 Total energy in the final basis set = -1510.27430733
   10   -1510.2743340183      7.14E-09 Convergence criterion met
 Total energy in the final basis set = -1510.27433402
   10   -1510.2743435321      4.32E-09 Convergence criterion met
 Total energy in the final basis set = -1510.27434353
   10   -1510.2743474246      8.14E-09 Convergence criterion met
 Total energy in the final basis set = -1510.27434742

             Standard Nuclear Orientation (Angstroms)
    I     Atom           X                Y                Z
 ----------------------------------------------------------------
    1      O      -1.2883388410    -0.7822069535     0.7225775544
    2      C      -2.3530200526    -1.4396658099     0.6919199111
    3      C      -3.8196996922    -0.8903483370     0.7605725885
    4      C      -3.8911842417     0.6873573198     0.9061452516
    5      C      -2.4733072859     1.3750900529     0.9239239423
    6      O      -2.0298316836     1.5470216142    -0.4277673869
    7      C      -0.7419480511     2.2754619531    -0.4453012614
    8      C      -0.1048050642     2.0235514750    -1.8618717327
    9      O       1.0674630028     1.1059952298    -1.9617395250
   10      C       1.8590484736     0.8829532809    -0.8042616718
   11      C       2.9951809552    -0.1142719592    -1.2345086283
   12      C       4.2641615796    -0.0603632019    -0.2922084968
   13      C       4.3315091464     1.2290562993     0.6084639399
   14      O       4.2320985439     2.4120174289     0.2157604396
   15      O      -2.4024572022    -2.8634949276     0.5766485530
   16      O       4.5511028282     0.8562959713     1.9716295777
   17      O       1.6914149237     1.3216744857     0.3589784901
   18      C       4.5602010096     2.0662562549     2.8249807407
   19      C       2.4838617903    -1.5920714153    -0.9385181063
   20      C       3.5090884167    -2.6315035493    -1.5452510911
   21      C       4.6666965677    -2.5782360823    -0.4794909320
   22      C       4.1352555176    -1.4435021482     0.4806115478
   23      O       2.6770325549    -1.7053902116     0.5245078151
   24      H       3.2403762347     0.0413269468    -2.2992751191
   25      H       5.1795482515    -0.0578879122    -0.9134994592
   26      H       1.4229558469    -1.7635013649    -1.2064785072
   27      H       3.0556686630    -3.6336319720    -1.6047863871
   28      H       3.8450077605    -2.3355685482    -2.5521068898
   29      H       4.7532243039    -3.5314889049     0.0662638924
   30      H       5.6457251758    -2.3336130466    -0.9213466058
   31      H       4.5608210039    -1.4334031293     1.5018250964
   32      O      -1.8842352037     1.8265018743     1.9298252498
   33      C      -1.0279236797    -3.4082717250     0.4669277899
   34      C      -4.6011821795    -1.1081778038    -0.6083891736
   35      C      -6.1433446528    -0.9252375990    -0.3241013976
   36      C      -6.2356117973     0.6370539356    -0.1585608169
   37      C      -4.7300039104     1.0607411479    -0.3884042658
   38      O      -4.2489422911     0.0902608728    -1.4008641164
   39      H      -4.3392035846    -1.4009464268     1.5919968913
   40      H      -4.4115963906     0.9733884895     1.8367340314
   41      H      -0.3788070732    -3.0594033774     1.2955906263
   42      H      -4.3237692727    -2.0343912262    -1.1481114680
   43      H      -6.7373781128    -1.2771711161    -1.1825491596
   44      H      -6.4668355816    -1.4704169788     0.5768474643
   45      H      -6.8825866485     1.0865157367    -0.9285698103
   46      H      -6.6063231389     0.9386799152     0.8342386047
   47      H      -4.5814432946     2.0971338606    -0.7470312810
   48      H      -0.5550601290    -3.1167486464    -0.4932607265
   49      H      -1.1310664899    -4.5081528882     0.5074067605
   50      H       4.7037394932     1.7080527453     3.8608941752
   51      H       3.6011315594     2.6179965422     2.7498820497
   52      H       5.3862735558     2.7544570582     2.5514003825
   53      H      -0.8753782565     1.5795545736    -2.5282810279
   54      H       0.2145552086     2.9936326694    -2.3033385906
   55      H      -0.0279129987     1.9271623223     0.3350957590
   56      H      -0.9214563627     3.3645142243    -0.3140634484
 ----------------------------------------------------------------

    9   -1510.2743480637      3.80E-09 Convergence criterion met
 Total energy in the final basis set = -1510.27434806
 Final energy is   -1510.27434806365
 **  OPTIMIZATION CONVERGED  **

                    Orbital Energies (a.u.)
 --------------------------------------------------------------

 Alpha MOs
 -- Occupied --
-18.938 -18.935 -18.926 -18.910 -18.885 -18.884 -18.882 -18.878
-18.860 -18.851 -10.103 -10.101 -10.091 -10.083 -10.068 -10.065
-10.059 -10.058 -10.056 -10.055 -10.054 -10.044 -10.036 -10.033
-10.031 -10.029 -10.019 -10.019 -10.017 -10.017  -1.015  -1.009
 -1.000  -0.990  -0.967  -0.967  -0.939  -0.938  -0.925  -0.916
 -0.760  -0.759  -0.724  -0.719  -0.710  -0.703  -0.690  -0.662
 -0.653  -0.611  -0.593  -0.575  -0.543  -0.542  -0.535  -0.534
 -0.510  -0.508  -0.479  -0.468  -0.461  -0.456  -0.441  -0.440
 -0.432  -0.431  -0.420  -0.411  -0.405  -0.405  -0.402  -0.397
 -0.386  -0.376  -0.374  -0.366  -0.360  -0.352  -0.351  -0.345
 -0.338  -0.333  -0.328  -0.327  -0.324  -0.320  -0.317  -0.311
 -0.308  -0.302  -0.299  -0.298  -0.293  -0.282  -0.277  -0.272
 -0.271  -0.256  -0.247  -0.238  -0.235  -0.232  -0.231  -0.181
 -0.175  -0.166  -0.160  -0.155  -0.148  -0.142  -0.139  -0.138
 -0.132

          Ground-State Mulliken Net Atomic Charges

     Atom                 Charge (a.u.)
  ----------------------------------------
      1 O                    -0.202806
      2 C                     0.213168
      3 C                    -0.078452
      4 C                    -0.081964
      5 C                     0.213903
      6 O                    -0.177172
      7 C                    -0.067639
      8 C                    -0.049352
      9 O                    -0.172174
     10 C                     0.223342
     11 C                    -0.076781
     12 C                    -0.080120
     13 C                     0.214565
     14 O                    -0.219938
     15 O                    -0.170421
     16 O                    -0.169433
     17 O                    -0.205060
     18 C                    -0.127060
     19 C                     0.025304
     20 C                    -0.144880
     21 C                    -0.143393
     22 C                     0.023582
     23 O                    -0.189054
     24 H                     0.086318
     25 H                     0.081671
     26 H                     0.081520
     27 H                     0.075900
     28 H                     0.073712
     29 H                     0.076688
     30 H                     0.072733
     31 H                     0.093525
     32 O                    -0.219923
     33 C                    -0.128578
     34 C                     0.024907
     35 C                    -0.143473
     36 C                    -0.144591
     37 C                     0.026523
     38 O                    -0.188307
     39 H                     0.085885
     40 H                     0.082892
     41 H                     0.098477
     42 H                     0.084937
     43 H                     0.077309
     44 H                     0.073566
     45 H                     0.077079
     46 H                     0.073594
     47 H                     0.084949
     48 H                     0.085506
     49 H                     0.090615
     50 H                     0.089082
     51 H                     0.095288
     52 H                     0.086129
     53 H                     0.098605
     54 H                     0.084006
     55 H                     0.128443
     56 H                     0.076848
  ----------------------------------------
  Sum of atomic charges =     0.000000

                    Cartesian Multipole Moments
 -----------------------------------------------------------------
    Charge (ESU x 10^10)
                 0.0000
    Dipole Moment (Debye)
         X      -0.4557      Y      -2.0914      Z      -1.2402
       Tot       2.4739
    Quadrupole Moments (Debye-Ang)
        XX    -138.7921     XY      -4.0465     YY    -154.1335
        XZ      -3.1293     YZ      -0.0038     ZZ    -160.1080

 Total job time:  77.87s(wall), 3710.72s(cpu)
        *  Thank you very much for using Q-Chem.  Have a nice day.  *
