 Q-Chem 5.0, Q-Chem, Inc., Pleasanton, CA (2017)
 Q-Chem 5.0.1 for Intel X86 EM64T Linux

User input:
--------------------------------------------------------------
$molecule
0  1
O -3.94934 -3.66094 2.70899
C -3.26408 -4.56952 2.26188
C -3.36658 -6.02376 2.66595
C -4.73547 -6.52142 3.15821
C -5.89226 -5.55611 3.02369
O -6.17713 -5.35441 1.70324
C -7.3513 -4.56242 1.49506
C -7.18739 -3.69656 0.25025
O -6.90312 -2.34112 0.63086
C -7.91344 -1.45723 0.43814
C -7.55339 -0.05165 0.8569
C -8.66279 0.98977 0.64966
C -10.05153 0.4356 0.40271
O -10.30232 -0.66138 -0.07511
O -2.19782 -4.24356 1.48397
O -11.07889 1.31379 0.55761
O -8.33644 -1.54614 -0.71061
C -12.40348 1.01576 0.31448
C -7.28145 0.07625 2.36482
C -6.40439 1.2988 2.62352
C -7.38521 2.41383 2.32836
C -8.65958 1.59901 2.07335
O -8.5163 0.47146 2.90247
H -6.6396 0.22769 0.28295
H -8.4492 1.75702 -0.12633
H -6.82036 -0.8314 2.8123
H -6.171 1.30846 3.71249
H -5.45622 1.33541 2.04505
H -7.49298 3.03524 3.24517
H -7.12898 3.05708 1.45883
H -9.55012 2.23305 2.27594
O -6.56049 -5.16105 3.9717
C -1.90485 -2.96368 1.06128
C -3.17627 -6.99267 1.46774
C -2.70222 -8.35576 1.97352
C -3.96799 -8.87141 2.62672
C -4.94377 -7.74974 2.25609
O -4.47432 -7.28743 1.01427
H -2.53276 -6.21085 3.37909
H -4.68312 -6.7952 4.23578
H -1.72754 -2.30173 1.93571
H -2.46897 -6.61844 0.69649
H -2.49105 -8.97948 1.07508
H -1.80186 -8.34084 2.62456
H -4.25696 -9.82483 2.13124
H -3.90948 -9.0164 3.72724
H -5.99448 -8.11403 2.28092
H -2.7418 -2.56284 0.45003
H -0.98694 -2.98729 0.43894
H -13.02246 1.91181 0.52522
H -12.73605 0.1872 0.97576
H -12.54265 0.72702 -0.74927
H -6.43645 -4.09934 -0.46259
H -8.16818 -3.77669 -0.27624
H -7.767 -3.98761 2.35376
H -8.12862 -5.31771 1.24073
$end

$opt
CONSTRAINT
tors           1           2           3           4     +28.085
tors           3           4           5           6     +67.431
tors           4           5           6           7    +173.788
tors           5           6           7           8    +145.932
tors           6           7           8           9    -103.351
tors           7           8           9          10    -107.796
tors           8           9          10          11    -180.000
tors           9          10          11          12    +179.619
tors          11          12          13          14     -25.761
ENDCONSTRAINT
$end

$rem
JOBTYPE                   OPT
METHOD                    B3LYP
DFT_D                     d3_op
BASIS                     STO-3G
GEOM_OPT_MAX_CYCLES       100
GEOM_OPT_TOL_GRADIENT     300
GEOM_OPT_TOL_DISPLACEMENT 1200
GEOM_OPT_TOL_ENERGY       100
SYMMETRY                  False
THRESH                    12
SCF_CONVERGENCE           8
MAX_SUB_FILE_NUM          128
MEM_STATIC                400
MEM_TOTAL                 4000
$end
--------------------------------------------------------------

   16   -1510.0842941778      4.14E-09 Convergence criterion met
 Total energy in the final basis set = -1510.08429418
   15   -1510.1627599098      2.55E-09 Convergence criterion met
 Total energy in the final basis set = -1510.16275991
   14   -1510.2066047942      5.82E-09 Convergence criterion met
 Total energy in the final basis set = -1510.20660479
   15   -1510.2345104695      2.07E-09 Convergence criterion met
 Total energy in the final basis set = -1510.23451047
   14   -1510.2490829780      5.06E-09 Convergence criterion met
 Total energy in the final basis set = -1510.24908298
   13   -1510.2578533577      6.95E-09 Convergence criterion met
 Total energy in the final basis set = -1510.25785336
   13   -1510.2635638865      3.61E-09 Convergence criterion met
 Total energy in the final basis set = -1510.26356389
   12   -1510.2672699450      9.47E-09 Convergence criterion met
   11   -1510.2764316718      5.08E-09 Convergence criterion met
 Total energy in the final basis set = -1510.27643167
   10   -1510.2764427238      8.06E-09 Convergence criterion met
 Total energy in the final basis set = -1510.27644272
    9   -1510.2764494029      8.98E-09 Convergence criterion met
 Total energy in the final basis set = -1510.27644940
    9   -1510.2764529854      8.03E-09 Convergence criterion met
 Total energy in the final basis set = -1510.27645299
    9   -1510.2764544442      4.83E-09 Convergence criterion met
 Total energy in the final basis set = -1510.27645444
    9   -1510.2764559665      3.00E-09 Convergence criterion met
 Total energy in the final basis set = -1510.27645597

             Standard Nuclear Orientation (Angstroms)
    I     Atom           X                Y                Z
 ----------------------------------------------------------------
    1      O      -2.1669883196    -1.5220915656     0.4076978927
    2      C      -3.2228523857    -1.4475804809    -0.2604536720
    3      C      -4.5699715771    -0.7847334783     0.1981080997
    4      C      -4.3399833564     0.3822261330     1.2502926619
    5      C      -2.8211089385     0.6809606073     1.5158983748
    6      O      -2.2639276416     1.2332492304     0.3145829725
    7      C      -0.8703967187     1.6766130829     0.5391749565
    8      C      -0.0725214863     1.4278138261    -0.7937353563
    9      O       0.7838017572     0.2251970770    -0.6786491511
   10      C       2.1695530510     0.5882850970    -0.5846451715
   11      C       2.9586709221    -0.7664389046    -0.4687455408
   12      C       4.5302316460    -0.6521218896    -0.3597125288
   13      C       5.1951602383     0.6379736635    -0.9602188442
   14      O       4.7703813376     1.3773666501    -1.8722240527
   15      O      -3.3700340250    -1.9886138041    -1.5739794740
   16      O       6.4563071349     0.8304741113    -0.3039092774
   17      O       2.5772564819     1.7662103098    -0.5192933579
   18      C       7.1348821308     2.0226810988    -0.8604924605
   19      C       2.6324676069    -1.3486248625     0.9783028413
   20      C       3.2417248984    -2.7982749120     1.1334486475
   21      C       4.7563618765    -2.4722366769     1.4111968606
   22      C       4.7592299340    -0.9091426471     1.1968542097
   23      O       3.4893912179    -0.4949898990     1.8361440551
   24      H       2.6393298509    -1.4435518994    -1.2807552687
   25      H       4.9765561644    -1.4948935142    -0.9222781144
   26      H       1.5669002957    -1.2516679121     1.2649911724
   27      H       2.7745295485    -3.3258978185     1.9799122896
   28      H       3.0989835246    -3.4002105784     0.2214117023
   29      H       5.0353088885    -2.7150267762     2.4492543561
   30      H       5.4424396638    -2.9962623806     0.7268969270
   31      H       5.6187991479    -0.3604795498     1.6271624325
   32      O      -2.2060329267     0.5639597671     2.5977561297
   33      C      -2.0915231872    -2.5999665093    -2.0086139878
   34      C      -5.3364183250    -0.0146431174    -0.9583422367
   35      C      -6.8245671122     0.2187324063    -0.4845298435
   36      C      -6.6251018952     1.3569915781     0.5843425179
   37      C      -5.0622512170     1.5849672722     0.5028116437
   38      O      -4.7484692449     1.3432549589    -0.9236194703
   39      H      -5.2074866394    -1.5816169123     0.6250108567
   40      H      -4.8150604550     0.1516566918     2.2194625615
   41      H      -1.8533989259    -3.5062070505    -1.4145774295
   42      H      -5.2152029807    -0.4697955858    -1.9601079836
   43      H      -7.4458719505     0.5621244539    -1.3269803849
   44      H      -7.2760574233    -0.6924849816    -0.0606137928
   45      H      -7.1633803335     2.2757719940     0.3024004174
   46      H      -6.9465992418     1.0544162327     1.5937975732
   47      H      -4.7158242532     2.5908773925     0.8093840780
   48      H      -1.2478917576    -1.8858203153    -1.9147629111
   49      H      -2.2319213462    -2.8799920582    -3.0687827208
   50      H       8.1017139043     2.0995340594    -0.3298108405
   51      H       6.5429299994     2.9451547727    -0.6895361070
   52      H       7.3160362385     1.9195828736    -1.9500248696
   53      H      -0.7926235780     1.2533007852    -1.6204290763
   54      H       0.5728448158     2.3030287395    -1.0221547937
   55      H      -0.4210550138     1.1165295038     1.3880939428
   56      H      -0.8674305244     2.7598504230     0.7912802418
 ----------------------------------------------------------------

    9   -1510.2764567411      2.96E-09 Convergence criterion met
 Total energy in the final basis set = -1510.27645674
 Final energy is   -1510.27645674111
 **  OPTIMIZATION CONVERGED  **

                    Orbital Energies (a.u.)
 --------------------------------------------------------------

 Alpha MOs
 -- Occupied --
-18.940 -18.928 -18.923 -18.919 -18.887 -18.883 -18.879 -18.875
-18.870 -18.863 -10.103 -10.095 -10.094 -10.091 -10.067 -10.062
-10.060 -10.060 -10.059 -10.058 -10.056 -10.055 -10.038 -10.036
-10.034 -10.033 -10.020 -10.019 -10.018 -10.016  -1.017  -1.009
 -1.004  -0.999  -0.969  -0.967  -0.939  -0.935  -0.928  -0.924
 -0.762  -0.760  -0.724  -0.720  -0.711  -0.705  -0.689  -0.664
 -0.657  -0.611  -0.595  -0.573  -0.544  -0.540  -0.536  -0.534
 -0.513  -0.509  -0.483  -0.471  -0.466  -0.458  -0.449  -0.439
 -0.432  -0.431  -0.416  -0.413  -0.410  -0.405  -0.404  -0.403
 -0.392  -0.377  -0.371  -0.367  -0.361  -0.354  -0.350  -0.346
 -0.341  -0.339  -0.330  -0.329  -0.326  -0.319  -0.313  -0.311
 -0.308  -0.303  -0.301  -0.297  -0.294  -0.286  -0.283  -0.275
 -0.268  -0.257  -0.250  -0.241  -0.238  -0.233  -0.231  -0.182
 -0.176  -0.173  -0.158  -0.158  -0.157  -0.143  -0.142  -0.142
 -0.138

          Ground-State Mulliken Net Atomic Charges

     Atom                 Charge (a.u.)
  ----------------------------------------
      1 O                    -0.209906
      2 C                     0.214306
      3 C                    -0.078166
      4 C                    -0.080214
      5 C                     0.213334
      6 O                    -0.176066
      7 C                    -0.051860
      8 C                    -0.054657
      9 O                    -0.178973
     10 C                     0.214160
     11 C                    -0.076138
     12 C                    -0.080835
     13 C                     0.211924
     14 O                    -0.207050
     15 O                    -0.168831
     16 O                    -0.173694
     17 O                    -0.205615
     18 C                    -0.128253
     19 C                     0.023982
     20 C                    -0.145248
     21 C                    -0.142156
     22 C                     0.024107
     23 O                    -0.191594
     24 H                     0.085405
     25 H                     0.082081
     26 H                     0.090962
     27 H                     0.079081
     28 H                     0.072524
     29 H                     0.077729
     30 H                     0.072536
     31 H                     0.091698
     32 O                    -0.215947
     33 C                    -0.128501
     34 C                     0.023852
     35 C                    -0.143776
     36 C                    -0.144348
     37 C                     0.026752
     38 O                    -0.187013
     39 H                     0.084744
     40 H                     0.083978
     41 H                     0.087796
     42 H                     0.090525
     43 H                     0.077679
     44 H                     0.072837
     45 H                     0.077681
     46 H                     0.073630
     47 H                     0.083378
     48 H                     0.096483
     49 H                     0.090897
     50 H                     0.088849
     51 H                     0.091407
     52 H                     0.087546
     53 H                     0.092526
     54 H                     0.099711
     55 H                     0.102483
     56 H                     0.082258
  ----------------------------------------
  Sum of atomic charges =     0.000000

                    Cartesian Multipole Moments
 -----------------------------------------------------------------
    Charge (ESU x 10^10)
                -0.0000
    Dipole Moment (Debye)
         X      -0.9202      Y      -2.3518      Z      -1.2832
       Tot       2.8327
    Quadrupole Moments (Debye-Ang)
        XX    -133.3015     XY      -2.6964     YY    -152.8309
        XZ      -3.6085     YZ       4.9894     ZZ    -166.4060

 Total job time:  91.12s(wall), 4338.61s(cpu)
        *  Thank you very much for using Q-Chem.  Have a nice day.  *
