 Q-Chem 5.0, Q-Chem, Inc., Pleasanton, CA (2017)
 Q-Chem 5.0.1 for Intel X86 EM64T Linux

User input:
--------------------------------------------------------------
$molecule
0  1
O -2.1669883196 -1.5220915656 0.4076978927
C -3.2228523857 -1.4475804809 -0.260453672
C -4.5699715771 -0.7847334783 0.1981080997
C -4.3399833564 0.382226133 1.2502926619
C -2.8211089385 0.6809606073 1.5158983748
O -2.2639276416 1.2332492304 0.3145829725
C -0.8703967187 1.6766130829 0.5391749565
C -0.0725214863 1.4278138261 -0.7937353563
O 0.7838017572 0.225197077 -0.6786491511
C 2.169553051 0.588285097 -0.5846451715
C 2.9586709221 -0.7664389046 -0.4687455408
C 4.530231646 -0.6521218896 -0.3597125288
C 5.1951602383 0.6379736635 -0.9602188442
O 4.7703813376 1.3773666501 -1.8722240527
O -3.370034025 -1.9886138041 -1.573979474
O 6.4563071349 0.8304741113 -0.3039092774
O 2.5772564819 1.7662103098 -0.5192933579
C 7.1348821308 2.0226810988 -0.8604924605
C 2.6324676069 -1.3486248625 0.9783028413
C 3.2417248984 -2.798274912 1.1334486475
C 4.7563618765 -2.4722366769 1.4111968606
C 4.759229934 -0.9091426471 1.1968542097
O 3.4893912179 -0.494989899 1.8361440551
H 2.6393298509 -1.4435518994 -1.2807552687
H 4.9765561644 -1.4948935142 -0.9222781144
H 1.5669002957 -1.2516679121 1.2649911724
H 2.7745295485 -3.3258978185 1.9799122896
H 3.0989835246 -3.4002105784 0.2214117023
H 5.0353088885 -2.7150267762 2.4492543561
H 5.4424396638 -2.9962623806 0.726896927
H 5.6187991479 -0.3604795498 1.6271624325
O -2.2060329267 0.5639597671 2.5977561297
C -2.0915231872 -2.5999665093 -2.0086139878
C -5.336418325 -0.0146431174 -0.9583422367
C -6.8245671122 0.2187324063 -0.4845298435
C -6.6251018952 1.3569915781 0.5843425179
C -5.062251217 1.5849672722 0.5028116437
O -4.7484692449 1.3432549589 -0.9236194703
H -5.2074866394 -1.5816169123 0.6250108567
H -4.815060455 0.1516566918 2.2194625615
H -1.8533989259 -3.5062070505 -1.4145774295
H -5.2152029807 -0.4697955858 -1.9601079836
H -7.4458719505 0.5621244539 -1.3269803849
H -7.2760574233 -0.6924849816 -0.0606137928
H -7.1633803335 2.275771994 0.3024004174
H -6.9465992418 1.0544162327 1.5937975732
H -4.7158242532 2.5908773925 0.809384078
H -1.2478917576 -1.8858203153 -1.9147629111
H -2.2319213462 -2.8799920582 -3.0687827208
H 8.1017139043 2.0995340594 -0.3298108405
H 6.5429299994 2.9451547727 -0.689536107
H 7.3160362385 1.9195828736 -1.9500248696
H -0.792623578 1.2533007852 -1.6204290763
H 0.5728448158 2.3030287395 -1.0221547937
H -0.4210550138 1.1165295038 1.3880939428
H -0.8674305244 2.759850423 0.7912802418
$end

$rem
JOBTYPE                   OPT
METHOD                    B3LYP
DFT_D                     d3_op
BASIS                     STO-3G
GEOM_OPT_MAX_CYCLES       100
GEOM_OPT_TOL_GRADIENT     300
GEOM_OPT_TOL_DISPLACEMENT 1200
GEOM_OPT_TOL_ENERGY       100
SYMMETRY                  False
THRESH                    12
SCF_CONVERGENCE           8
MAX_SUB_FILE_NUM          128
MEM_STATIC                400
MEM_TOTAL                 4000
$end
--------------------------------------------------------------

   16   -1510.2764461093      4.98E-09 Convergence criterion met
 Total energy in the final basis set = -1510.27644611
   14   -1510.2795809847      7.60E-09 Convergence criterion met
 Total energy in the final basis set = -1510.27958098
   14   -1510.2825625379      9.15E-09 Convergence criterion met
 Total energy in the final basis set = -1510.28256254
   14   -1510.2815955623      2.01E-09 Convergence criterion met
 Total energy in the final basis set = -1510.28159556
   14   -1510.2813162591      6.06E-09 Convergence criterion met
 Total energy in the final basis set = -1510.28131626
   14   -1510.2852096308      4.68E-09 Convergence criterion met
 Total energy in the final basis set = -1510.28520963
   14   -1510.2860723300      4.81E-09 Convergence criterion met
 Total energy in the final basis set = -1510.28607233
   14   -1510.2748056943      3.19E-09 Convergence criterion met
   12   -1510.2988863370      3.22E-09 Convergence criterion met
 Total energy in the final basis set = -1510.29888634
   12   -1510.2988419953      6.17E-09 Convergence criterion met
 Total energy in the final basis set = -1510.29884200
   12   -1510.2989011701      5.08E-09 Convergence criterion met
 Total energy in the final basis set = -1510.29890117
   11   -1510.2989070857      5.64E-09 Convergence criterion met
 Total energy in the final basis set = -1510.29890709
   10   -1510.2989045834      4.19E-09 Convergence criterion met
 Total energy in the final basis set = -1510.29890458
    9   -1510.2989036665      9.47E-09 Convergence criterion met
 Total energy in the final basis set = -1510.29890367

             Standard Nuclear Orientation (Angstroms)
    I     Atom           X                Y                Z
 ----------------------------------------------------------------
    1      O      -0.9217758718    -1.0007364599     0.5081381063
    2      C      -2.0438889218    -1.0973595510    -0.0459914598
    3      C      -3.4150059243    -0.7991899306     0.6627112604
    4      C      -3.3910038730     0.5759835825     1.4574257148
    5      C      -2.0499121356     1.3731440108     1.3168098002
    6      O      -1.8261765718     1.6436878013    -0.0756144770
    7      C      -0.5799159904     2.4230572617    -0.2566121457
    8      C       0.0430968636     2.0523235483    -1.6459722968
    9      O       0.6626706581     0.7065082385    -1.6616071547
   10      C       1.9792923644     0.7379568967    -1.0851777694
   11      C       2.5712197505    -0.7062596047    -1.1155936850
   12      C       4.0954615530    -0.7753759274    -0.6886167589
   13      C       4.7160663381     0.6136773542    -0.2804520139
   14      O       5.3998349106     1.3628137830    -1.0123171958
   15      O      -2.2614245538    -1.5072160713    -1.3859705730
   16      O       4.4678568786     0.8486634183     1.1103077117
   17      O       2.5104853104     1.7854458401    -0.6573237115
   18      C       4.9818162985     2.1822458102     1.4902960462
   19      C       1.8959627807    -1.6510585878    -0.0198453514
   20      C       2.2225619310    -3.1437924961    -0.4203499400
   21      C       3.7462777503    -3.2387630645    -0.0364099240
   22      C       4.0093651606    -1.7871089053     0.5310832615
   23      O       2.7280946895    -1.4292836500     1.1809350076
   24      H       2.4161588914    -1.1130809833    -2.1313193732
   25      H       4.7081066260    -1.1765367118    -1.5154077178
   26      H       0.8208566420    -1.4255967638     0.1862527942
   27      H       1.6122741493    -3.8412059427     0.1757100926
   28      H       2.0406993732    -3.3415037706    -1.4888859511
   29      H       3.9200606236    -3.9950403604     0.7453980685
   30      H       4.3892831644    -3.4712145643    -0.9005316800
   31      H       4.8465009799    -1.7055626361     1.2501635345
   32      O      -1.2983026815     1.7559543533     2.2387493502
   33      C      -0.9697736904    -1.7128290071    -2.0898057697
   34      C      -4.6199273801    -0.5567795657    -0.3379205620
   35      C      -5.9690905037    -0.6650251961     0.4752840807
   36      C      -5.9522936568     0.6902587576     1.2742993485
   37      C      -4.6040928751     1.3327103854     0.7578626596
   38      O      -4.5209932650     0.8879568775    -0.6510874968
   39      H      -3.6260527146    -1.6389538907     1.3509742097
   40      H      -3.5726387469     0.4208843886     2.5352309019
   41      H      -0.4468219740    -2.6103793689    -1.7032378586
   42      H      -4.5655476032    -1.1606285356    -1.2633747313
   43      H      -6.8279962107    -0.7177223877    -0.2125647862
   44      H      -5.9898174464    -1.5482434599     1.1335658837
   45      H      -6.8094935432     1.3287453973     1.0073948948
   46      H      -5.9494049461     0.5420016569     2.3659640950
   47      H      -4.5532007576     2.4370031193     0.8198556091
   48      H      -0.3124996336    -0.8163364061    -1.9790747907
   49      H      -1.2330460753    -1.8737344946    -3.1509001630
   50      H       4.7944109672     2.2841431048     2.5750695549
   51      H       4.4478731657     2.9862513480     0.9435461998
   52      H       6.0685183035     2.2775764930     1.2884545706
   53      H      -0.7535995026     2.0236970444    -2.4170284105
   54      H       0.7991659378     2.8211782789    -1.9145380803
   55      H       0.1301620046     2.2164829524     0.5727635159
   56      H      -0.8145901598     3.5109345666    -0.2497733274
 ----------------------------------------------------------------

   10   -1510.2989044905      6.90E-09 Convergence criterion met
 Total energy in the final basis set = -1510.29890449
 Final energy is   -1510.29890449048
 **  OPTIMIZATION CONVERGED  **

                    Orbital Energies (a.u.)
 --------------------------------------------------------------

 Alpha MOs
 -- Occupied --
-18.949 -18.944 -18.930 -18.917 -18.891 -18.889 -18.881 -18.876
-18.876 -18.852 -10.110 -10.109 -10.099 -10.084 -10.083 -10.073
-10.062 -10.059 -10.051 -10.050 -10.048 -10.041 -10.038 -10.037
-10.035 -10.027 -10.022 -10.021 -10.012 -10.011  -1.025  -1.018
 -1.008  -0.993  -0.971  -0.958  -0.949  -0.942  -0.935  -0.918
 -0.765  -0.756  -0.729  -0.720  -0.713  -0.704  -0.693  -0.660
 -0.646  -0.618  -0.598  -0.579  -0.548  -0.539  -0.536  -0.530
 -0.517  -0.506  -0.493  -0.474  -0.470  -0.456  -0.444  -0.437
 -0.435  -0.432  -0.426  -0.415  -0.411  -0.406  -0.403  -0.397
 -0.395  -0.384  -0.373  -0.370  -0.361  -0.358  -0.353  -0.352
 -0.341  -0.334  -0.333  -0.331  -0.323  -0.322  -0.315  -0.312
 -0.306  -0.305  -0.300  -0.299  -0.296  -0.292  -0.277  -0.273
 -0.271  -0.262  -0.249  -0.248  -0.237  -0.235  -0.221  -0.193
 -0.182  -0.172  -0.163  -0.161  -0.159  -0.151  -0.145  -0.136
 -0.132

          Ground-State Mulliken Net Atomic Charges

     Atom                 Charge (a.u.)
  ----------------------------------------
      1 O                    -0.218731
      2 C                     0.222498
      3 C                    -0.077269
      4 C                    -0.079052
      5 C                     0.211843
      6 O                    -0.174385
      7 C                    -0.052091
      8 C                    -0.046915
      9 O                    -0.172918
     10 C                     0.218998
     11 C                    -0.081039
     12 C                    -0.081510
     13 C                     0.212109
     14 O                    -0.223313
     15 O                    -0.165637
     16 O                    -0.167146
     17 O                    -0.204062
     18 C                    -0.126944
     19 C                     0.006045
     20 C                    -0.145634
     21 C                    -0.145050
     22 C                     0.026701
     23 O                    -0.187379
     24 H                     0.082872
     25 H                     0.081125
     26 H                     0.113091
     27 H                     0.074789
     28 H                     0.067235
     29 H                     0.075892
     30 H                     0.070731
     31 H                     0.084650
     32 O                    -0.208529
     33 C                    -0.147047
     34 C                     0.023578
     35 C                    -0.144158
     36 C                    -0.144009
     37 C                     0.026118
     38 O                    -0.187160
     39 H                     0.085562
     40 H                     0.086137
     41 H                     0.080159
     42 H                     0.092951
     43 H                     0.078025
     44 H                     0.073259
     45 H                     0.078019
     46 H                     0.074316
     47 H                     0.082626
     48 H                     0.114965
     49 H                     0.084757
     50 H                     0.088060
     51 H                     0.091046
     52 H                     0.085015
     53 H                     0.097875
     54 H                     0.097465
     55 H                     0.106060
     56 H                     0.085404
  ----------------------------------------
  Sum of atomic charges =    -0.000000

                    Cartesian Multipole Moments
 -----------------------------------------------------------------
    Charge (ESU x 10^10)
                -0.0000
    Dipole Moment (Debye)
         X      -2.6616      Y      -1.4351      Z      -1.2210
       Tot       3.2611
    Quadrupole Moments (Debye-Ang)
        XX    -156.1859     XY      -3.9356     YY    -151.7266
        XZ      -4.1330     YZ       2.8666     ZZ    -161.5559

 Total job time:  114.62s(wall), 5468.11s(cpu)
        *  Thank you very much for using Q-Chem.  Have a nice day.  *
