 Q-Chem 5.0, Q-Chem, Inc., Pleasanton, CA (2017)
 Q-Chem 5.0.1 for Intel X86 EM64T Linux

User input:
--------------------------------------------------------------
$molecule
0  1
O -3.94934 -3.66094 2.70899
C -3.26408 -4.56952 2.26188
C -3.36658 -6.02376 2.66595
C -4.24854 -6.35491 3.88099
C -5.07036 -5.2184 4.4476
O -6.0337 -4.85087 3.55187
C -6.94321 -3.87525 4.07169
C -7.93215 -3.45023 2.99119
O -7.22477 -2.89431 1.87161
C -6.82695 -1.60574 2.01475
C -6.08994 -1.0798 0.80609
C -6.21891 0.4332 0.57701
C -6.74522 1.23651 1.74935
O -7.54134 0.83294 2.58475
O -2.24617 -4.29537 1.40329
O -6.47951 2.57079 1.72374
O -6.52125 -1.19656 3.12731
C -6.94614 3.47873 2.65144
C -4.58627 -1.25914 0.70928
C -4.12344 -1.16576 -0.75091
C -4.2284 0.32097 -0.98078
C -4.71911 0.77461 0.3931
O -4.06731 -0.09377 1.28808
H -6.54717 -1.61473 -0.05828
H -6.80642 0.72872 -0.32026
H -4.28672 -2.21593 1.10049
H -3.05102 -1.45484 -0.81325
H -4.70977 -1.79637 -1.45372
H -3.20475 0.72489 -1.15005
H -4.89867 0.63087 -1.81135
H -4.48697 1.85442 0.51805
O -4.98298 -4.8152 5.60141
C -1.50788 -3.12954 1.39372
C -4.0169 -6.90908 1.58955
C -3.57798 -8.36126 1.77801
C -4.35478 -8.73441 3.0262
C -5.14682 -7.44367 3.26017
O -5.375 -6.95648 1.95713
H -2.32094 -6.3543 2.8629
H -3.63698 -6.75098 4.72293
H -0.97683 -3.01681 2.36257
H -3.79843 -6.56735 0.55417
H -3.98368 -8.94627 0.92177
H -2.47877 -8.51299 1.83873
H -5.0493 -9.56581 2.77172
H -3.736 -9.01383 3.90618
H -6.05075 -7.64347 3.87669
H -2.12984 -2.2382 1.2288
H -0.75365 -3.18627 0.58247
H -6.5735 4.49019 2.38962
H -6.57779 3.21241 3.6652
H -8.05702 3.49497 2.64703
H -8.46562 -4.36154 2.64658
H -8.69625 -2.74087 3.3829
H -6.39044 -3.0129 4.49165
H -7.52438 -4.32422 4.90836
$end

$opt
CONSTRAINT
tors           1           2           3           4      -9.774
tors           3           4           5           6     +67.431
tors           4           5           6           7    +173.788
tors           5           6           7           8    +176.430
tors           6           7           8           9     -59.373
tors           7           8           9          10     -80.047
tors           8           9          10          11    -180.000
tors           9          10          11          12    +151.153
tors          11          12          13          14     -31.487
ENDCONSTRAINT
$end

$rem
JOBTYPE                   OPT
METHOD                    B3LYP
DFT_D                     d3_op
BASIS                     STO-3G
GEOM_OPT_MAX_CYCLES       100
GEOM_OPT_TOL_GRADIENT     300
GEOM_OPT_TOL_DISPLACEMENT 1200
GEOM_OPT_TOL_ENERGY       100
SYMMETRY                  False
THRESH                    12
SCF_CONVERGENCE           8
MAX_SUB_FILE_NUM          128
MEM_STATIC                400
MEM_TOTAL                 4000
$end
--------------------------------------------------------------

   16   -1510.1238312136      2.41E-09 Convergence criterion met
 Total energy in the final basis set = -1510.12383121
   13   -1510.1978033765      9.45E-09 Convergence criterion met
 Total energy in the final basis set = -1510.19780338
   14   -1510.2368936018      2.99E-09 Convergence criterion met
 Total energy in the final basis set = -1510.23689360
   14   -1510.2571544042      5.80E-09 Convergence criterion met
 Total energy in the final basis set = -1510.25715440
   14   -1510.2689528731      2.18E-09 Convergence criterion met
 Total energy in the final basis set = -1510.26895287
   13   -1510.2753790849      6.77E-09 Convergence criterion met
 Total energy in the final basis set = -1510.27537908
   13   -1510.2781272870      4.44E-09 Convergence criterion met
 Total energy in the final basis set = -1510.27812729
   13   -1510.2796078543      2.44E-09 Convergence criterion met
   10   -1510.2844471296      6.03E-09 Convergence criterion met
 Total energy in the final basis set = -1510.28444713
   10   -1510.2844596775      6.29E-09 Convergence criterion met
 Total energy in the final basis set = -1510.28445968
   10   -1510.2844702463      5.20E-09 Convergence criterion met
 Total energy in the final basis set = -1510.28447025
    9   -1510.2844767914      7.09E-09 Convergence criterion met
 Total energy in the final basis set = -1510.28447679
    9   -1510.2844807354      4.90E-09 Convergence criterion met
 Total energy in the final basis set = -1510.28448074
    9   -1510.2844826637      5.14E-09 Convergence criterion met
 Total energy in the final basis set = -1510.28448266

             Standard Nuclear Orientation (Angstroms)
    I     Atom           X                Y                Z
 ----------------------------------------------------------------
    1      O      -1.1890386753    -0.9364576897     0.7877603357
    2      C      -2.2773439871    -1.5202834340     0.5868803440
    3      C      -3.7345064231    -0.9490517835     0.5088059698
    4      C      -3.9593075546     0.5564061139     0.9380819634
    5      C      -2.6855548940     1.4068724500     1.2791017198
    6      O      -1.9066605384     1.6147847385     0.1003634786
    7      C      -0.7904620297     2.5426786986     0.4082763422
    8      C       0.0857721592     2.6685029430    -0.8816246668
    9      O       0.6258577995     1.3559535376    -1.3104272559
   10      C       1.7738621108     1.0353336561    -0.5095972111
   11      C       2.3382256613    -0.3510913591    -0.9679896334
   12      C       3.8964908072    -0.4931943444    -0.7367383743
   13      C       4.6693089348     0.8665934155    -0.5962106007
   14      O       4.3942332213     1.9567646035    -1.1419818192
   15      O      -2.4209924861    -2.9310180220     0.3854679913
   16      O       5.8092405228     0.6632744819     0.2467129748
   17      O       2.1766163024     1.7393394710     0.4415933678
   18      C       6.5620037814     1.9301466467     0.3891920414
   19      C       1.8038354130    -1.4424564592     0.0638958130
   20      C       2.2448574332    -2.8823993156    -0.4284397779
   21      C       3.7546236470    -2.9222305823     0.0121923989
   22      C       3.9413893929    -1.4476318522     0.5353660537
   23      O       2.6665337223    -1.1876775727     1.2414762200
   24      H       2.0330912966    -0.5537019836    -2.0090042780
   25      H       4.3462868022    -1.0150965563    -1.6029209416
   26      H       0.7273356360    -1.3262011592     0.3306195924
   27      H       1.6642335503    -3.6671189444     0.0786515914
   28      H       2.1193645205    -2.9989027739    -1.5170144114
   29      H       3.9125214484    -3.6419409501     0.8314543098
   30      H       4.4390993154    -3.1713248798    -0.8141588128
   31      H       4.8071559090    -1.2746441628     1.2028645733
   32      O      -2.4083130978     1.8906852744     2.3993281105
   33      C      -1.1100480535    -3.6124215814     0.3939158012
   34      C      -4.2870144608    -0.9298604583    -0.9889686359
   35      C      -5.8637088402    -0.9355997586    -0.9200204812
   36      C      -6.1456845505     0.5358266045    -0.4377954415
   37      C      -4.6794731892     1.1213216355    -0.3653936496
   38      O      -3.9686616748     0.4319480878    -1.4660821599
   39      H      -4.3618400013    -1.6173574642     1.1262379518
   40      H      -4.6187929758     0.6086129240     1.8221507821
   41      H      -0.4962841776    -3.3144323876     1.2676541903
   42      H      -3.8390431826    -1.6954262451    -1.6518143612
   43      H      -6.2893473663    -1.1208278198    -1.9191756991
   44      H      -6.2490261908    -1.6975656780    -0.2239823681
   45      H      -6.7480941797     1.0942583902    -1.1717071452
   46      H      -6.6552189992     0.5730231381     0.5383214373
   47      H      -4.6057687950     2.2192369063    -0.4870108775
   48      H      -0.5414173709    -3.3953922928    -0.5325324276
   49      H      -1.3261178427    -4.6956648902     0.4429287729
   50      H       7.4032816053     1.7105753820     1.0719788924
   51      H       5.9296536300     2.7315960782     0.8225570149
   52      H       6.9577226677     2.2830566020    -0.5853188662
   53      H      -0.5341636434     3.0270001515    -1.7279537201
   54      H       0.9081737857     3.3890695303    -0.6836657721
   55      H      -0.1748166809     2.1558150569     1.2485135850
   56      H      -1.1791335729     3.5446389639     0.6967816236
 ----------------------------------------------------------------

    9   -1510.2844834042      2.69E-09 Convergence criterion met
 Total energy in the final basis set = -1510.28448340
 Final energy is   -1510.28448340423
 **  OPTIMIZATION CONVERGED  **

                    Orbital Energies (a.u.)
 --------------------------------------------------------------

 Alpha MOs
 -- Occupied --
-18.941 -18.928 -18.925 -18.923 -18.891 -18.890 -18.877 -18.866
-18.863 -18.861 -10.109 -10.093 -10.091 -10.087 -10.070 -10.065
-10.063 -10.061 -10.061 -10.059 -10.050 -10.043 -10.041 -10.036
-10.030 -10.028 -10.022 -10.021 -10.015 -10.014  -1.019  -1.006
 -1.003  -0.997  -0.972  -0.960  -0.945  -0.931  -0.927  -0.920
 -0.764  -0.755  -0.725  -0.718  -0.713  -0.702  -0.690  -0.669
 -0.655  -0.609  -0.597  -0.572  -0.546  -0.539  -0.536  -0.531
 -0.517  -0.503  -0.486  -0.466  -0.460  -0.450  -0.445  -0.439
 -0.435  -0.429  -0.427  -0.417  -0.413  -0.409  -0.404  -0.402
 -0.385  -0.382  -0.369  -0.364  -0.359  -0.352  -0.350  -0.342
 -0.341  -0.336  -0.334  -0.330  -0.325  -0.317  -0.316  -0.313
 -0.308  -0.305  -0.303  -0.295  -0.286  -0.283  -0.280  -0.274
 -0.265  -0.258  -0.250  -0.245  -0.237  -0.236  -0.224  -0.186
 -0.172  -0.170  -0.163  -0.159  -0.149  -0.146  -0.143  -0.138
 -0.134

          Ground-State Mulliken Net Atomic Charges

     Atom                 Charge (a.u.)
  ----------------------------------------
      1 O                    -0.205151
      2 C                     0.216922
      3 C                    -0.078002
      4 C                    -0.080909
      5 C                     0.209909
      6 O                    -0.165125
      7 C                    -0.048189
      8 C                    -0.046602
      9 O                    -0.167482
     10 C                     0.214457
     11 C                    -0.078623
     12 C                    -0.079691
     13 C                     0.213408
     14 O                    -0.215080
     15 O                    -0.171414
     16 O                    -0.171670
     17 O                    -0.214975
     18 C                    -0.127786
     19 C                     0.012580
     20 C                    -0.147586
     21 C                    -0.142979
     22 C                     0.024145
     23 O                    -0.190658
     24 H                     0.084558
     25 H                     0.081370
     26 H                     0.101506
     27 H                     0.072061
     28 H                     0.070129
     29 H                     0.075477
     30 H                     0.071491
     31 H                     0.091091
     32 O                    -0.216289
     33 C                    -0.130959
     34 C                     0.026948
     35 C                    -0.143092
     36 C                    -0.144782
     37 C                     0.027136
     38 O                    -0.184689
     39 H                     0.087549
     40 H                     0.084442
     41 H                     0.093979
     42 H                     0.085003
     43 H                     0.078207
     44 H                     0.074343
     45 H                     0.078150
     46 H                     0.074244
     47 H                     0.083240
     48 H                     0.088541
     49 H                     0.091750
     50 H                     0.089102
     51 H                     0.092681
     52 H                     0.086732
     53 H                     0.090882
     54 H                     0.095487
     55 H                     0.100772
     56 H                     0.083440
  ----------------------------------------
  Sum of atomic charges =    -0.000000

                    Cartesian Multipole Moments
 -----------------------------------------------------------------
    Charge (ESU x 10^10)
                -0.0000
    Dipole Moment (Debye)
         X      -1.3013      Y      -2.4533      Z      -1.4321
       Tot       3.1246
    Quadrupole Moments (Debye-Ang)
        XX    -137.2517     XY      -0.8299     YY    -149.0320
        XZ      -2.6010     YZ      -0.0532     ZZ    -167.7130

 Total job time:  75.78s(wall), 3613.28s(cpu)
        *  Thank you very much for using Q-Chem.  Have a nice day.  *
