 Q-Chem 5.0, Q-Chem, Inc., Pleasanton, CA (2017)
 Q-Chem 5.0.1 for Intel X86 EM64T Linux

User input:
--------------------------------------------------------------
$molecule
0  1
O -1.1890386753 -0.9364576897 0.7877603357
C -2.2773439871 -1.520283434 0.586880344
C -3.7345064231 -0.9490517835 0.5088059698
C -3.9593075546 0.5564061139 0.9380819634
C -2.685554894 1.40687245 1.2791017198
O -1.9066605384 1.6147847385 0.1003634786
C -0.7904620297 2.5426786986 0.4082763422
C 0.0857721592 2.668502943 -0.8816246668
O 0.6258577995 1.3559535376 -1.3104272559
C 1.7738621108 1.0353336561 -0.5095972111
C 2.3382256613 -0.3510913591 -0.9679896334
C 3.8964908072 -0.4931943444 -0.7367383743
C 4.6693089348 0.8665934155 -0.5962106007
O 4.3942332213 1.9567646035 -1.1419818192
O -2.4209924861 -2.931018022 0.3854679913
O 5.8092405228 0.6632744819 0.2467129748
O 2.1766163024 1.739339471 0.4415933678
C 6.5620037814 1.9301466467 0.3891920414
C 1.803835413 -1.4424564592 0.063895813
C 2.2448574332 -2.8823993156 -0.4284397779
C 3.754623647 -2.9222305823 0.0121923989
C 3.9413893929 -1.4476318522 0.5353660537
O 2.6665337223 -1.1876775727 1.24147622
H 2.0330912966 -0.5537019836 -2.009004278
H 4.3462868022 -1.0150965563 -1.6029209416
H 0.727335636 -1.3262011592 0.3306195924
H 1.6642335503 -3.6671189444 0.0786515914
H 2.1193645205 -2.9989027739 -1.5170144114
H 3.9125214484 -3.6419409501 0.8314543098
H 4.4390993154 -3.1713248798 -0.8141588128
H 4.807155909 -1.2746441628 1.2028645733
O -2.4083130978 1.8906852744 2.3993281105
C -1.1100480535 -3.6124215814 0.3939158012
C -4.2870144608 -0.9298604583 -0.9889686359
C -5.8637088402 -0.9355997586 -0.9200204812
C -6.1456845505 0.5358266045 -0.4377954415
C -4.6794731892 1.1213216355 -0.3653936496
O -3.9686616748 0.4319480878 -1.4660821599
H -4.3618400013 -1.6173574642 1.1262379518
H -4.6187929758 0.608612924 1.8221507821
H -0.4962841776 -3.3144323876 1.2676541903
H -3.8390431826 -1.6954262451 -1.6518143612
H -6.2893473663 -1.1208278198 -1.9191756991
H -6.2490261908 -1.697565678 -0.2239823681
H -6.7480941797 1.0942583902 -1.1717071452
H -6.6552189992 0.5730231381 0.5383214373
H -4.605768795 2.2192369063 -0.4870108775
H -0.5414173709 -3.3953922928 -0.5325324276
H -1.3261178427 -4.6956648902 0.4429287729
H 7.4032816053 1.710575382 1.0719788924
H 5.92965363 2.7315960782 0.8225570149
H 6.9577226677 2.283056602 -0.5853188662
H -0.5341636434 3.0270001515 -1.7279537201
H 0.9081737857 3.3890695303 -0.6836657721
H -0.1748166809 2.1558150569 1.248513585
H -1.1791335729 3.5446389639 0.6967816236
$end

$rem
JOBTYPE                   OPT
METHOD                    B3LYP
DFT_D                     d3_op
BASIS                     STO-3G
GEOM_OPT_MAX_CYCLES       100
GEOM_OPT_TOL_GRADIENT     300
GEOM_OPT_TOL_DISPLACEMENT 1200
GEOM_OPT_TOL_ENERGY       100
SYMMETRY                  False
THRESH                    12
SCF_CONVERGENCE           8
MAX_SUB_FILE_NUM          128
MEM_STATIC                400
MEM_TOTAL                 4000
$end
--------------------------------------------------------------

   16   -1510.2844592615      6.15E-09 Convergence criterion met
 Total energy in the final basis set = -1510.28445926
   14   -1510.2819615748      3.14E-09 Convergence criterion met
 Total energy in the final basis set = -1510.28196157
   14   -1510.2838567706      2.41E-09 Convergence criterion met
 Total energy in the final basis set = -1510.28385677
   14   -1510.2849138172      3.14E-09 Convergence criterion met
 Total energy in the final basis set = -1510.28491382
   14   -1510.2855635370      1.72E-09 Convergence criterion met
 Total energy in the final basis set = -1510.28556354
   14   -1510.2859459616      3.49E-09 Convergence criterion met
 Total energy in the final basis set = -1510.28594596
   13   -1510.2868672143      7.82E-09 Convergence criterion met
 Total energy in the final basis set = -1510.28686721
   13   -1510.2878300637      7.79E-09 Convergence criterion met
   12   -1510.2988178402      6.16E-09 Convergence criterion met
 Total energy in the final basis set = -1510.29881784
   11   -1510.2988317543      8.31E-09 Convergence criterion met
 Total energy in the final basis set = -1510.29883175
   11   -1510.2988344320      6.79E-09 Convergence criterion met
 Total energy in the final basis set = -1510.29883443
   11   -1510.2988378109      5.60E-09 Convergence criterion met
 Total energy in the final basis set = -1510.29883781
   11   -1510.2988391918      3.57E-09 Convergence criterion met
 Total energy in the final basis set = -1510.29883919
   10   -1510.2988347346      6.66E-09 Convergence criterion met
 Total energy in the final basis set = -1510.29883473

             Standard Nuclear Orientation (Angstroms)
    I     Atom           X                Y                Z
 ----------------------------------------------------------------
    1      O      -0.9902910148    -0.9882840782     0.5659913023
    2      C      -2.0853598944    -1.1624123084    -0.0222311182
    3      C      -3.4831721200    -0.7476769373     0.5643178040
    4      C      -3.4646230574     0.7218245135     1.1670438779
    5      C      -2.1032289521     1.4730338782     0.9736853176
    6      O      -1.8247781511     1.5512740830    -0.4331586996
    7      C      -0.5546854948     2.2752709580    -0.6700156903
    8      C       0.1243655617     1.6865735030    -1.9540229576
    9      O       0.7188460606     0.3494792611    -1.7231625094
   10      C       2.0321596820     0.4604293001    -1.1502333257
   11      C       2.5924782503    -0.9757272125    -0.9034762363
   12      C       4.0956227668    -0.9902243452    -0.3997309459
   13      C       4.7419212159     0.4386533852    -0.2577318601
   14      O       5.4608680892     1.0121268221    -1.1053179170
   15      O      -2.2440135689    -1.7713092841    -1.2929160042
   16      O       4.4646352093     0.9541431723     1.0497973154
   17      O       2.5852771008     1.5579325027    -0.9218713657
   18      C       4.9892086855     2.3322397647     1.1629967222
   19      C       1.8487828700    -1.6968757851     0.3091392613
   20      C       2.1744283722    -3.2395328510     0.2127531064
   21      C       3.6689820715    -3.2716667541     0.7040783249
   22      C       3.9281315141    -1.7391776031     0.9912001489
   23      O       2.6212717435    -1.2536433179     1.4887985769
   24      H       2.4715063399    -1.5527806097    -1.8383359263
   25      H       4.7270428701    -1.5651833674    -1.1002058891
   26      H       0.7671610404    -1.4342915464     0.4112683425
   27      H       1.5160429616    -3.8122632529     0.8853152560
   28      H       2.0550995087    -3.6280896176    -0.8112271129
   29      H       3.7775471077    -3.8591744443     1.6296388242
   30      H       4.3588252600    -3.6761886198    -0.0536884400
   31      H       4.7285424203    -1.5240133445     1.7245077022
   32      O      -1.3787517683     1.9661067606     1.8644067555
   33      C      -0.9224472057    -2.0932411417    -1.8899583242
   34      C      -4.6345501049    -0.6215747758    -0.5179633694
   35      C      -6.0199983040    -0.6043541687     0.2389381922
   36      C      -6.0139179247     0.8454918732     0.8508884434
   37      C      -4.6309063336     1.3952484969     0.3193247820
   38      O      -4.4933054337     0.7671696236    -1.0134369688
   39      H      -3.7495071494    -1.4828589097     1.3466535052
   40      H      -3.6908669858     0.7189055608     2.2475135200
   41      H      -0.4349322552    -2.9277096195    -1.3468482231
   42      H      -4.5505866535    -1.3427313210    -1.3530352876
   43      H      -6.8489419498    -0.7370332422    -0.4743962012
   44      H      -6.0856754000    -1.3917810124     1.0066954090
   45      H      -6.8450476579     1.4532459375     0.4593926293
   46      H      -6.0642925742     0.8444384694     1.9515489157
   47      H      -4.5612635731     2.4972640633     0.2378847587
   48      H      -0.2557894661    -1.1969522084    -1.8795623962
   49      H      -1.1349240483    -2.4091166044    -2.9273625221
   50      H       4.7739444802     2.6571344148     2.1975445048
   51      H       4.4825147243     3.0110439789     0.4467467415
   52      H       6.0822609414     2.3737225184     0.9778396083
   53      H      -0.6363896139     1.5467891033    -2.7487102411
   54      H       0.9084288934     2.3939760032    -2.2997126709
   55      H       0.1098380705     2.1869718928     0.2163695705
   56      H      -0.7665117687     3.3545132713    -0.8405257708
 ----------------------------------------------------------------

    9   -1510.2988349641      6.67E-09 Convergence criterion met
 Total energy in the final basis set = -1510.29883496
 Final energy is   -1510.29883496408
 **  OPTIMIZATION CONVERGED  **

                    Orbital Energies (a.u.)
 --------------------------------------------------------------

 Alpha MOs
 -- Occupied --
-18.949 -18.944 -18.930 -18.916 -18.891 -18.889 -18.881 -18.876
-18.875 -18.852 -10.110 -10.110 -10.098 -10.084 -10.082 -10.072
-10.062 -10.060 -10.051 -10.049 -10.048 -10.041 -10.038 -10.037
-10.035 -10.027 -10.022 -10.021 -10.012 -10.011  -1.025  -1.018
 -1.008  -0.993  -0.971  -0.958  -0.949  -0.942  -0.935  -0.918
 -0.765  -0.756  -0.729  -0.720  -0.713  -0.704  -0.693  -0.660
 -0.646  -0.618  -0.598  -0.579  -0.548  -0.539  -0.536  -0.529
 -0.517  -0.506  -0.494  -0.474  -0.470  -0.456  -0.444  -0.437
 -0.436  -0.432  -0.426  -0.415  -0.411  -0.406  -0.403  -0.398
 -0.395  -0.384  -0.373  -0.370  -0.361  -0.358  -0.353  -0.352
 -0.341  -0.334  -0.333  -0.330  -0.323  -0.322  -0.315  -0.312
 -0.306  -0.305  -0.300  -0.299  -0.295  -0.291  -0.277  -0.273
 -0.271  -0.262  -0.249  -0.248  -0.237  -0.235  -0.221  -0.193
 -0.182  -0.172  -0.163  -0.161  -0.159  -0.151  -0.145  -0.136
 -0.132

          Ground-State Mulliken Net Atomic Charges

     Atom                 Charge (a.u.)
  ----------------------------------------
      1 O                    -0.218354
      2 C                     0.222660
      3 C                    -0.077274
      4 C                    -0.079001
      5 C                     0.212022
      6 O                    -0.174486
      7 C                    -0.052057
      8 C                    -0.047380
      9 O                    -0.173057
     10 C                     0.219361
     11 C                    -0.080744
     12 C                    -0.081699
     13 C                     0.212212
     14 O                    -0.223345
     15 O                    -0.165553
     16 O                    -0.167666
     17 O                    -0.204129
     18 C                    -0.127031
     19 C                     0.005745
     20 C                    -0.145751
     21 C                    -0.144907
     22 C                     0.026640
     23 O                    -0.187985
     24 H                     0.082912
     25 H                     0.081008
     26 H                     0.113502
     27 H                     0.074841
     28 H                     0.067170
     29 H                     0.075900
     30 H                     0.070767
     31 H                     0.084909
     32 O                    -0.208626
     33 C                    -0.147025
     34 C                     0.023691
     35 C                    -0.144129
     36 C                    -0.144041
     37 C                     0.026137
     38 O                    -0.187103
     39 H                     0.085523
     40 H                     0.086176
     41 H                     0.080004
     42 H                     0.092683
     43 H                     0.077974
     44 H                     0.073243
     45 H                     0.078098
     46 H                     0.074335
     47 H                     0.082672
     48 H                     0.115215
     49 H                     0.084789
     50 H                     0.087870
     51 H                     0.091145
     52 H                     0.085066
     53 H                     0.097756
     54 H                     0.098340
     55 H                     0.105701
     56 H                     0.085274
  ----------------------------------------
  Sum of atomic charges =    -0.000000

                    Cartesian Multipole Moments
 -----------------------------------------------------------------
    Charge (ESU x 10^10)
                -0.0000
    Dipole Moment (Debye)
         X      -2.6612      Y      -1.5889      Z      -1.0528
       Tot       3.2734
    Quadrupole Moments (Debye-Ang)
        XX    -155.9765     XY      -3.9471     YY    -150.4391
        XZ      -2.6803     YZ       1.1490     ZZ    -162.8555

 Total job time:  117.28s(wall), 5596.53s(cpu)
        *  Thank you very much for using Q-Chem.  Have a nice day.  *
