 Q-Chem 5.0, Q-Chem, Inc., Pleasanton, CA (2017)
 Q-Chem 5.0.1 for Intel X86 EM64T Linux

User input:
--------------------------------------------------------------
$molecule
0  1
O -3.94934 -3.66094 2.70899
C -3.26408 -4.56952 2.26188
C -3.36658 -6.02376 2.66595
C -4.0933 -6.33721 3.98408
C -4.79103 -5.17864 4.66156
O -6.141 -5.38597 4.66181
C -6.86183 -4.40123 5.41011
C -8.35919 -4.68378 5.3451
O -8.80149 -4.6672 3.97872
C -9.01039 -3.43668 3.44834
C -8.83515 -3.40487 1.94869
C -10.01897 -2.81146 1.17107
C -11.02217 -2.02665 1.99228
O -11.74515 -2.49168 2.86154
O -2.45229 -4.31006 1.20345
O -11.12519 -0.69084 1.74489
O -9.14806 -2.42101 4.12073
C -11.97669 0.16666 2.41006
C -7.68438 -2.49716 1.47131
C -7.17837 -2.99213 0.11903
C -8.36214 -2.64806 -0.76419
C -9.23247 -1.86713 0.23249
O -8.30518 -1.28547 1.11726
H -8.61946 -4.446 1.61136
H -10.5947 -3.5855 0.61807
H -6.84568 -2.42659 2.19842
H -6.32177 -2.33561 -0.15709
H -6.84885 -4.05282 0.07783
H -8.0023 -1.99666 -1.59111
H -8.91683 -3.51944 -1.17493
H -9.89469 -1.16372 -0.318
O -4.2139 -4.26194 5.23629
C -2.28871 -3.06288 0.63775
C -4.16718 -6.86421 1.6588
C -3.72402 -8.3217 1.74001
C -4.3038 -8.71509 3.08121
C -5.06018 -7.43073 3.44758
O -5.46264 -6.90925 2.20429
H -2.31406 -6.38346 2.72651
H -3.4173 -6.77569 4.75127
H -1.88543 -2.35165 1.39003
H -4.08815 -6.49357 0.61321
H -4.26835 -8.87436 0.94085
H -2.63186 -8.49258 1.62617
H -5.01544 -9.5554 2.92005
H -3.55968 -8.99241 3.85881
H -5.87202 -7.68823 4.16222
H -3.26012 -2.68838 0.24917
H -1.57141 -3.13689 -0.20512
H -11.8498 1.19151 2.00508
H -11.73665 0.17827 3.49478
H -13.03134 -0.14917 2.26117
H -8.52049 -5.70625 5.74803
H -8.94729 -3.9884 5.98522
H -6.66878 -3.38242 5.00423
H -6.54742 -4.4322 6.47783
$end

$opt
CONSTRAINT
tors           1           2           3           4     -17.623
tors           3           4           5           6    +114.329
tors           4           5           6           7    +173.788
tors           5           6           7           8    +179.033
tors           6           7           8           9     -59.215
tors           7           8           9          10     -80.047
tors           8           9          10          11    +153.123
tors           9          10          11          12    +127.050
tors          11          12          13          14     -65.511
ENDCONSTRAINT
$end

$rem
JOBTYPE                   OPT
METHOD                    B3LYP
DFT_D                     d3_op
BASIS                     STO-3G
GEOM_OPT_MAX_CYCLES       100
GEOM_OPT_TOL_GRADIENT     300
GEOM_OPT_TOL_DISPLACEMENT 1200
GEOM_OPT_TOL_ENERGY       100
SYMMETRY                  False
THRESH                    12
SCF_CONVERGENCE           8
MAX_SUB_FILE_NUM          128
MEM_STATIC                400
MEM_TOTAL                 4000
$end
--------------------------------------------------------------

   15   -1510.1515130094      9.86E-09 Convergence criterion met
 Total energy in the final basis set = -1510.15151301
   13   -1510.2202776738      5.78E-09 Convergence criterion met
 Total energy in the final basis set = -1510.22027767
   13   -1510.2568939842      9.32E-09 Convergence criterion met
 Total energy in the final basis set = -1510.25689398
   14   -1510.2722659549      2.34E-09 Convergence criterion met
 Total energy in the final basis set = -1510.27226595
    2   -1510.2722659548      4.85E-09 Convergence criterion met
 Total energy in the final basis set = -1510.27226595
   13   -1510.2768141453      5.59E-09 Convergence criterion met
 Total energy in the final basis set = -1510.27681415
   13   -1510.2784573381      3.27E-09 Convergence criterion met
 Total energy in the final basis set = -1510.27845734
   13   -1510.2791601595      2.21E-09 Convergence criterion met
   12   -1510.2810596296      9.85E-09 Convergence criterion met
 Total energy in the final basis set = -1510.28105963
   12   -1510.2812897852      4.52E-09 Convergence criterion met
 Total energy in the final basis set = -1510.28128979
   12   -1510.2813994143      3.10E-09 Convergence criterion met
 Total energy in the final basis set = -1510.28139941
   11   -1510.2814762729      7.60E-09 Convergence criterion met
 Total energy in the final basis set = -1510.28147627
   11   -1510.2815179402      6.11E-09 Convergence criterion met
 Total energy in the final basis set = -1510.28151794
   10   -1510.2815336517      8.82E-09 Convergence criterion met
 Total energy in the final basis set = -1510.28153365

             Standard Nuclear Orientation (Angstroms)
    I     Atom           X                Y                Z
 ----------------------------------------------------------------
    1      O      -1.7224471962    -0.9323097117     0.9005302629
    2      C      -2.8923269100    -1.3009910503     0.6470034479
    3      C      -4.0546258316    -0.4234163678     0.0720858359
    4      C      -3.7712397623     1.1275402111     0.2313928065
    5      C      -2.5555574736     1.4297638061     1.1851402806
    6      O      -1.4884797044     2.0260955190     0.4416800656
    7      C      -0.4158177798     2.4404134295     1.3738440297
    8      C       0.7320949064     3.0607789150     0.5105253647
    9      O       1.2276053272     2.0583769824    -0.4609184906
   10      C       2.1351149305     1.1444008243     0.1749476928
   11      C       2.0781576086    -0.2070990207    -0.6140889385
   12      C       3.4946814467    -0.7489949754    -1.0883427083
   13      C       4.6674301002     0.2001096133    -0.6426444459
   14      O       4.8560079514     1.3718508332    -1.0376564734
   15      O      -3.3685919806    -2.6373305155     0.8105387004
   16      O       5.4982370475    -0.4597952584     0.3146946005
   17      O       2.7818781942     1.3955311881     1.2152088533
   18      C       6.5437211031     0.4703028882     0.7981048558
   19      C       1.5831579971    -1.4072377189     0.3042979434
   20      C       1.1268865949    -2.5830010773    -0.6444599579
   21      C       2.5147700288    -3.1180320104    -1.1554670452
   22      C       3.5140136204    -2.1681752511    -0.3826455510
   23      O       2.8330203135    -1.9176043284     0.9105187208
   24      H       1.3985438824    -0.0586273429    -1.4714441307
   25      H       3.5261835722    -0.8355865576    -2.1896881961
   26      H       0.8425321486    -1.1239905486     1.0785814530
   27      H       0.5909797553    -3.3508222631    -0.0646357585
   28      H       0.4728765747    -2.2321370046    -1.4586466904
   29      H       2.6760245679    -4.1683476234    -0.8654872783
   30      H       2.6266861029    -3.0332211773    -2.2482397658
   31      H       4.5260272220    -2.5811463151    -0.2118966197
   32      O      -2.5567401984     1.3104855027     2.4304916941
   33      C      -2.2821525422    -3.5096645145     1.3140673577
   34      C      -4.0807541024    -0.5536207634    -1.5136526647
   35      C      -5.3922022375     0.1396803138    -2.0575941644
   36      C      -5.0043959090     1.6605783554    -1.9454515942
   37      C      -3.5744492968     1.5587558138    -1.2836722421
   38      O      -2.9914565672     0.3580680943    -1.9286385116
   39      H      -5.0103876621    -0.7358708296     0.5281800079
   40      H      -4.6534409636     1.6266882471     0.6722440953
   41      H      -1.8609636543    -3.1282376817     2.2662763949
   42      H      -3.8988940991    -1.5792121828    -1.8900827715
   43      H      -5.5818770788    -0.1564514660    -3.1014836817
   44      H      -6.2751163424    -0.1193221558    -1.4514572500
   45      H      -4.9323008289     2.1306969582    -2.9392383963
   46      H      -5.7125065193     2.2386945077    -1.3306336445
   47      H      -2.9123492005     2.4335698247    -1.4272096062
   48      H      -1.4598940898    -3.5986857184     0.5755460855
   49      H      -2.7394392667    -4.5023443244     1.4795644560
   50      H       7.1263379993    -0.0921253366     1.5506513637
   51      H       6.0963207464     1.3694175805     1.2688135944
   52      H       7.2137684457     0.7970523997    -0.0234753232
   53      H       0.3494296001     3.9122166298    -0.0868829291
   54      H       1.5491007982     3.4086183708     1.1800327500
   55      H      -0.0317095267     1.5665076895     1.9441632473
   56      H      -0.7925857264     3.1880332592     2.1071586899
 ----------------------------------------------------------------

   11   -1510.2815338423      2.89E-09 Convergence criterion met
 Total energy in the final basis set = -1510.28153384
 Final energy is   -1510.28153384232
 **  OPTIMIZATION CONVERGED  **

                    Orbital Energies (a.u.)
 --------------------------------------------------------------

 Alpha MOs
 -- Occupied --
-18.943 -18.929 -18.927 -18.923 -18.888 -18.884 -18.881 -18.871
-18.863 -18.859 -10.106 -10.094 -10.093 -10.091 -10.070 -10.070
-10.068 -10.063 -10.058 -10.056 -10.053 -10.052 -10.041 -10.035
-10.031 -10.028 -10.022 -10.020 -10.016 -10.014  -1.019  -1.008
 -1.004  -0.999  -0.971  -0.963  -0.944  -0.934  -0.927  -0.924
 -0.764  -0.756  -0.725  -0.720  -0.714  -0.703  -0.693  -0.668
 -0.653  -0.612  -0.596  -0.574  -0.547  -0.539  -0.538  -0.531
 -0.516  -0.503  -0.486  -0.470  -0.465  -0.453  -0.447  -0.438
 -0.436  -0.434  -0.426  -0.418  -0.414  -0.408  -0.405  -0.402
 -0.389  -0.378  -0.370  -0.367  -0.362  -0.354  -0.348  -0.345
 -0.341  -0.339  -0.335  -0.331  -0.325  -0.323  -0.318  -0.312
 -0.304  -0.303  -0.302  -0.298  -0.287  -0.280  -0.280  -0.278
 -0.270  -0.261  -0.250  -0.246  -0.238  -0.234  -0.227  -0.185
 -0.170  -0.169  -0.165  -0.160  -0.151  -0.148  -0.143  -0.141
 -0.136

          Ground-State Mulliken Net Atomic Charges

     Atom                 Charge (a.u.)
  ----------------------------------------
      1 O                    -0.210152
      2 C                     0.214663
      3 C                    -0.078048
      4 C                    -0.080928
      5 C                     0.213191
      6 O                    -0.170910
      7 C                    -0.047161
      8 C                    -0.048295
      9 O                    -0.169727
     10 C                     0.210798
     11 C                    -0.079190
     12 C                    -0.079094
     13 C                     0.210172
     14 O                    -0.218027
     15 O                    -0.168206
     16 O                    -0.165798
     17 O                    -0.211982
     18 C                    -0.126872
     19 C                     0.025059
     20 C                    -0.141936
     21 C                    -0.145002
     22 C                     0.024627
     23 O                    -0.187603
     24 H                     0.090235
     25 H                     0.083539
     26 H                     0.091954
     27 H                     0.071600
     28 H                     0.076059
     29 H                     0.075674
     30 H                     0.072375
     31 H                     0.089679
     32 O                    -0.224117
     33 C                    -0.128730
     34 C                     0.024790
     35 C                    -0.144098
     36 C                    -0.143689
     37 C                     0.024540
     38 O                    -0.189579
     39 H                     0.087730
     40 H                     0.083445
     41 H                     0.093414
     42 H                     0.082729
     43 H                     0.078137
     44 H                     0.074068
     45 H                     0.078057
     46 H                     0.073348
     47 H                     0.092511
     48 H                     0.087897
     49 H                     0.092429
     50 H                     0.089986
     51 H                     0.093884
     52 H                     0.086592
     53 H                     0.091328
     54 H                     0.096237
     55 H                     0.092151
     56 H                     0.086249
  ----------------------------------------
  Sum of atomic charges =    -0.000000

                    Cartesian Multipole Moments
 -----------------------------------------------------------------
    Charge (ESU x 10^10)
                -0.0000
    Dipole Moment (Debye)
         X      -2.5054      Y      -1.1735      Z      -1.3099
       Tot       3.0610
    Quadrupole Moments (Debye-Ang)
        XX    -146.1865     XY      -3.9584     YY    -148.8966
        XZ       2.2704     YZ       3.8574     ZZ    -165.3930

 Total job time:  50.08s(wall), 2384.28s(cpu)
        *  Thank you very much for using Q-Chem.  Have a nice day.  *
