 Q-Chem 5.0, Q-Chem, Inc., Pleasanton, CA (2017)
 Q-Chem 5.0.1 for Intel X86 EM64T Linux

User input:
--------------------------------------------------------------
$molecule
0  1
O -1.7224471962 -0.9323097117 0.9005302629
C -2.89232691 -1.3009910503 0.6470034479
C -4.0546258316 -0.4234163678 0.0720858359
C -3.7712397623 1.1275402111 0.2313928065
C -2.5555574736 1.4297638061 1.1851402806
O -1.4884797044 2.026095519 0.4416800656
C -0.4158177798 2.4404134295 1.3738440297
C 0.7320949064 3.060778915 0.5105253647
O 1.2276053272 2.0583769824 -0.4609184906
C 2.1351149305 1.1444008243 0.1749476928
C 2.0781576086 -0.2070990207 -0.6140889385
C 3.4946814467 -0.7489949754 -1.0883427083
C 4.6674301002 0.2001096133 -0.6426444459
O 4.8560079514 1.3718508332 -1.0376564734
O -3.3685919806 -2.6373305155 0.8105387004
O 5.4982370475 -0.4597952584 0.3146946005
O 2.7818781942 1.3955311881 1.2152088533
C 6.5437211031 0.4703028882 0.7981048558
C 1.5831579971 -1.4072377189 0.3042979434
C 1.1268865949 -2.5830010773 -0.6444599579
C 2.5147700288 -3.1180320104 -1.1554670452
C 3.5140136204 -2.1681752511 -0.382645551
O 2.8330203135 -1.9176043284 0.9105187208
H 1.3985438824 -0.0586273429 -1.4714441307
H 3.5261835722 -0.8355865576 -2.1896881961
H 0.8425321486 -1.1239905486 1.078581453
H 0.5909797553 -3.3508222631 -0.0646357585
H 0.4728765747 -2.2321370046 -1.4586466904
H 2.6760245679 -4.1683476234 -0.8654872783
H 2.6266861029 -3.0332211773 -2.2482397658
H 4.526027222 -2.5811463151 -0.2118966197
O -2.5567401984 1.3104855027 2.4304916941
C -2.2821525422 -3.5096645145 1.3140673577
C -4.0807541024 -0.5536207634 -1.5136526647
C -5.3922022375 0.1396803138 -2.0575941644
C -5.004395909 1.6605783554 -1.9454515942
C -3.5744492968 1.5587558138 -1.2836722421
O -2.9914565672 0.3580680943 -1.9286385116
H -5.0103876621 -0.7358708296 0.5281800079
H -4.6534409636 1.6266882471 0.6722440953
H -1.8609636543 -3.1282376817 2.2662763949
H -3.8988940991 -1.5792121828 -1.8900827715
H -5.5818770788 -0.156451466 -3.1014836817
H -6.2751163424 -0.1193221558 -1.45145725
H -4.9323008289 2.1306969582 -2.9392383963
H -5.7125065193 2.2386945077 -1.3306336445
H -2.9123492005 2.4335698247 -1.4272096062
H -1.4598940898 -3.5986857184 0.5755460855
H -2.7394392667 -4.5023443244 1.479564456
H 7.1263379993 -0.0921253366 1.5506513637
H 6.0963207464 1.3694175805 1.2688135944
H 7.2137684457 0.7970523997 -0.0234753232
H 0.3494296001 3.9122166298 -0.0868829291
H 1.5491007982 3.4086183708 1.18003275
H -0.0317095267 1.5665076895 1.9441632473
H -0.7925857264 3.1880332592 2.1071586899
$end

$rem
JOBTYPE                   OPT
METHOD                    B3LYP
DFT_D                     d3_op
BASIS                     STO-3G
GEOM_OPT_MAX_CYCLES       100
GEOM_OPT_TOL_GRADIENT     300
GEOM_OPT_TOL_DISPLACEMENT 1200
GEOM_OPT_TOL_ENERGY       100
SYMMETRY                  False
THRESH                    12
SCF_CONVERGENCE           8
MAX_SUB_FILE_NUM          128
MEM_STATIC                400
MEM_TOTAL                 4000
$end
--------------------------------------------------------------

   16   -1510.2816369778      5.31E-09 Convergence criterion met
 Total energy in the final basis set = -1510.28163698
   15   -1510.2868772571      3.54E-09 Convergence criterion met
 Total energy in the final basis set = -1510.28687726
   16   -1510.2813727231      1.22E-09 Convergence criterion met
 Total energy in the final basis set = -1510.28137272
   14   -1510.2873776090      8.57E-09 Convergence criterion met
 Total energy in the final basis set = -1510.28737761
   16   -1510.1589771720      4.64E-09 Convergence criterion met
 Total energy in the final basis set = -1510.15897717
   15   -1510.2891917079      6.48E-09 Convergence criterion met
 Total energy in the final basis set = -1510.28919171
   14   -1510.2919383947      2.22E-09 Convergence criterion met
 Total energy in the final basis set = -1510.29193839
   14   -1510.2934770914      8.05E-09 Convergence criterion met
   12   -1510.3065229987      9.07E-09 Convergence criterion met
 Total energy in the final basis set = -1510.30652300
   12   -1510.3064558957      5.31E-09 Convergence criterion met
 Total energy in the final basis set = -1510.30645590
   12   -1510.3065187648      4.12E-09 Convergence criterion met
 Total energy in the final basis set = -1510.30651876
   11   -1510.3065020647      6.99E-09 Convergence criterion met
 Total energy in the final basis set = -1510.30650206
   11   -1510.3065347851      3.61E-09 Convergence criterion met
 Total energy in the final basis set = -1510.30653479
    9   -1510.3065330501      7.24E-09 Convergence criterion met
 Total energy in the final basis set = -1510.30653305

             Standard Nuclear Orientation (Angstroms)
    I     Atom           X                Y                Z
 ----------------------------------------------------------------
    1      O      -0.4546472623     0.0583752797     1.7567900097
    2      C      -1.2276875077    -0.8848441228     1.4696896221
    3      C      -2.6579733066    -0.7667694073     0.8354421772
    4      C      -3.1863268599     0.7253509435     0.7652754473
    5      C      -2.1977310254     1.7764904989     1.3997591688
    6      O      -1.3534643492     2.3024840751     0.3681345863
    7      C      -0.3090674862     3.1625648147     0.9691936409
    8      C       0.6150179266     3.6147587333    -0.2145691603
    9      O       0.8762574205     2.5041093519    -1.1624517445
   10      C       1.7090637336     1.5083417173    -0.5689626662
   11      C       1.8480859950     0.3295727822    -1.5857798409
   12      C       2.8863824314    -0.7764104996    -1.1284453945
   13      C       3.5829420378    -0.4612800675     0.2470207656
   14      O       4.6952547614     0.0878308109     0.3987188794
   15      O      -0.9567273079    -2.2612335792     1.6922301780
   16      O       2.8170324134    -1.0161014703     1.3317656713
   17      O       2.2269829719     1.5993358034     0.5673844298
   18      C       3.4248749409    -0.6186670239     2.6199544817
   19      C       0.5099067248    -0.5238115685    -1.6921502649
   20      C       0.5980263855    -1.3929787405    -3.0068429506
   21      C       1.6451582342    -2.4906096384    -2.5846498229
   22      C       1.9538393859    -2.0601907889    -1.0953077467
   23      O       0.6575252719    -1.5306394087    -0.6165934445
   24      H       2.1164398923     0.7550975241    -2.5693226222
   25      H       3.6914829037    -0.8782060315    -1.8776630413
   26      H      -0.4477360808     0.0366208986    -1.5578753733
   27      H      -0.3833782649    -1.8377406075    -3.2368430932
   28      H       0.9268580003    -0.8023571358    -3.8764546873
   29      H       1.2072098773    -3.5012054186    -2.6096559839
   30      H       2.5488454443    -2.4816815034    -3.2146154187
   31      H       2.3121484160    -2.8720312077    -0.4338429517
   32      O      -2.2089071694     2.1867061212     2.5808054848
   33      C       0.3929333667    -2.4315955956     2.2831497002
   34      C      -2.6540523547    -1.1654074499    -0.7020762042
   35      C      -4.1446500929    -1.3819979620    -1.1712081302
   36      C      -4.6627651421     0.1032497987    -1.2397146966
   37      C      -3.3732678232     0.9026334265    -0.7990857275
   38      O      -2.2719022808     0.0961149446    -1.3779209939
   39      H      -3.3449031816    -1.4175443452     1.4055154946
   40      H      -4.1485582583     0.8175403243     1.2998700977
   41      H       0.3951028641    -2.1044158902     3.3433061140
   42      H      -1.9411070792    -1.9740238401    -0.9567524404
   43      H      -4.1693812362    -1.8648771246    -2.1611096018
   44      H      -4.7160890700    -2.0008188322    -0.4612245949
   45      H      -4.9576934349     0.3806714281    -2.2643371510
   46      H      -5.5137298471     0.2880493503    -0.5650501172
   47      H      -3.3138461206     1.9478595220    -1.1576206551
   48      H       1.1691682989    -1.8610068586     1.7203362184
   49      H       0.6049069199    -3.5153186877     2.2385704700
   50      H       2.8499677803    -1.1381252156     3.4074884214
   51      H       3.3494492075     0.4780532550     2.7662601821
   52      H       4.4921039173    -0.9145094806     2.6755717528
   53      H       0.1116255343     4.3919322577    -0.8233338704
   54      H       1.5637977429     4.0248153542     0.1952464311
   55      H       0.2769715595     2.5825731845     1.7136852551
   56      H      -0.7474016747     4.0521109124     1.4735274499
 ----------------------------------------------------------------

    9   -1510.3065336345      6.74E-09 Convergence criterion met
 Total energy in the final basis set = -1510.30653363
 Final energy is   -1510.30653363452
 **  OPTIMIZATION CONVERGED  **

                    Orbital Energies (a.u.)
 --------------------------------------------------------------

 Alpha MOs
 -- Occupied --
-18.935 -18.926 -18.926 -18.918 -18.898 -18.878 -18.878 -18.869
-18.859 -18.856 -10.100 -10.094 -10.091 -10.089 -10.073 -10.062
-10.062 -10.062 -10.054 -10.053 -10.038 -10.037 -10.035 -10.032
-10.031 -10.030 -10.023 -10.022 -10.014 -10.011  -1.014  -1.004
 -0.999  -0.994  -0.976  -0.963  -0.938  -0.927  -0.924  -0.921
 -0.763  -0.756  -0.725  -0.718  -0.710  -0.704  -0.690  -0.651
 -0.648  -0.612  -0.592  -0.573  -0.546  -0.539  -0.537  -0.529
 -0.513  -0.501  -0.483  -0.473  -0.457  -0.451  -0.441  -0.440
 -0.434  -0.433  -0.426  -0.407  -0.407  -0.401  -0.398  -0.393
 -0.386  -0.369  -0.367  -0.362  -0.360  -0.352  -0.345  -0.339
 -0.337  -0.332  -0.330  -0.329  -0.325  -0.322  -0.320  -0.310
 -0.307  -0.305  -0.298  -0.293  -0.292  -0.276  -0.274  -0.273
 -0.271  -0.257  -0.249  -0.243  -0.235  -0.233  -0.223  -0.177
 -0.169  -0.165  -0.162  -0.153  -0.152  -0.145  -0.141  -0.137
 -0.136

          Ground-State Mulliken Net Atomic Charges

     Atom                 Charge (a.u.)
  ----------------------------------------
      1 O                    -0.210649
      2 C                     0.220224
      3 C                    -0.078853
      4 C                    -0.082037
      5 C                     0.215059
      6 O                    -0.175751
      7 C                    -0.050162
      8 C                    -0.045754
      9 O                    -0.165133
     10 C                     0.218228
     11 C                    -0.079422
     12 C                    -0.081986
     13 C                     0.217738
     14 O                    -0.218979
     15 O                    -0.168826
     16 O                    -0.171653
     17 O                    -0.209510
     18 C                    -0.125991
     19 C                     0.008147
     20 C                    -0.144391
     21 C                    -0.145164
     22 C                     0.025014
     23 O                    -0.198150
     24 H                     0.085619
     25 H                     0.082686
     26 H                     0.116086
     27 H                     0.073990
     28 H                     0.071892
     29 H                     0.074598
     30 H                     0.071788
     31 H                     0.082209
     32 O                    -0.221711
     33 C                    -0.142253
     34 C                     0.025682
     35 C                    -0.143434
     36 C                    -0.143757
     37 C                     0.028107
     38 O                    -0.189047
     39 H                     0.086166
     40 H                     0.082882
     41 H                     0.075026
     42 H                     0.093750
     43 H                     0.077861
     44 H                     0.075493
     45 H                     0.077850
     46 H                     0.074640
     47 H                     0.089740
     48 H                     0.121790
     49 H                     0.079809
     50 H                     0.086972
     51 H                     0.095964
     52 H                     0.087699
     53 H                     0.089977
     54 H                     0.090926
     55 H                     0.103754
     56 H                     0.085249
  ----------------------------------------
  Sum of atomic charges =    -0.000000

                    Cartesian Multipole Moments
 -----------------------------------------------------------------
    Charge (ESU x 10^10)
                 0.0000
    Dipole Moment (Debye)
         X      -1.7123      Y      -1.0208      Z      -1.7689
       Tot       2.6651
    Quadrupole Moments (Debye-Ang)
        XX    -157.4424     XY      -2.1182     YY    -150.9411
        XZ       2.4836     YZ      -2.8982     ZZ    -158.8780

 Total job time:  121.94s(wall), 5820.46s(cpu)
        *  Thank you very much for using Q-Chem.  Have a nice day.  *
