 Q-Chem 5.0, Q-Chem, Inc., Pleasanton, CA (2017)
 Q-Chem 5.0.1 for Intel X86 EM64T Linux

User input:
--------------------------------------------------------------
$molecule
0  1
O -1.8277996975 -1.2715807104 0.470928124
C -2.9409202613 -1.5999208599 0.0082642019
C -4.3019189006 -0.8223575512 0.0310426582
C -4.3970112029 0.3673463998 1.0698857857
C -3.0161626924 0.9038846011 1.5976479771
O -2.2184160982 1.314149505 0.484273058
C -0.9715408605 1.9620752468 0.9512041593
C 0.044428056 1.9124498977 -0.2357741396
O 0.7229283844 0.5928882914 -0.252313507
C 2.1400855116 0.749108798 -0.1633056633
C 2.7765407529 -0.6771689076 -0.1868156826
C 4.2367797994 -0.7178159768 -0.8055228896
C 4.7561692705 0.6993690694 -1.2548491199
O 4.5295017323 1.2562647105 -2.3516329743
O -3.1701537137 -2.8206406727 -0.7101103421
O 5.5794795827 1.2542473463 -0.2255061684
O 2.7288640084 1.8517881757 -0.0823500375
C 5.97624219 2.6314988579 -0.592865001
C 3.0529556541 -1.2292612133 1.2823765124
C 3.2600698346 -2.7915803729 1.1812476406
C 4.6920939458 -2.8625099055 0.5334678386
C 5.0522876835 -1.3280526999 0.4097580441
O 4.4048694739 -0.7198257672 1.5966126036
H 2.0846279088 -1.3446372947 -0.7298913647
H 4.2595821785 -1.3793017695 -1.6898271104
H 2.3195839712 -0.8978730748 2.0432461173
H 3.2461011902 -3.2458216077 2.1848461828
H 2.4858213847 -3.2738076759 0.563315823
H 5.4096427074 -3.3756727509 1.1931164274
H 4.6897118694 -3.3672447711 -0.4458382853
H 6.1338158691 -1.0948573067 0.398567307
O -2.6710410452 1.0122683294 2.7950195833
C -1.9082486795 -3.5885722982 -0.8145158565
C -4.7038749175 -0.0939169986 -1.3300785325
C -6.2801977252 -0.0162945518 -1.3574972714
C -6.5383802864 1.0503731733 -0.2280058833
C -5.061077177 1.4782355149 0.1423365497
O -4.3143075266 1.317998075 -1.1278845618
H -5.0743290984 -1.5768134289 0.2677153373
H -5.0203728497 0.1036578914 1.9416952251
H -1.5239080796 -3.8812403229 0.18413561
H -4.2283068109 -0.5086946668 -2.2398813588
H -6.6265882422 0.346323621 -2.3387899095
H -6.7563889734 -0.987611314 -1.149802472
H -7.1078675554 1.9137438765 -0.6067685124
H -7.0738671181 0.6292758898 0.6382545507
H -4.955780557 2.5128285528 0.522581847
H -1.1196199728 -3.0098001625 -1.3375687547
H -2.1498577952 -4.496473378 -1.3973012868
H 6.6269094322 2.9905102393 0.225537021
H 5.0884360691 3.2906168017 -0.6798142353
H 6.5333894771 2.6571048033 -1.5518727554
H -0.4984679906 2.0417703551 -1.1959853918
H 0.8213754348 2.7020690907 -0.1304913157
H -0.5624100433 1.4421304808 1.844304632
H -1.1765985205 3.0209444934 1.2277924231
$end

$rem
JOBTYPE                   OPT
METHOD                    B3LYP
DFT_D                     d3_op
BASIS                     STO-3G
GEOM_OPT_MAX_CYCLES       100
GEOM_OPT_TOL_GRADIENT     300
GEOM_OPT_TOL_DISPLACEMENT 1200
GEOM_OPT_TOL_ENERGY       100
SYMMETRY                  False
THRESH                    12
SCF_CONVERGENCE           8
MAX_SUB_FILE_NUM          128
MEM_STATIC                400
MEM_TOTAL                 4000
$end
--------------------------------------------------------------

   16   -1510.2798585302      5.54E-09 Convergence criterion met
 Total energy in the final basis set = -1510.27985853
   14   -1510.2819524606      3.14E-09 Convergence criterion met
 Total energy in the final basis set = -1510.28195246
   14   -1510.2843444266      3.75E-09 Convergence criterion met
 Total energy in the final basis set = -1510.28434443
   14   -1510.2847336095      3.01E-09 Convergence criterion met
 Total energy in the final basis set = -1510.28473361
   14   -1510.2866810283      3.61E-09 Convergence criterion met
 Total energy in the final basis set = -1510.28668103
   14   -1510.2881111890      2.37E-09 Convergence criterion met
 Total energy in the final basis set = -1510.28811119
   14   -1510.2892549904      5.02E-09 Convergence criterion met
 Total energy in the final basis set = -1510.28925499
   14   -1510.2906110282      6.69E-09 Convergence criterion met
   12   -1510.2989605267      7.32E-09 Convergence criterion met
 Total energy in the final basis set = -1510.29896053
   12   -1510.2989213825      3.41E-09 Convergence criterion met
 Total energy in the final basis set = -1510.29892138
   12   -1510.2989640368      3.43E-09 Convergence criterion met
 Total energy in the final basis set = -1510.29896404
   10   -1510.2989702280      8.88E-09 Convergence criterion met
 Total energy in the final basis set = -1510.29897023
    9   -1510.2989672307      9.60E-09 Convergence criterion met
 Total energy in the final basis set = -1510.29896723
    9   -1510.2989657124      6.71E-09 Convergence criterion met
 Total energy in the final basis set = -1510.29896571

             Standard Nuclear Orientation (Angstroms)
    I     Atom           X                Y                Z
 ----------------------------------------------------------------
    1      O      -0.9526482610    -1.0280286876     0.5132973431
    2      C      -2.0465328380    -1.2044377538    -0.0765131896
    3      C      -3.4530621516    -0.8828325970     0.5463430874
    4      C      -3.4861803887     0.5443257189     1.2425697551
    5      C      -2.1636588360     1.3673070091     1.0748635300
    6      O      -1.9088246411     1.5310057485    -0.3289455226
    7      C      -0.6811651135     2.3304784397    -0.5436282058
    8      C       0.0080860513     1.8408378262    -1.8635187326
    9      O       0.6759336913     0.5270205355    -1.7130745931
   10      C       1.9646283642     0.6711392253    -1.0934798984
   11      C       2.6102628118    -0.7424451270    -0.9510800962
   12      C       4.1087340923    -0.7045282263    -0.4363845566
   13      C       4.6517741828     0.7433447812    -0.1374048222
   14      O       5.3538091346     1.4432632261    -0.9000640104
   15      O      -2.1946092775    -1.7368151330    -1.3825430893
   16      O       4.3056100878     1.1067348187     1.2039467380
   17      O       2.4393813010     1.7782806565    -0.7596443676
   18      C       4.7394098784     2.4952344677     1.4709827567
   19      C       1.9090524352    -1.6102617051     0.1902354076
   20      C       2.3212687555    -3.1167687079    -0.0442424425
   21      C       3.8199154528    -3.1058973516     0.4349043888
   22      C       3.9893646729    -1.5965240749     0.8715784810
   23      O       2.6572356278    -1.2372260222     1.4091915758
   24      H       2.5325009163    -1.2488397989    -1.9302721859
   25      H       4.7824062942    -1.1583782188    -1.1846409630
   26      H       0.8152441341    -1.4163842580     0.3134999190
   27      H       1.7038939379    -3.7821778848     0.5804934512
   28      H       2.2133612416    -3.4233845893    -1.0970132858
   29      H       3.9744066658    -3.7751663020     1.2960487842
   30      H       4.5248449504    -3.3891637067    -0.3632564076
   31      H       4.7772856880    -1.4079904490     1.6254139259
   32      O      -1.4511469234     1.8477384323     1.9819614352
   33      C      -0.8674631711    -1.9701056919    -2.0077655868
   34      C      -4.6210379006    -0.7350427919    -0.5152125252
   35      C      -5.9972937450    -0.8302850169     0.2524919728
   36      C      -6.0441521717     0.5714678258     0.9664911096
   37      C      -4.6955989705     1.2188106677     0.4577902871
   38      O      -4.5486700419     0.6892252159    -0.9162157373
   39      H      -3.6815380858    -1.6759065570     1.2827288233
   40      H      -3.6924703692     0.4623808111     2.3239328799
   41      H      -0.3438344009    -2.8178212033    -1.5217542257
   42      H      -4.5153128146    -1.3938068069    -1.3979437614
   43      H      -6.8277675016    -0.9460738716    -0.4620662806
   44      H      -6.0228197738    -1.6722305868     0.9626774804
   45      H      -6.9071603903     1.1681059290     0.6308571894
   46      H      -6.0766042195     0.4903583319     2.0647750095
   47      H      -4.6768953595     2.3258525177     0.4508343528
   48      H      -0.2351134047    -1.0513179925    -1.9460167964
   49      H      -1.0777692016    -2.2282595854    -3.0614342949
   50      H       4.4818771862     2.6987197306     2.5266156291
   51      H       4.2065484156     3.2121840682     0.8132262647
   52      H       5.8314552897     2.6215434955     1.3216281908
   53      H      -0.7574634186     1.6984505560    -2.6531521828
   54      H       0.7449969699     2.6069357512    -2.1876671461
   55      H      -0.0000103688     2.2343607753     0.3290317501
   56      H      -0.9502932739     3.4041714207    -0.6590026594
 ----------------------------------------------------------------

    9   -1510.2989644955      4.68E-09 Convergence criterion met
 Total energy in the final basis set = -1510.29896450
 Final energy is   -1510.29896449554
 **  OPTIMIZATION CONVERGED  **

                    Orbital Energies (a.u.)
 --------------------------------------------------------------

 Alpha MOs
 -- Occupied --
-18.949 -18.944 -18.930 -18.916 -18.891 -18.889 -18.881 -18.876
-18.876 -18.852 -10.110 -10.110 -10.099 -10.084 -10.083 -10.072
-10.062 -10.060 -10.051 -10.049 -10.048 -10.041 -10.038 -10.037
-10.035 -10.027 -10.022 -10.021 -10.012 -10.011  -1.025  -1.018
 -1.008  -0.993  -0.971  -0.958  -0.949  -0.942  -0.935  -0.918
 -0.765  -0.756  -0.729  -0.720  -0.713  -0.704  -0.693  -0.660
 -0.646  -0.618  -0.598  -0.579  -0.548  -0.539  -0.536  -0.529
 -0.517  -0.506  -0.494  -0.474  -0.470  -0.456  -0.444  -0.437
 -0.435  -0.432  -0.426  -0.415  -0.411  -0.406  -0.403  -0.397
 -0.395  -0.384  -0.373  -0.369  -0.361  -0.358  -0.353  -0.352
 -0.341  -0.334  -0.333  -0.330  -0.323  -0.322  -0.314  -0.312
 -0.306  -0.305  -0.300  -0.299  -0.295  -0.292  -0.277  -0.273
 -0.271  -0.262  -0.249  -0.248  -0.237  -0.235  -0.221  -0.193
 -0.182  -0.172  -0.162  -0.161  -0.158  -0.151  -0.145  -0.135
 -0.132

          Ground-State Mulliken Net Atomic Charges

     Atom                 Charge (a.u.)
  ----------------------------------------
      1 O                    -0.218496
      2 C                     0.222518
      3 C                    -0.077331
      4 C                    -0.078869
      5 C                     0.212067
      6 O                    -0.174476
      7 C                    -0.052255
      8 C                    -0.046941
      9 O                    -0.173050
     10 C                     0.219253
     11 C                    -0.081025
     12 C                    -0.081554
     13 C                     0.212183
     14 O                    -0.223417
     15 O                    -0.165657
     16 O                    -0.167353
     17 O                    -0.204104
     18 C                    -0.127050
     19 C                     0.005981
     20 C                    -0.145631
     21 C                    -0.145004
     22 C                     0.026602
     23 O                    -0.187386
     24 H                     0.082853
     25 H                     0.080989
     26 H                     0.113251
     27 H                     0.074738
     28 H                     0.067277
     29 H                     0.075888
     30 H                     0.070742
     31 H                     0.084603
     32 O                    -0.208472
     33 C                    -0.146930
     34 C                     0.023646
     35 C                    -0.144037
     36 C                    -0.144101
     37 C                     0.026113
     38 O                    -0.187077
     39 H                     0.085556
     40 H                     0.086216
     41 H                     0.080126
     42 H                     0.092728
     43 H                     0.077986
     44 H                     0.073239
     45 H                     0.078094
     46 H                     0.074351
     47 H                     0.082609
     48 H                     0.114989
     49 H                     0.084800
     50 H                     0.087978
     51 H                     0.090985
     52 H                     0.085053
     53 H                     0.097893
     54 H                     0.097278
     55 H                     0.106268
     56 H                     0.085363
  ----------------------------------------
  Sum of atomic charges =    -0.000000

                    Cartesian Multipole Moments
 -----------------------------------------------------------------
    Charge (ESU x 10^10)
                -0.0000
    Dipole Moment (Debye)
         X      -2.5899      Y      -1.6578      Z      -1.2099
       Tot       3.3045
    Quadrupole Moments (Debye-Ang)
        XX    -155.6048     XY      -4.4204     YY    -151.5897
        XZ      -3.4677     YZ       1.8150     ZZ    -161.9853

 Total job time:  103.13s(wall), 4915.90s(cpu)
        *  Thank you very much for using Q-Chem.  Have a nice day.  *
