 Q-Chem 5.0, Q-Chem, Inc., Pleasanton, CA (2017)
 Q-Chem 5.0.1 for Intel X86 EM64T Linux

User input:
--------------------------------------------------------------
$molecule
0  1
O -3.94934 -3.66094 2.70899
C -3.26408 -4.56952 2.26188
C -3.36658 -6.02376 2.66595
C -4.11235 -6.33895 3.97298
C -4.82551 -5.18269 4.63823
O -5.71845 -4.6256 3.76775
C -6.53434 -3.61426 4.36839
C -7.13361 -2.71468 3.29239
O -6.18703 -1.70108 2.91891
C -6.61431 -0.42223 3.06426
C -5.5757 0.59514 2.65573
C -6.14143 1.92414 2.1342
C -7.60673 2.17833 2.42575
O -8.54372 1.77705 1.75078
O -2.44578 -4.30698 1.20936
O -7.90465 2.99734 3.47414
O -7.534 -0.11979 3.8168
C -9.18233 3.34754 3.85844
C -4.70415 1.08063 3.83084
C -3.36244 1.57521 3.29524
C -3.79744 2.83669 2.57791
C -5.27644 2.88586 2.98674
O -5.30498 2.27646 4.25395
H -4.90686 0.10534 1.91026
H -5.97598 2.10189 1.04909
H -4.54784 0.30629 4.61374
H -2.75096 1.86035 4.18156
H -2.78918 0.85224 2.67569
H -3.23095 3.69397 3.00447
H -3.68877 2.81657 1.47186
H -5.64587 3.93429 2.94118
O -4.65486 -4.84637 5.80385
C -2.27418 -3.05602 0.65383
C -4.17218 -6.86501 1.66193
C -3.78744 -8.33909 1.79126
C -4.4519 -8.69149 3.10764
C -5.13646 -7.36229 3.4408
O -5.48148 -6.84525 2.17616
H -2.3168 -6.38924 2.7326
H -3.44467 -6.79417 4.73872
H -1.87235 -2.35178 1.41358
H -4.05103 -6.52268 0.61088
H -4.30191 -8.89626 0.97596
H -2.69509 -8.53732 1.74145
H -5.22218 -9.4711 2.91412
H -3.76481 -9.03092 3.9126
H -5.97762 -7.5236 4.15065
H -3.24189 -2.67405 0.26355
H -1.55292 -3.12645 -0.18595
H -9.12559 4.01932 4.73929
H -9.75935 2.43991 4.13705
H -9.69778 3.88281 3.03264
H -7.43014 -3.32192 2.41052
H -8.08119 -2.30449 3.70539
H -6.0117 -2.97053 5.11329
H -7.3647 -4.14795 4.88198
$end

$opt
CONSTRAINT
tors           1           2           3           4     -16.696
tors           3           4           5           6     +56.898
tors           4           5           6           7    +173.793
tors           5           6           7           8    +160.102
tors           6           7           8           9     -83.260
tors           7           8           9          10    -122.645
tors           8           9          10          11    -180.000
tors           9          10          11          12    +151.153
tors          11          12          13          14     -84.757
ENDCONSTRAINT
$end

$rem
JOBTYPE                   OPT
METHOD                    B3LYP
DFT_D                     d3_op
BASIS                     STO-3G
GEOM_OPT_MAX_CYCLES       100
GEOM_OPT_TOL_GRADIENT     300
GEOM_OPT_TOL_DISPLACEMENT 1200
GEOM_OPT_TOL_ENERGY       100
SYMMETRY                  False
THRESH                    12
SCF_CONVERGENCE           8
MAX_SUB_FILE_NUM          128
MEM_STATIC                400
MEM_TOTAL                 4000
$end
--------------------------------------------------------------

   15   -1510.1428615484      6.46E-09 Convergence criterion met
 Total energy in the final basis set = -1510.14286155
   13   -1510.2126861950      8.38E-09 Convergence criterion met
 Total energy in the final basis set = -1510.21268620
   14   -1510.2490094110      6.83E-09 Convergence criterion met
 Total energy in the final basis set = -1510.24900941
   14   -1510.2678619239      1.85E-09 Convergence criterion met
 Total energy in the final basis set = -1510.26786192
   13   -1510.2747448772      6.21E-09 Convergence criterion met
 Total energy in the final basis set = -1510.27474488
   13   -1510.2775347283      3.69E-09 Convergence criterion met
 Total energy in the final basis set = -1510.27753473
   13   -1510.2787197506      1.83E-09 Convergence criterion met
 Total energy in the final basis set = -1510.27871975
   12   -1510.2791975422      6.58E-09 Convergence criterion met
   11   -1510.2798810003      9.09E-09 Convergence criterion met
 Total energy in the final basis set = -1510.27988100
   11   -1510.2799269959      5.18E-09 Convergence criterion met
 Total energy in the final basis set = -1510.27992700
   10   -1510.2799500293      6.22E-09 Convergence criterion met
 Total energy in the final basis set = -1510.27995003
   11   -1510.2799648593      2.68E-09 Convergence criterion met
 Total energy in the final basis set = -1510.27996486
    9   -1510.2799727479      8.56E-09 Convergence criterion met
 Total energy in the final basis set = -1510.27997275
    9   -1510.2799741592      7.04E-09 Convergence criterion met
 Total energy in the final basis set = -1510.27997416

             Standard Nuclear Orientation (Angstroms)
    I     Atom           X                Y                Z
 ----------------------------------------------------------------
    1      O      -1.8277996975    -1.2715807104     0.4709281240
    2      C      -2.9409202613    -1.5999208599     0.0082642019
    3      C      -4.3019189006    -0.8223575512     0.0310426582
    4      C      -4.3970112029     0.3673463998     1.0698857857
    5      C      -3.0161626924     0.9038846011     1.5976479771
    6      O      -2.2184160982     1.3141495050     0.4842730580
    7      C      -0.9715408605     1.9620752468     0.9512041593
    8      C       0.0444280560     1.9124498977    -0.2357741396
    9      O       0.7229283844     0.5928882914    -0.2523135070
   10      C       2.1400855116     0.7491087980    -0.1633056633
   11      C       2.7765407529    -0.6771689076    -0.1868156826
   12      C       4.2367797994    -0.7178159768    -0.8055228896
   13      C       4.7561692705     0.6993690694    -1.2548491199
   14      O       4.5295017323     1.2562647105    -2.3516329743
   15      O      -3.1701537137    -2.8206406727    -0.7101103421
   16      O       5.5794795827     1.2542473463    -0.2255061684
   17      O       2.7288640084     1.8517881757    -0.0823500375
   18      C       5.9762421900     2.6314988579    -0.5928650010
   19      C       3.0529556541    -1.2292612133     1.2823765124
   20      C       3.2600698346    -2.7915803729     1.1812476406
   21      C       4.6920939458    -2.8625099055     0.5334678386
   22      C       5.0522876835    -1.3280526999     0.4097580441
   23      O       4.4048694739    -0.7198257672     1.5966126036
   24      H       2.0846279088    -1.3446372947    -0.7298913647
   25      H       4.2595821785    -1.3793017695    -1.6898271104
   26      H       2.3195839712    -0.8978730748     2.0432461173
   27      H       3.2461011902    -3.2458216077     2.1848461828
   28      H       2.4858213847    -3.2738076759     0.5633158230
   29      H       5.4096427074    -3.3756727509     1.1931164274
   30      H       4.6897118694    -3.3672447711    -0.4458382853
   31      H       6.1338158691    -1.0948573067     0.3985673070
   32      O      -2.6710410452     1.0122683294     2.7950195833
   33      C      -1.9082486795    -3.5885722982    -0.8145158565
   34      C      -4.7038749175    -0.0939169986    -1.3300785325
   35      C      -6.2801977252    -0.0162945518    -1.3574972714
   36      C      -6.5383802864     1.0503731733    -0.2280058833
   37      C      -5.0610771770     1.4782355149     0.1423365497
   38      O      -4.3143075266     1.3179980750    -1.1278845618
   39      H      -5.0743290984    -1.5768134289     0.2677153373
   40      H      -5.0203728497     0.1036578914     1.9416952251
   41      H      -1.5239080796    -3.8812403229     0.1841356100
   42      H      -4.2283068109    -0.5086946668    -2.2398813588
   43      H      -6.6265882422     0.3463236210    -2.3387899095
   44      H      -6.7563889734    -0.9876113140    -1.1498024720
   45      H      -7.1078675554     1.9137438765    -0.6067685124
   46      H      -7.0738671181     0.6292758898     0.6382545507
   47      H      -4.9557805570     2.5128285528     0.5225818470
   48      H      -1.1196199728    -3.0098001625    -1.3375687547
   49      H      -2.1498577952    -4.4964733780    -1.3973012868
   50      H       6.6269094322     2.9905102393     0.2255370210
   51      H       5.0884360691     3.2906168017    -0.6798142353
   52      H       6.5333894771     2.6571048033    -1.5518727554
   53      H      -0.4984679906     2.0417703551    -1.1959853918
   54      H       0.8213754348     2.7020690907    -0.1304913157
   55      H      -0.5624100433     1.4421304808     1.8443046320
   56      H      -1.1765985205     3.0209444934     1.2277924231
 ----------------------------------------------------------------

    9   -1510.2799746161      4.78E-09 Convergence criterion met
 Total energy in the final basis set = -1510.27997462
 Final energy is   -1510.27997461611
 **  OPTIMIZATION CONVERGED  **

                    Orbital Energies (a.u.)
 --------------------------------------------------------------

 Alpha MOs
 -- Occupied --
-18.934 -18.932 -18.925 -18.922 -18.891 -18.885 -18.880 -18.876
-18.865 -18.857 -10.100 -10.099 -10.093 -10.088 -10.067 -10.066
-10.065 -10.063 -10.062 -10.058 -10.055 -10.052 -10.038 -10.036
-10.035 -10.031 -10.022 -10.021 -10.018 -10.017  -1.014  -1.012
 -1.002  -0.997  -0.972  -0.966  -0.938  -0.937  -0.926  -0.922
 -0.764  -0.760  -0.727  -0.720  -0.712  -0.706  -0.694  -0.665
 -0.650  -0.612  -0.596  -0.574  -0.546  -0.542  -0.539  -0.534
 -0.516  -0.507  -0.488  -0.476  -0.461  -0.458  -0.441  -0.437
 -0.435  -0.430  -0.418  -0.413  -0.411  -0.408  -0.403  -0.399
 -0.395  -0.377  -0.371  -0.366  -0.359  -0.351  -0.350  -0.344
 -0.342  -0.336  -0.333  -0.330  -0.329  -0.325  -0.320  -0.315
 -0.308  -0.306  -0.301  -0.299  -0.295  -0.285  -0.276  -0.274
 -0.273  -0.257  -0.246  -0.243  -0.240  -0.235  -0.230  -0.181
 -0.176  -0.167  -0.163  -0.157  -0.151  -0.145  -0.143  -0.142
 -0.137

          Ground-State Mulliken Net Atomic Charges

     Atom                 Charge (a.u.)
  ----------------------------------------
      1 O                    -0.205098
      2 C                     0.208829
      3 C                    -0.079559
      4 C                    -0.079841
      5 C                     0.212023
      6 O                    -0.164704
      7 C                    -0.045483
      8 C                    -0.053207
      9 O                    -0.167267
     10 C                     0.211460
     11 C                    -0.078477
     12 C                    -0.080305
     13 C                     0.212015
     14 O                    -0.221377
     15 O                    -0.172726
     16 O                    -0.165761
     17 O                    -0.213562
     18 C                    -0.126605
     19 C                     0.026264
     20 C                    -0.142935
     21 C                    -0.144863
     22 C                     0.026227
     23 O                    -0.185838
     24 H                     0.087293
     25 H                     0.082357
     26 H                     0.084783
     27 H                     0.077868
     28 H                     0.073128
     29 H                     0.077209
     30 H                     0.072386
     31 H                     0.088302
     32 O                    -0.218504
     33 C                    -0.128867
     34 C                     0.027047
     35 C                    -0.141876
     36 C                    -0.145188
     37 C                     0.026112
     38 O                    -0.184334
     39 H                     0.085141
     40 H                     0.084697
     41 H                     0.087956
     42 H                     0.085498
     43 H                     0.078087
     44 H                     0.074468
     45 H                     0.078220
     46 H                     0.074053
     47 H                     0.082109
     48 H                     0.089116
     49 H                     0.089871
     50 H                     0.088355
     51 H                     0.093601
     52 H                     0.085708
     53 H                     0.094318
     54 H                     0.101141
     55 H                     0.098363
     56 H                     0.082369
  ----------------------------------------
  Sum of atomic charges =    -0.000000

                    Cartesian Multipole Moments
 -----------------------------------------------------------------
    Charge (ESU x 10^10)
                -0.0000
    Dipole Moment (Debye)
         X      -2.1784      Y      -2.2795      Z      -0.8101
       Tot       3.2555
    Quadrupole Moments (Debye-Ang)
        XX    -144.9458     XY      -3.7930     YY    -148.2304
        XZ       0.1930     YZ       3.2398     ZZ    -170.0078

 Total job time:  48.80s(wall), 2319.51s(cpu)
        *  Thank you very much for using Q-Chem.  Have a nice day.  *
