 Q-Chem 5.0, Q-Chem, Inc., Pleasanton, CA (2017)
 Q-Chem 5.0.1 for Intel X86 EM64T Linux

User input:
--------------------------------------------------------------
$molecule
0  1
O -3.94934 -3.66094 2.70899
C -3.26408 -4.56952 2.26188
C -3.36658 -6.02376 2.66595
C -4.24854 -6.35491 3.88099
C -5.07036 -5.2184 4.4476
O -6.39147 -5.41329 4.16106
C -7.24013 -4.39139 4.69468
C -8.68331 -4.62737 4.26147
O -8.85165 -4.24056 2.88854
C -9.23817 -2.95626 2.68776
C -8.95317 -2.46814 1.28735
C -9.97292 -1.46313 0.73206
C -10.89975 -0.83094 1.7509
O -11.29969 -1.3672 2.77414
O -2.4029 -4.29739 1.24653
O -11.49117 0.33587 1.37619
O -9.22533 -2.15412 3.61864
C -12.4168 1.02159 2.13495
C -7.64221 -1.66701 1.19228
C -7.12105 -1.70498 -0.24173
C -8.14817 -0.83377 -0.93301
C -8.9731 -0.36992 0.2752
O -8.0439 -0.32951 1.33
H -8.87328 -3.36419 0.62921
H -10.58798 -1.83528 -0.11608
H -6.85868 -2.02048 1.89858
H -6.14172 -1.17433 -0.24421
H -6.98842 -2.71872 -0.6773
H -7.61737 0.02323 -1.40419
H -8.78336 -1.35042 -1.68475
H -9.46503 0.59693 0.03293
O -4.61747 -4.30357 5.12722
C -2.21459 -3.04368 0.70336
C -3.99674 -6.90041 1.57182
C -3.52239 -8.34198 1.73141
C -4.26937 -8.74419 2.98418
C -5.10331 -7.47988 3.23062
O -5.35121 -6.98206 1.93837
H -2.31812 -6.34273 2.86417
H -3.67646 -6.77805 4.73619
H -1.84801 -2.34057 1.48158
H -3.78908 -6.53824 0.5411
H -3.9315 -8.92032 0.87206
H -2.41982 -8.47481 1.77236
H -4.93126 -9.6034 2.73468
H -3.63175 -8.99853 3.85823
H -5.99627 -7.75123 3.83539
H -3.16727 -2.66557 0.274
H -1.45855 -3.10752 -0.10582
H -12.72667 1.93709 1.59063
H -11.96872 1.31776 3.10755
H -13.31318 0.38927 2.31073
H -8.95242 -5.69669 4.39488
H -9.37417 -4.06821 4.93362
H -6.91878 -3.36865 4.39277
H -7.20425 -4.4669 5.80511
$end

$opt
CONSTRAINT
tors           1           2           3           4      -9.774
tors           3           4           5           6    +108.587
tors           4           5           6           7    +178.571
tors           5           6           7           8    +176.430
tors           6           7           8           9     -76.099
tors           7           8           9          10     -91.263
tors           8           9          10          11    +160.504
tors           9          10          11          12    +146.738
tors          11          12          13          14     -31.487
ENDCONSTRAINT
$end

$rem
JOBTYPE                   OPT
METHOD                    B3LYP
DFT_D                     d3_op
BASIS                     STO-3G
GEOM_OPT_MAX_CYCLES       100
GEOM_OPT_TOL_GRADIENT     300
GEOM_OPT_TOL_DISPLACEMENT 1200
GEOM_OPT_TOL_ENERGY       100
SYMMETRY                  False
THRESH                    12
SCF_CONVERGENCE           8
MAX_SUB_FILE_NUM          128
MEM_STATIC                400
MEM_TOTAL                 4000
$end
--------------------------------------------------------------

   15   -1510.1334516825      7.21E-09 Convergence criterion met
 Total energy in the final basis set = -1510.13345168
   13   -1510.2047892131      8.72E-09 Convergence criterion met
 Total energy in the final basis set = -1510.20478921
   14   -1510.2435114825      3.78E-09 Convergence criterion met
 Total energy in the final basis set = -1510.24351148
   14   -1510.2624490728      3.47E-09 Convergence criterion met
 Total energy in the final basis set = -1510.26244907
   13   -1510.2705657354      8.49E-09 Convergence criterion met
 Total energy in the final basis set = -1510.27056574
   13   -1510.2743898590      5.05E-09 Convergence criterion met
 Total energy in the final basis set = -1510.27438986
   13   -1510.2766206112      2.17E-09 Convergence criterion met
 Total energy in the final basis set = -1510.27662061
   13   -1510.2780264905      3.13E-09 Convergence criterion met
   10   -1510.2815301567      5.10E-09 Convergence criterion met
 Total energy in the final basis set = -1510.28153016
   10   -1510.2815397552      8.33E-09 Convergence criterion met
 Total energy in the final basis set = -1510.28153976
    9   -1510.2815425840      6.37E-09 Convergence criterion met
 Total energy in the final basis set = -1510.28154258
    9   -1510.2815455348      4.35E-09 Convergence criterion met
 Total energy in the final basis set = -1510.28154553
    9   -1510.2815474106      3.69E-09 Convergence criterion met
 Total energy in the final basis set = -1510.28154741
    9   -1510.2815491044      3.57E-09 Convergence criterion met
 Total energy in the final basis set = -1510.28154910

             Standard Nuclear Orientation (Angstroms)
    I     Atom           X                Y                Z
 ----------------------------------------------------------------
    1      O      -1.9039512591    -0.9770200393     0.6579605731
    2      C      -3.0524062149    -1.3947803265     0.3829748414
    3      C      -4.3359415211    -0.5342777383     0.1215663278
    4      C      -4.1135669071     0.9937363693     0.4806730456
    5      C      -2.7914347599     1.2358591914     1.3009733818
    6      O      -1.8249250585     1.8929950192     0.4745945868
    7      C      -0.5998572356     2.1464583577     1.2646677021
    8      C       0.4571560592     2.7798635276     0.2991638571
    9      O       1.0209317087     1.7158108073    -0.5647402274
   10      C       2.1941118601     1.1454011955     0.0315734895
   11      C       2.4071069176    -0.2463472367    -0.6589298575
   12      C       3.9102897356    -0.6991010484    -0.8379682041
   13      C       4.9667729440     0.4435594021    -0.6250376742
   14      O       4.8245088111     1.6607300056    -0.8696249286
   15      O      -3.3770467884    -2.7746027734     0.2092518950
   16      O       6.1828166768    -0.1359390535    -0.1395801167
   17      O       2.7996259252     1.6333071650     1.0095977661
   18      C       7.2026274907     0.9200242935     0.0533416193
   19      C       1.8815865573    -1.3753227137     0.3331157969
   20      C       1.8140348480    -2.7516105959    -0.4410484882
   21      C       3.3327122990    -3.1633049681    -0.4744094632
   22      C       3.9975232399    -1.9004837407     0.2008488053
   23      O       3.0253714331    -1.5394674698     1.2592815594
   24      H       1.8530525230    -0.2467254238    -1.6135700124
   25      H       4.0630220182    -1.0814152385    -1.8651226318
   26      H       0.9577184751    -1.1057821171     0.8829320636
   27      H       1.2076526810    -3.4794639584     0.1208514249
   28      H       1.3826157910    -2.6342640980    -1.4480489082
   29      H       3.5181929721    -4.0642603403     0.1322928132
   30      H       3.7072494059    -3.3407773311    -1.4951585153
   31      H       5.0062982014    -2.0546896620     0.6291801421
   32      O      -2.6415373519     1.0251306545     2.5249921510
   33      C      -2.1638174487    -3.6062644056     0.3919117062
   34      C      -4.5858020960    -0.4307270150    -1.4463615803
   35      C      -5.9933480707     0.2415492400    -1.6967131693
   36      C      -5.6674701194     1.7533170130    -1.4043334945
   37      C      -4.1547661857     1.6545508388    -0.9612416048
   38      O      -3.6117100545     0.6054433581    -1.8565164753
   39      H      -5.1952080636    -0.9821043040     0.6517780653
   40      H      -4.9493259028     1.3564992781     1.1058016826
   41      H      -1.7394084210    -3.4899376099     1.4100852932
   42      H      -4.4087403820    -1.3756921372    -1.9965729823
   43      H      -6.3144966023     0.0880011405    -2.7391237721
   44      H      -6.7674131799    -0.1641586728    -1.0256512456
   45      H      -5.7598275887     2.3669952641    -2.3146512848
   46      H      -6.3081186854     2.1856047163    -0.6192941289
   47      H      -3.5637773688     2.5852700580    -1.0553663283
   48      H      -1.3789091915    -3.3487380003    -0.3482954041
   49      H      -2.4864257191    -4.6529236762     0.2421684772
   50      H       8.1092384286     0.4050354210     0.4208969430
   51      H       6.8729945523     1.6713196595     0.7998506724
   52      H       7.4322214729     1.4453811870    -0.8963116380
   53      H      -0.0231601029     3.5263376207    -0.3644996592
   54      H       1.2682565873     3.2537961973     0.8935385318
   55      H      -0.2044102655     1.2015372098     1.6975368950
   56      H      -0.8169919317     2.8417647368     2.1066812042
 ----------------------------------------------------------------

    8   -1510.2815497837      9.87E-09 Convergence criterion met
 Total energy in the final basis set = -1510.28154978
 Final energy is   -1510.28154978373
 **  OPTIMIZATION CONVERGED  **

                    Orbital Energies (a.u.)
 --------------------------------------------------------------

 Alpha MOs
 -- Occupied --
-18.944 -18.930 -18.921 -18.920 -18.887 -18.886 -18.883 -18.870
-18.867 -18.855 -10.106 -10.095 -10.090 -10.090 -10.070 -10.065
-10.064 -10.062 -10.061 -10.057 -10.056 -10.054 -10.040 -10.033
-10.033 -10.031 -10.021 -10.019 -10.018 -10.017  -1.020  -1.008
 -1.003  -0.997  -0.970  -0.966  -0.943  -0.933  -0.928  -0.921
 -0.763  -0.759  -0.724  -0.720  -0.713  -0.704  -0.691  -0.668
 -0.657  -0.611  -0.596  -0.573  -0.546  -0.540  -0.537  -0.534
 -0.515  -0.506  -0.485  -0.468  -0.463  -0.455  -0.448  -0.444
 -0.434  -0.431  -0.420  -0.417  -0.413  -0.409  -0.407  -0.402
 -0.389  -0.377  -0.371  -0.368  -0.360  -0.355  -0.347  -0.346
 -0.341  -0.336  -0.335  -0.329  -0.325  -0.322  -0.316  -0.312
 -0.307  -0.304  -0.301  -0.298  -0.289  -0.285  -0.279  -0.275
 -0.269  -0.261  -0.250  -0.246  -0.236  -0.233  -0.230  -0.186
 -0.174  -0.166  -0.163  -0.160  -0.153  -0.146  -0.142  -0.139
 -0.137

          Ground-State Mulliken Net Atomic Charges

     Atom                 Charge (a.u.)
  ----------------------------------------
      1 O                    -0.207800
      2 C                     0.215400
      3 C                    -0.077541
      4 C                    -0.081699
      5 C                     0.213646
      6 O                    -0.172534
      7 C                    -0.045371
      8 C                    -0.050811
      9 O                    -0.172177
     10 C                     0.213205
     11 C                    -0.077951
     12 C                    -0.079980
     13 C                     0.212927
     14 O                    -0.211214
     15 O                    -0.168283
     16 O                    -0.171679
     17 O                    -0.211693
     18 C                    -0.127814
     19 C                     0.024541
     20 C                    -0.144238
     21 C                    -0.143236
     22 C                     0.023927
     23 O                    -0.189081
     24 H                     0.088293
     25 H                     0.083156
     26 H                     0.089052
     27 H                     0.074808
     28 H                     0.073325
     29 H                     0.076847
     30 H                     0.072543
     31 H                     0.091987
     32 O                    -0.225475
     33 C                    -0.128623
     34 C                     0.024794
     35 C                    -0.144259
     36 C                    -0.143597
     37 C                     0.024938
     38 O                    -0.189266
     39 H                     0.087530
     40 H                     0.082870
     41 H                     0.091721
     42 H                     0.083693
     43 H                     0.078055
     44 H                     0.073856
     45 H                     0.077785
     46 H                     0.073373
     47 H                     0.090912
     48 H                     0.089818
     49 H                     0.092164
     50 H                     0.089505
     51 H                     0.092511
     52 H                     0.088005
     53 H                     0.092303
     54 H                     0.099221
     55 H                     0.092629
     56 H                     0.084981
  ----------------------------------------
  Sum of atomic charges =    -0.000000

                    Cartesian Multipole Moments
 -----------------------------------------------------------------
    Charge (ESU x 10^10)
                 0.0000
    Dipole Moment (Debye)
         X      -1.6033      Y      -1.8470      Z      -1.7900
       Tot       3.0309
    Quadrupole Moments (Debye-Ang)
        XX    -138.5329     XY      -4.6049     YY    -149.4764
        XZ      -1.7482     YZ       3.4323     ZZ    -167.5276

 Total job time:  65.57s(wall), 3122.16s(cpu)
        *  Thank you very much for using Q-Chem.  Have a nice day.  *
