 Q-Chem 5.0, Q-Chem, Inc., Pleasanton, CA (2017)
 Q-Chem 5.0.1 for Intel X86 EM64T Linux

User input:
--------------------------------------------------------------
$molecule
0  1
O -1.9039512591 -0.9770200393 0.6579605731
C -3.0524062149 -1.3947803265 0.3829748414
C -4.3359415211 -0.5342777383 0.1215663278
C -4.1135669071 0.9937363693 0.4806730456
C -2.7914347599 1.2358591914 1.3009733818
O -1.8249250585 1.8929950192 0.4745945868
C -0.5998572356 2.1464583577 1.2646677021
C 0.4571560592 2.7798635276 0.2991638571
O 1.0209317087 1.7158108073 -0.5647402274
C 2.1941118601 1.1454011955 0.0315734895
C 2.4071069176 -0.2463472367 -0.6589298575
C 3.9102897356 -0.6991010484 -0.8379682041
C 4.966772944 0.4435594021 -0.6250376742
O 4.8245088111 1.6607300056 -0.8696249286
O -3.3770467884 -2.7746027734 0.209251895
O 6.1828166768 -0.1359390535 -0.1395801167
O 2.7996259252 1.633307165 1.0095977661
C 7.2026274907 0.9200242935 0.0533416193
C 1.8815865573 -1.3753227137 0.3331157969
C 1.814034848 -2.7516105959 -0.4410484882
C 3.332712299 -3.1633049681 -0.4744094632
C 3.9975232399 -1.9004837407 0.2008488053
O 3.0253714331 -1.5394674698 1.2592815594
H 1.853052523 -0.2467254238 -1.6135700124
H 4.0630220182 -1.0814152385 -1.8651226318
H 0.9577184751 -1.1057821171 0.8829320636
H 1.207652681 -3.4794639584 0.1208514249
H 1.382615791 -2.634264098 -1.4480489082
H 3.5181929721 -4.0642603403 0.1322928132
H 3.7072494059 -3.3407773311 -1.4951585153
H 5.0062982014 -2.054689662 0.6291801421
O -2.6415373519 1.0251306545 2.524992151
C -2.1638174487 -3.6062644056 0.3919117062
C -4.585802096 -0.430727015 -1.4463615803
C -5.9933480707 0.24154924 -1.6967131693
C -5.6674701194 1.753317013 -1.4043334945
C -4.1547661857 1.6545508388 -0.9612416048
O -3.6117100545 0.6054433581 -1.8565164753
H -5.1952080636 -0.982104304 0.6517780653
H -4.9493259028 1.3564992781 1.1058016826
H -1.739408421 -3.4899376099 1.4100852932
H -4.408740382 -1.3756921372 -1.9965729823
H -6.3144966023 0.0880011405 -2.7391237721
H -6.7674131799 -0.1641586728 -1.0256512456
H -5.7598275887 2.3669952641 -2.3146512848
H -6.3081186854 2.1856047163 -0.6192941289
H -3.5637773688 2.585270058 -1.0553663283
H -1.3789091915 -3.3487380003 -0.3482954041
H -2.4864257191 -4.6529236762 0.2421684772
H 8.1092384286 0.405035421 0.420896943
H 6.8729945523 1.6713196595 0.7998506724
H 7.4322214729 1.445381187 -0.896311638
H -0.0231601029 3.5263376207 -0.3644996592
H 1.2682565873 3.2537961973 0.8935385318
H -0.2044102655 1.2015372098 1.697536895
H -0.8169919317 2.8417647368 2.1066812042
$end

$rem
JOBTYPE                   OPT
METHOD                    B3LYP
DFT_D                     d3_op
BASIS                     STO-3G
GEOM_OPT_MAX_CYCLES       100
GEOM_OPT_TOL_GRADIENT     300
GEOM_OPT_TOL_DISPLACEMENT 1200
GEOM_OPT_TOL_ENERGY       100
SYMMETRY                  False
THRESH                    12
SCF_CONVERGENCE           8
MAX_SUB_FILE_NUM          128
MEM_STATIC                400
MEM_TOTAL                 4000
$end
--------------------------------------------------------------

   16   -1510.2815853705      5.32E-09 Convergence criterion met
 Total energy in the final basis set = -1510.28158537
   14   -1510.2755152994      4.09E-09 Convergence criterion met
 Total energy in the final basis set = -1510.27551530
   14   -1510.2843538951      4.05E-09 Convergence criterion met
 Total energy in the final basis set = -1510.28435390
   14   -1510.2851105200      1.60E-09 Convergence criterion met
 Total energy in the final basis set = -1510.28511052
   14   -1510.2859277133      2.41E-09 Convergence criterion met
 Total energy in the final basis set = -1510.28592771
   14   -1510.2873717875      1.37E-09 Convergence criterion met
 Total energy in the final basis set = -1510.28737179
   13   -1510.2882966685      5.08E-09 Convergence criterion met
 Total energy in the final basis set = -1510.28829667
   13   -1510.2889056164      4.95E-09 Convergence criterion met
   12   -1510.3062502799      4.36E-09 Convergence criterion met
 Total energy in the final basis set = -1510.30625028
   12   -1510.3062543913      5.03E-09 Convergence criterion met
 Total energy in the final basis set = -1510.30625439
   12   -1510.3062520483      6.63E-09 Convergence criterion met
 Total energy in the final basis set = -1510.30625205
   12   -1510.3062876635      3.84E-09 Convergence criterion met
 Total energy in the final basis set = -1510.30628766
   11   -1510.3062875949      6.74E-09 Convergence criterion met
 Total energy in the final basis set = -1510.30628759
   10   -1510.3062902433      6.78E-09 Convergence criterion met
 Total energy in the final basis set = -1510.30629024

             Standard Nuclear Orientation (Angstroms)
    I     Atom           X                Y                Z
 ----------------------------------------------------------------
    1      O      -0.3534167348     0.1509171276     1.7461645505
    2      C      -1.1128044717    -0.8234691232     1.5376398576
    3      C      -2.5660881934    -0.7734263310     0.9470599909
    4      C      -3.1363152372     0.6994916031     0.8165635023
    5      C      -2.1545563824     1.8059338644     1.3598389050
    6      O      -1.3560876903     2.2944861177     0.2742139169
    7      C      -0.3012793491     3.1924794542     0.7965526726
    8      C       0.5761985445     3.5957036818    -0.4391720604
    9      O       0.8202573832     2.4394177073    -1.3355127003
   10      C       1.7091877098     1.5005052436    -0.7308860723
   11      C       1.8302217673     0.2694700522    -1.6863758003
   12      C       2.8936144554    -0.8013452696    -1.2034667055
   13      C       3.6403125099    -0.4014791975     0.1223057596
   14      O       4.7601741488     0.1481400588     0.1973034369
   15      O      -0.8035779396    -2.1787480355     1.8294726645
   16      O       2.9120852218    -0.8771138519     1.2688814030
   17      O       2.2846549873     1.6728217353     0.3677181830
   18      C       3.5634829210    -0.3912942114     2.5043367547
   19      C       0.4997510621    -0.6014409597    -1.7104296241
   20      C       0.5650898163    -1.5420069784    -2.9768475766
   21      C       1.6299331707    -2.6077833434    -2.5190351964
   22      C       1.9742542995    -2.0883527122    -1.0661226295
   23      O       0.6859505778    -1.5442221900    -0.5838108424
   24      H       2.0660987371     0.6448367315    -2.6984091174
   25      H       3.6695751415    -0.9428429998    -1.9762827996
   26      H      -0.4610546052    -0.0455412980    -1.5810006108
   27      H      -0.4177504163    -2.0048738345    -3.1602108428
   28      H       0.8701740745    -0.9980617251    -3.8848216831
   29      H       1.1980788250    -3.6202325441    -2.4725070555
   30      H       2.5171381373    -2.6313455217    -3.1716280695
   31      H       2.3588903137    -2.8579175955    -0.3696344883
   32      O      -2.1364760920     2.2766863711     2.5180213613
   33      C       0.5663646350    -2.2862896250     2.3873610382
   34      C      -2.6056945515    -1.2541208876    -0.5659153245
   35      C      -4.1065029046    -1.5313113123    -0.9668562500
   36      C      -4.6635006023    -0.0645584832    -1.1011488681
   37      C      -3.3813703510     0.7876132830    -0.7476468667
   38      O      -2.2803930308    -0.0225210886    -1.3219462228
   39      H      -3.2157151478    -1.4090524675     1.5750991744
   40      H      -4.0821721913     0.7956986081     1.3786989430
   41      H       0.5924423239    -1.8974076373     3.4261923435
   42      H      -1.8811989138    -2.0578186676    -0.8032028353
   43      H      -4.1550548631    -2.0719685545    -1.9255386976
   44      H      -4.6371114784    -2.1203950512    -0.2019227840
   45      H      -4.9955884017     0.1484032434    -2.1297468133
   46      H      -5.4983744264     0.1382395117    -0.4115888011
   47      H      -3.3607802311     1.8134028962    -1.1622698827
   48      H       1.3136182958    -1.7340083308     1.7693761807
   49      H       0.8010193127    -3.3661748106     2.3999283889
   50      H       3.0191103171    -0.8566051294     3.3456263510
   51      H       3.4878348743     0.7128193544     2.5773013941
   52      H       4.6333753023    -0.6801969222     2.5416749438
   53      H       0.0414488717     4.3337371379    -1.0695580395
   54      H       1.5322304199     4.0375924167    -0.0830392572
   55      H       0.3156575074     2.6532762757     1.5468003827
   56      H      -0.7314807923     4.1008612687     1.2735690645
 ----------------------------------------------------------------

    9   -1510.3062902846      7.43E-09 Convergence criterion met
 Total energy in the final basis set = -1510.30629028
 Final energy is   -1510.30629028463
 **  OPTIMIZATION CONVERGED  **

                    Orbital Energies (a.u.)
 --------------------------------------------------------------

 Alpha MOs
 -- Occupied --
-18.935 -18.926 -18.926 -18.918 -18.898 -18.879 -18.878 -18.869
-18.860 -18.856 -10.100 -10.094 -10.091 -10.089 -10.073 -10.062
-10.062 -10.061 -10.054 -10.053 -10.038 -10.037 -10.034 -10.032
-10.032 -10.030 -10.022 -10.021 -10.014 -10.011  -1.014  -1.004
 -0.999  -0.994  -0.976  -0.963  -0.938  -0.927  -0.925  -0.921
 -0.762  -0.757  -0.725  -0.718  -0.710  -0.704  -0.690  -0.651
 -0.648  -0.612  -0.592  -0.573  -0.546  -0.539  -0.537  -0.530
 -0.513  -0.502  -0.483  -0.473  -0.457  -0.451  -0.440  -0.440
 -0.434  -0.433  -0.426  -0.408  -0.407  -0.401  -0.398  -0.393
 -0.386  -0.369  -0.367  -0.362  -0.360  -0.352  -0.344  -0.339
 -0.336  -0.333  -0.330  -0.328  -0.325  -0.322  -0.320  -0.310
 -0.307  -0.305  -0.298  -0.293  -0.292  -0.275  -0.274  -0.273
 -0.271  -0.257  -0.249  -0.243  -0.235  -0.233  -0.223  -0.177
 -0.169  -0.165  -0.162  -0.153  -0.152  -0.145  -0.142  -0.137
 -0.136

          Ground-State Mulliken Net Atomic Charges

     Atom                 Charge (a.u.)
  ----------------------------------------
      1 O                    -0.211262
      2 C                     0.220549
      3 C                    -0.078749
      4 C                    -0.082096
      5 C                     0.214954
      6 O                    -0.175629
      7 C                    -0.050035
      8 C                    -0.045773
      9 O                    -0.165082
     10 C                     0.218271
     11 C                    -0.079293
     12 C                    -0.082094
     13 C                     0.217824
     14 O                    -0.218644
     15 O                    -0.168872
     16 O                    -0.171641
     17 O                    -0.209839
     18 C                    -0.125952
     19 C                     0.008356
     20 C                    -0.144486
     21 C                    -0.145077
     22 C                     0.025077
     23 O                    -0.198145
     24 H                     0.085664
     25 H                     0.082778
     26 H                     0.116359
     27 H                     0.074137
     28 H                     0.071850
     29 H                     0.074634
     30 H                     0.071807
     31 H                     0.082080
     32 O                    -0.221557
     33 C                    -0.142649
     34 C                     0.025625
     35 C                    -0.143455
     36 C                    -0.143768
     37 C                     0.028116
     38 O                    -0.189179
     39 H                     0.086079
     40 H                     0.082849
     41 H                     0.074898
     42 H                     0.093959
     43 H                     0.077730
     44 H                     0.075379
     45 H                     0.077846
     46 H                     0.074593
     47 H                     0.089595
     48 H                     0.121549
     49 H                     0.079621
     50 H                     0.087096
     51 H                     0.095999
     52 H                     0.087904
     53 H                     0.090037
     54 H                     0.091248
     55 H                     0.103511
     56 H                     0.085304
  ----------------------------------------
  Sum of atomic charges =    -0.000000

                    Cartesian Multipole Moments
 -----------------------------------------------------------------
    Charge (ESU x 10^10)
                 0.0000
    Dipole Moment (Debye)
         X      -1.7240      Y      -1.1376      Z      -1.6406
       Tot       2.6378
    Quadrupole Moments (Debye-Ang)
        XX    -157.6345     XY      -2.0489     YY    -151.3526
        XZ       2.6419     YZ      -3.0883     ZZ    -158.5912

 Total job time:  143.09s(wall), 6829.08s(cpu)
        *  Thank you very much for using Q-Chem.  Have a nice day.  *
