 Q-Chem 5.0, Q-Chem, Inc., Pleasanton, CA (2017)
 Q-Chem 5.0.1 for Intel X86 EM64T Linux

User input:
--------------------------------------------------------------
$molecule
0  1
O -2.1716876953 -1.4004778167 1.1545473485
C -2.7699722816 -1.5381857502 0.0640490801
C -4.1274797888 -0.8736992313 -0.3570218285
C -4.4677598833 0.4233093965 0.4886222865
C -3.370594899 0.8000117283 1.5485682685
O -2.2156501452 1.2985994964 0.8605811115
C -1.2278952558 1.7987304446 1.8437169258
C 0.0319739501 2.2374680144 1.0351010874
O 0.5281050027 1.0491019515 0.2980919439
C 1.9592765202 0.9763202963 0.3496992382
C 2.3504772216 -0.4992072967 -0.0117720852
C 3.7618007359 -0.6795773739 -0.7007059843
C 4.3975237716 0.6460689985 -1.2547451675
O 3.7968990287 1.6425450685 -1.7100110599
O -2.3091512664 -2.3781252302 -0.9966437037
O 5.8238808797 0.5291754227 -1.2029348886
O 2.6952201768 1.8850370784 0.7907057826
C 6.4496037727 1.764372846 -1.7277288398
C 2.5982959342 -1.2868987538 1.3508093399
C 2.7201131975 -2.8327766215 1.0427835757
C 4.1809779756 -2.9172121843 0.4632271497
C 4.5871113719 -1.3919221088 0.4561880747
O 3.976329065 -0.879469872 1.705091652
H 1.5343403832 -0.9445566692 -0.6065927936
H 3.665767255 -1.3638077064 -1.5654342477
H 1.8908794702 -1.0257055739 2.1619356169
H 2.61361453 -3.4200472312 1.9685676569
H 1.9584704121 -3.1703593078 0.321879958
H 4.8454815447 -3.4878560556 1.1316472164
H 4.2183050231 -3.3673438539 -0.5415251336
H 5.6729917385 -1.1795826295 0.4328400559
O -3.5010462335 0.7900786481 2.7919022939
C -1.0224405716 -3.0054878608 -0.6167213766
C -4.1043698896 -0.2841077014 -1.8309025934
C -5.596865875 -0.0287896611 -2.2794812424
C -5.9493204059 1.2559483468 -1.4413514026
C -4.5902368733 1.5022679358 -0.6726496804
O -3.5590409712 1.0798201608 -1.6478078752
H -4.9211292814 -1.637014678 -0.2515262987
H -5.41945032 0.2989360263 1.0345474891
H -1.1391123207 -3.6834482629 0.2535090752
H -3.4820564317 -0.8651838097 -2.5384507313
H -5.6447251322 0.1695755518 -3.3620932892
H -6.2525379144 -0.8833884449 -2.0482895566
H -6.1812783124 2.1127444582 -2.0937341578
H -6.7939878656 1.0974014648 -0.7520297487
H -4.4129704701 2.5462905627 -0.3501337721
H -0.2604142225 -2.2398884701 -0.3660167211
H -0.6936878219 -3.5867602722 -1.4977600407
H 7.5415717221 1.608123174 -1.6538325288
H 6.1591444445 2.652011627 -1.1294952238
H 6.1709247366 1.9468939689 -2.7858161026
H -0.2426693591 3.03425496 0.3098524564
H 0.8281306906 2.6295211529 1.704831827
H -0.9633318131 1.0007995906 2.571780499
H -1.6338886403 2.6647292791 2.4130001521
$end

$rem
JOBTYPE                   OPT
METHOD                    B3LYP
DFT_D                     d3_op
BASIS                     STO-3G
GEOM_OPT_MAX_CYCLES       100
GEOM_OPT_TOL_GRADIENT     300
GEOM_OPT_TOL_DISPLACEMENT 1200
GEOM_OPT_TOL_ENERGY       100
SYMMETRY                  False
THRESH                    12
SCF_CONVERGENCE           8
MAX_SUB_FILE_NUM          128
MEM_STATIC                400
MEM_TOTAL                 4000
$end
--------------------------------------------------------------

   16   -1510.2802724672      7.23E-09 Convergence criterion met
 Total energy in the final basis set = -1510.28027247
   14   -1510.2810670418      2.15E-09 Convergence criterion met
 Total energy in the final basis set = -1510.28106704
   14   -1510.2833662988      2.60E-09 Convergence criterion met
 Total energy in the final basis set = -1510.28336630
   13   -1510.2840878120      9.31E-09 Convergence criterion met
 Total energy in the final basis set = -1510.28408781
   13   -1510.2849102898      4.84E-09 Convergence criterion met
 Total energy in the final basis set = -1510.28491029
   13   -1510.2851027322      3.31E-09 Convergence criterion met
 Total energy in the final basis set = -1510.28510273
   13   -1510.2853610290      4.90E-09 Convergence criterion met
 Total energy in the final basis set = -1510.28536103
   13   -1510.2856239325      6.88E-09 Convergence criterion met
   12   -1510.2989226873      2.68E-09 Convergence criterion met
 Total energy in the final basis set = -1510.29892269
   11   -1510.2989280144      8.87E-09 Convergence criterion met
 Total energy in the final basis set = -1510.29892801
   11   -1510.2989304657      9.97E-09 Convergence criterion met
 Total energy in the final basis set = -1510.29893047
   10   -1510.2989210371      9.60E-09 Convergence criterion met
 Total energy in the final basis set = -1510.29892104
    9   -1510.2989251506      9.77E-09 Convergence criterion met
 Total energy in the final basis set = -1510.29892515
    9   -1510.2989263027      4.35E-09 Convergence criterion met
 Total energy in the final basis set = -1510.29892630

             Standard Nuclear Orientation (Angstroms)
    I     Atom           X                Y                Z
 ----------------------------------------------------------------
    1      O      -0.9172791667    -1.0439545392     0.3224846057
    2      C      -1.9828637440    -1.1753556969    -0.3276897676
    3      C      -3.4220004976    -0.9618427319     0.2669117742
    4      C      -3.5265570049     0.3710597143     1.1241030428
    5      C      -2.2102627982     1.2216988812     1.1437923270
    6      O      -1.8807015504     1.5766154827    -0.2078222084
    7      C      -0.6441933084     2.3913277661    -0.2440537871
    8      C       0.1030316871     2.1058706060    -1.5916995459
    9      O       0.7604267748     0.7784467332    -1.6154145671
   10      C       2.0436720878     0.8256811743    -0.9695356766
   11      C       2.6720090621    -0.6032536467    -1.0020454971
   12      C       4.1686175687    -0.6464131107    -0.4819837412
   13      C       4.7435156275     0.7534676379    -0.0458715744
   14      O       5.4296895780     1.5235038923    -0.7534605164
   15      O      -2.0685631079    -1.5562776101    -1.6909173415
   16      O       4.4518271445     0.9726419480     1.3390430456
   17      O       2.5262856405     1.8734449014    -0.4880961505
   18      C       4.9245426282     2.3146740667     1.7419162020
   19      C       1.9547192549    -1.5860563164     0.0302644588
   20      C       2.3606088644    -3.0622965608    -0.3603059412
   21      C       3.8499087736    -3.1180563202     0.1453346173
   22      C       4.0267474931    -1.6612192413     0.7303007273
   23      O       2.6917657651    -1.3473614443     1.2889651094
   24      H       2.5888984692    -0.9877886504    -2.0348252509
   25      H       4.8341456807    -1.0399556571    -1.2707252978
   26      H       0.8599120806    -1.4007778326     0.1580733343
   27      H       1.7255746275    -3.7873387400     0.1734747436
   28      H       2.2736880362    -3.2483528049    -1.4427595280
   29      H       3.9789544261    -3.8697322803     0.9402148876
   30      H       4.5677707301    -3.3330626325    -0.6624913560
   31      H       4.8074954571    -1.5550583605     1.5073326538
   32      O      -1.5546709810     1.5760682844     2.1467057926
   33      C      -0.7155066431    -1.6846993718    -2.2891146439
   34      C      -4.5409825510    -0.7124066959    -0.8270770075
   35      C      -5.9521499999    -0.9120940465    -0.1469379844
   36      C      -6.0650706439     0.4038941036     0.7093568303
   37      C      -4.7019170068     1.1178622541     0.3523589141
   38      O      -4.4728245839     0.7483939833    -1.0620936529
   39      H      -3.6585355551    -1.8429817487     0.8927108494
   40      H      -3.7983593269     0.1553813294     2.1720251108
   41      H      -0.1870444140    -2.5716132654    -1.8858253628
   42      H      -4.3772098592    -1.2655359698    -1.7713850211
   43      H      -6.7434115166    -0.9652502073    -0.9117102850
   44      H      -5.9930347488    -1.8255934203     0.4675282167
   45      H      -6.9180315483     1.0233879039     0.3897432188
   46      H      -6.1586711531     0.2040444956     1.7888613024
   47      H      -4.7012515674     2.2187064537     0.4708866542
   48      H      -0.1100538552    -0.7655845123    -2.0970898818
   49      H      -0.8823545328    -1.8221323398    -3.3728682959
   50      H       4.7058815086     2.4043664767     2.8218836087
   51      H       4.3873969126     3.1104893833     1.1864396330
   52      H       6.0138709522     2.4361767888     1.5702361269
   53      H      -0.6251153004     2.0972484208    -2.4281502537
   54      H       0.8578585117     2.9045675714    -1.7555118657
   55      H      -0.0014931903     2.1591221371     0.6324917693
   56      H      -0.9075327166     3.4719534837    -0.2043080607
 ----------------------------------------------------------------

    9   -1510.2989260677      1.50E-09 Convergence criterion met
 Total energy in the final basis set = -1510.29892607
 Final energy is   -1510.29892606773
 **  OPTIMIZATION CONVERGED  **

                    Orbital Energies (a.u.)
 --------------------------------------------------------------

 Alpha MOs
 -- Occupied --
-18.949 -18.944 -18.930 -18.917 -18.891 -18.889 -18.882 -18.876
-18.875 -18.853 -10.110 -10.110 -10.098 -10.085 -10.082 -10.073
-10.062 -10.059 -10.051 -10.049 -10.049 -10.041 -10.038 -10.037
-10.035 -10.027 -10.022 -10.021 -10.012 -10.011  -1.025  -1.018
 -1.008  -0.993  -0.971  -0.958  -0.949  -0.942  -0.935  -0.918
 -0.765  -0.756  -0.729  -0.721  -0.713  -0.704  -0.693  -0.660
 -0.646  -0.618  -0.598  -0.579  -0.548  -0.539  -0.536  -0.529
 -0.517  -0.506  -0.494  -0.474  -0.470  -0.456  -0.444  -0.437
 -0.435  -0.432  -0.426  -0.415  -0.411  -0.406  -0.403  -0.398
 -0.395  -0.384  -0.373  -0.370  -0.361  -0.358  -0.353  -0.351
 -0.341  -0.335  -0.332  -0.331  -0.323  -0.322  -0.315  -0.312
 -0.306  -0.305  -0.300  -0.299  -0.296  -0.291  -0.277  -0.273
 -0.271  -0.262  -0.249  -0.248  -0.237  -0.235  -0.221  -0.193
 -0.183  -0.172  -0.163  -0.161  -0.159  -0.151  -0.145  -0.136
 -0.132

          Ground-State Mulliken Net Atomic Charges

     Atom                 Charge (a.u.)
  ----------------------------------------
      1 O                    -0.218392
      2 C                     0.222838
      3 C                    -0.077325
      4 C                    -0.079089
      5 C                     0.212045
      6 O                    -0.174442
      7 C                    -0.051844
      8 C                    -0.047196
      9 O                    -0.172920
     10 C                     0.219208
     11 C                    -0.080740
     12 C                    -0.081673
     13 C                     0.212199
     14 O                    -0.223531
     15 O                    -0.165761
     16 O                    -0.167453
     17 O                    -0.204009
     18 C                    -0.126886
     19 C                     0.005775
     20 C                    -0.145816
     21 C                    -0.144903
     22 C                     0.026536
     23 O                    -0.187938
     24 H                     0.082813
     25 H                     0.081109
     26 H                     0.113234
     27 H                     0.074834
     28 H                     0.067168
     29 H                     0.075923
     30 H                     0.070741
     31 H                     0.085131
     32 O                    -0.208716
     33 C                    -0.146956
     34 C                     0.023646
     35 C                    -0.144169
     36 C                    -0.143985
     37 C                     0.026084
     38 O                    -0.187262
     39 H                     0.085483
     40 H                     0.085963
     41 H                     0.080095
     42 H                     0.092916
     43 H                     0.078005
     44 H                     0.073259
     45 H                     0.078094
     46 H                     0.074316
     47 H                     0.082619
     48 H                     0.115088
     49 H                     0.084811
     50 H                     0.087952
     51 H                     0.091114
     52 H                     0.085107
     53 H                     0.097799
     54 H                     0.098170
     55 H                     0.105591
     56 H                     0.085339
  ----------------------------------------
  Sum of atomic charges =    -0.000000

                    Cartesian Multipole Moments
 -----------------------------------------------------------------
    Charge (ESU x 10^10)
                -0.0000
    Dipole Moment (Debye)
         X      -2.4829      Y      -1.5003      Z      -1.4347
       Tot       3.2363
    Quadrupole Moments (Debye-Ang)
        XX    -154.9790     XY      -3.7312     YY    -151.7985
        XZ      -3.1634     YZ       2.9993     ZZ    -162.4570

 Total job time:  122.17s(wall), 5825.15s(cpu)
        *  Thank you very much for using Q-Chem.  Have a nice day.  *
