 Q-Chem 5.0, Q-Chem, Inc., Pleasanton, CA (2017)
 Q-Chem 5.0.1 for Intel X86 EM64T Linux

User input:
--------------------------------------------------------------
$molecule
0  1
O -3.94934 -3.66094 2.70899
C -3.26408 -4.56952 2.26188
C -3.36658 -6.02376 2.66595
C -4.68605 -6.48344 3.30746
C -5.81916 -5.48137 3.31123
O -6.30455 -5.32504 2.0442
C -7.4719 -4.49847 1.98636
C -7.90282 -4.29814 0.53711
O -6.84232 -3.67884 -0.20766
C -7.2272 -2.70835 -1.07321
C -6.09034 -1.80459 -1.48726
C -6.23184 -1.18549 -2.88546
C -7.61257 -1.26227 -3.50546
O -8.4243 -2.15729 -3.31947
O -2.21205 -4.25613 1.46089
O -7.86579 -0.37951 -4.50976
O -8.35368 -2.22785 -0.98433
C -9.03251 -0.34554 -5.24486
C -5.97762 -0.54786 -0.60365
C -4.55957 0.01226 -0.6727
C -4.53487 0.54013 -2.0896
C -5.99307 0.29602 -2.49596
O -6.71323 0.42678 -1.29494
H -5.1464 -2.39124 -1.40235
H -5.49055 -1.53759 -3.63557
H -6.27207 -0.72708 0.45393
H -4.52039 0.87518 0.0305
H -3.74453 -0.69505 -0.42266
H -4.30629 1.62852 -2.05244
H -3.83118 0.0244 -2.77844
H -6.27055 1.01042 -3.30107
O -6.34418 -5.0426 4.32784
C -1.93853 -2.98858 0.99583
C -3.34038 -6.98481 1.4487
C -2.84809 -8.36357 1.8895
C -4.04266 -8.85005 2.68474
C -5.02621 -7.70226 2.43197
O -4.68942 -7.2433 1.14617
H -2.46805 -6.24066 3.28632
H -4.51743 -6.76124 4.37197
H -1.76916 -2.29345 1.84571
H -2.71708 -6.61809 0.6045
H -2.76107 -8.9851 0.96922
H -1.8776 -8.3786 2.43048
H -4.41047 -9.79437 2.22549
H -3.86077 -8.99995 3.77104
H -6.07609 -8.0404 2.57563
H -2.78378 -2.63037 0.37456
H -1.02373 -3.01983 0.36935
H -8.969 0.47359 -5.99014
H -9.8993 -0.15509 -4.57643
H -9.17583 -1.30741 -5.78199
H -8.09397 -5.30325 0.10348
H -8.87219 -3.755 0.55235
H -7.2654 -3.49527 2.42484
H -8.30442 -4.98237 2.54589
$end

$opt
CONSTRAINT
tors           1           2           3           4     +21.304
tors           3           4           5           6     +71.454
tors           4           5           6           7    +173.788
tors           5           6           7           8    +176.430
tors           6           7           8           9     -59.373
tors           7           8           9          10    -138.339
tors           8           9          10          11    +161.500
tors           9          10          11          12    +151.153
tors          11          12          13          14     -31.487
ENDCONSTRAINT
$end

$rem
JOBTYPE                   OPT
METHOD                    B3LYP
DFT_D                     d3_op
BASIS                     STO-3G
GEOM_OPT_MAX_CYCLES       100
GEOM_OPT_TOL_GRADIENT     300
GEOM_OPT_TOL_DISPLACEMENT 1200
GEOM_OPT_TOL_ENERGY       100
SYMMETRY                  False
THRESH                    12
SCF_CONVERGENCE           8
MAX_SUB_FILE_NUM          128
MEM_STATIC                400
MEM_TOTAL                 4000
$end
--------------------------------------------------------------

   16   -1510.1326297046      2.23E-09 Convergence criterion met
 Total energy in the final basis set = -1510.13262970
   14   -1510.2044184489      5.86E-09 Convergence criterion met
 Total energy in the final basis set = -1510.20441845
   14   -1510.2431628823      6.95E-09 Convergence criterion met
 Total energy in the final basis set = -1510.24316288
   14   -1510.2625547809      7.46E-09 Convergence criterion met
 Total energy in the final basis set = -1510.26255478
   14   -1510.2707074656      4.11E-09 Convergence criterion met
 Total energy in the final basis set = -1510.27070747
   13   -1510.2737237874      9.09E-09 Convergence criterion met
 Total energy in the final basis set = -1510.27372379
   13   -1510.2762453477      4.23E-09 Convergence criterion met
 Total energy in the final basis set = -1510.27624535
   13   -1510.2774359025      3.15E-09 Convergence criterion met
   10   -1510.2800757164      9.03E-09 Convergence criterion met
 Total energy in the final basis set = -1510.28007572
   10   -1510.2801207841      6.81E-09 Convergence criterion met
 Total energy in the final basis set = -1510.28012078
   10   -1510.2801467043      6.51E-09 Convergence criterion met
 Total energy in the final basis set = -1510.28014670
    9   -1510.2801532196      8.31E-09 Convergence criterion met
 Total energy in the final basis set = -1510.28015322
    9   -1510.2801513975      7.24E-09 Convergence criterion met
 Total energy in the final basis set = -1510.28015140
    9   -1510.2801487887      3.93E-09 Convergence criterion met
 Total energy in the final basis set = -1510.28014879

             Standard Nuclear Orientation (Angstroms)
    I     Atom           X                Y                Z
 ----------------------------------------------------------------
    1      O      -2.1716876953    -1.4004778167     1.1545473485
    2      C      -2.7699722816    -1.5381857502     0.0640490801
    3      C      -4.1274797888    -0.8736992313    -0.3570218285
    4      C      -4.4677598833     0.4233093965     0.4886222865
    5      C      -3.3705948990     0.8000117283     1.5485682685
    6      O      -2.2156501452     1.2985994964     0.8605811115
    7      C      -1.2278952558     1.7987304446     1.8437169258
    8      C       0.0319739501     2.2374680144     1.0351010874
    9      O       0.5281050027     1.0491019515     0.2980919439
   10      C       1.9592765202     0.9763202963     0.3496992382
   11      C       2.3504772216    -0.4992072967    -0.0117720852
   12      C       3.7618007359    -0.6795773739    -0.7007059843
   13      C       4.3975237716     0.6460689985    -1.2547451675
   14      O       3.7968990287     1.6425450685    -1.7100110599
   15      O      -2.3091512664    -2.3781252302    -0.9966437037
   16      O       5.8238808797     0.5291754227    -1.2029348886
   17      O       2.6952201768     1.8850370784     0.7907057826
   18      C       6.4496037727     1.7643728460    -1.7277288398
   19      C       2.5982959342    -1.2868987538     1.3508093399
   20      C       2.7201131975    -2.8327766215     1.0427835757
   21      C       4.1809779756    -2.9172121843     0.4632271497
   22      C       4.5871113719    -1.3919221088     0.4561880747
   23      O       3.9763290650    -0.8794698720     1.7050916520
   24      H       1.5343403832    -0.9445566692    -0.6065927936
   25      H       3.6657672550    -1.3638077064    -1.5654342477
   26      H       1.8908794702    -1.0257055739     2.1619356169
   27      H       2.6136145300    -3.4200472312     1.9685676569
   28      H       1.9584704121    -3.1703593078     0.3218799580
   29      H       4.8454815447    -3.4878560556     1.1316472164
   30      H       4.2183050231    -3.3673438539    -0.5415251336
   31      H       5.6729917385    -1.1795826295     0.4328400559
   32      O      -3.5010462335     0.7900786481     2.7919022939
   33      C      -1.0224405716    -3.0054878608    -0.6167213766
   34      C      -4.1043698896    -0.2841077014    -1.8309025934
   35      C      -5.5968658750    -0.0287896611    -2.2794812424
   36      C      -5.9493204059     1.2559483468    -1.4413514026
   37      C      -4.5902368733     1.5022679358    -0.6726496804
   38      O      -3.5590409712     1.0798201608    -1.6478078752
   39      H      -4.9211292814    -1.6370146780    -0.2515262987
   40      H      -5.4194503200     0.2989360263     1.0345474891
   41      H      -1.1391123207    -3.6834482629     0.2535090752
   42      H      -3.4820564317    -0.8651838097    -2.5384507313
   43      H      -5.6447251322     0.1695755518    -3.3620932892
   44      H      -6.2525379144    -0.8833884449    -2.0482895566
   45      H      -6.1812783124     2.1127444582    -2.0937341578
   46      H      -6.7939878656     1.0974014648    -0.7520297487
   47      H      -4.4129704701     2.5462905627    -0.3501337721
   48      H      -0.2604142225    -2.2398884701    -0.3660167211
   49      H      -0.6936878219    -3.5867602722    -1.4977600407
   50      H       7.5415717221     1.6081231740    -1.6538325288
   51      H       6.1591444445     2.6520116270    -1.1294952238
   52      H       6.1709247366     1.9468939689    -2.7858161026
   53      H      -0.2426693591     3.0342549600     0.3098524564
   54      H       0.8281306906     2.6295211529     1.7048318270
   55      H      -0.9633318131     1.0007995906     2.5717804990
   56      H      -1.6338886403     2.6647292791     2.4130001521
 ----------------------------------------------------------------

    9   -1510.2801484670      2.02E-09 Convergence criterion met
 Total energy in the final basis set = -1510.28014847
 Final energy is   -1510.28014846704
 **  OPTIMIZATION CONVERGED  **

                    Orbital Energies (a.u.)
 --------------------------------------------------------------

 Alpha MOs
 -- Occupied --
-18.942 -18.931 -18.923 -18.920 -18.887 -18.886 -18.882 -18.872
-18.868 -18.860 -10.104 -10.097 -10.092 -10.089 -10.070 -10.067
-10.065 -10.061 -10.061 -10.058 -10.058 -10.057 -10.039 -10.036
-10.035 -10.032 -10.022 -10.020 -10.020 -10.019  -1.018  -1.009
 -1.004  -0.997  -0.970  -0.968  -0.941  -0.935  -0.929  -0.921
 -0.762  -0.761  -0.725  -0.721  -0.713  -0.706  -0.694  -0.667
 -0.659  -0.610  -0.597  -0.573  -0.545  -0.542  -0.537  -0.536
 -0.516  -0.508  -0.487  -0.471  -0.466  -0.459  -0.449  -0.440
 -0.434  -0.432  -0.426  -0.417  -0.413  -0.408  -0.407  -0.402
 -0.386  -0.379  -0.373  -0.372  -0.358  -0.354  -0.348  -0.346
 -0.344  -0.340  -0.330  -0.329  -0.328  -0.321  -0.318  -0.313
 -0.310  -0.304  -0.302  -0.298  -0.291  -0.285  -0.283  -0.273
 -0.272  -0.259  -0.252  -0.244  -0.240  -0.233  -0.232  -0.184
 -0.176  -0.167  -0.163  -0.158  -0.154  -0.144  -0.142  -0.142
 -0.139

          Ground-State Mulliken Net Atomic Charges

     Atom                 Charge (a.u.)
  ----------------------------------------
      1 O                    -0.207861
      2 C                     0.216440
      3 C                    -0.077890
      4 C                    -0.080983
      5 C                     0.212573
      6 O                    -0.170814
      7 C                    -0.044351
      8 C                    -0.049320
      9 O                    -0.171713
     10 C                     0.213274
     11 C                    -0.077123
     12 C                    -0.079714
     13 C                     0.213187
     14 O                    -0.210025
     15 O                    -0.168542
     16 O                    -0.171850
     17 O                    -0.210748
     18 C                    -0.127833
     19 C                     0.025018
     20 C                    -0.144431
     21 C                    -0.143178
     22 C                     0.023969
     23 O                    -0.188310
     24 H                     0.083086
     25 H                     0.082624
     26 H                     0.084129
     27 H                     0.078685
     28 H                     0.070959
     29 H                     0.078059
     30 H                     0.072563
     31 H                     0.093160
     32 O                    -0.219077
     33 C                    -0.127971
     34 C                     0.024534
     35 C                    -0.143881
     36 C                    -0.144293
     37 C                     0.026690
     38 O                    -0.185833
     39 H                     0.084980
     40 H                     0.083196
     41 H                     0.089145
     42 H                     0.089840
     43 H                     0.077755
     44 H                     0.072764
     45 H                     0.077693
     46 H                     0.073497
     47 H                     0.083474
     48 H                     0.090712
     49 H                     0.090451
     50 H                     0.089609
     51 H                     0.092962
     52 H                     0.088059
     53 H                     0.088597
     54 H                     0.097461
     55 H                     0.092020
     56 H                     0.084577
  ----------------------------------------
  Sum of atomic charges =     0.000000

                    Cartesian Multipole Moments
 -----------------------------------------------------------------
    Charge (ESU x 10^10)
                 0.0000
    Dipole Moment (Debye)
         X      -0.8101      Y      -2.3958      Z      -2.0067
       Tot       3.2284
    Quadrupole Moments (Debye-Ang)
        XX    -143.6019     XY      -3.8858     YY    -151.0292
        XZ      -0.6285     YZ       3.4626     ZZ    -166.9333

 Total job time:  58.58s(wall), 2788.40s(cpu)
        *  Thank you very much for using Q-Chem.  Have a nice day.  *
