 Q-Chem 5.0, Q-Chem, Inc., Pleasanton, CA (2017)
 Q-Chem 5.0.1 for Intel X86 EM64T Linux

User input:
--------------------------------------------------------------
$molecule
0  1
O -3.94934 -3.66094 2.70899
C -3.26408 -4.56952 2.26188
C -3.36658 -6.02376 2.66595
C -4.77739 -6.5947 2.88387
C -5.93421 -5.6983 2.50132
O -5.9583 -5.52443 1.14684
C -7.24773 -5.15067 0.64993
C -7.15418 -4.77661 -0.82569
O -6.99145 -3.35603 -0.96111
C -8.01998 -2.60433 -0.49611
C -7.78929 -1.12165 -0.66673
C -9.06496 -0.28291 -0.83241
C -10.36138 -0.96986 -0.4528
O -11.04416 -1.65708 -1.19851
O -2.45495 -4.28816 1.20545
O -10.85549 -0.7315 0.79547
O -9.01569 -3.08339 0.0324
C -12.02936 -1.26131 1.28952
C -7.15747 -0.4657 0.57634
C -6.41 0.79813 0.15693
C -7.57094 1.69629 -0.21875
C -8.74905 0.81318 0.21588
O -8.2408 0.06509 1.29315
H -7.08494 -0.9891 -1.52048
H -9.19788 0.16375 -1.84198
H -6.48261 -1.1467 1.14042
H -5.92748 1.2025 1.07589
H -5.63772 0.66854 -0.63155
H -7.50989 2.62153 0.39604
H -7.64253 1.95539 -1.29731
H -9.63605 1.447 0.43833
O -6.82274 -5.36829 3.27787
C -2.30526 -3.03517 0.64808
C -2.81827 -7.03812 1.63664
C -2.44899 -8.34807 2.33608
C -3.82324 -8.91779 2.62115
C -4.70833 -7.84416 1.98428
O -3.9489 -7.40272 0.88245
H -2.78055 -6.09056 3.60977
H -4.93717 -6.86977 3.95109
H -1.911 -2.32422 1.40532
H -1.94142 -6.66946 1.06294
H -1.94544 -9.00367 1.58997
H -1.79027 -8.22621 3.22275
H -3.93266 -9.87138 2.05773
H -4.05638 -9.08546 3.69484
H -5.71635 -8.25472 1.75477
H -3.2806 -2.66958 0.26067
H -1.58635 -3.09548 -0.19449
H -12.18179 -0.90159 2.32766
H -11.97262 -2.37086 1.29993
H -12.88941 -0.93396 0.66722
H -6.34349 -5.34045 -1.33443
H -8.10664 -5.05199 -1.33464
H -7.73799 -4.40318 1.2997
H -7.8677 -6.07357 0.71008
$end

$opt
CONSTRAINT
tors           1           2           3           4     +40.133
tors           3           4           5           6     +67.431
tors           4           5           6           7    +157.302
tors           5           6           7           8    +171.721
tors           6           7           8           9     -94.646
tors           7           8           9          10     -62.736
tors           8           9          10          11    -180.000
tors           9          10          11          12    +151.153
tors          11          12          13          14     -87.650
ENDCONSTRAINT
$end

$rem
JOBTYPE                   OPT
METHOD                    B3LYP
DFT_D                     d3_op
BASIS                     STO-3G
GEOM_OPT_MAX_CYCLES       100
GEOM_OPT_TOL_GRADIENT     300
GEOM_OPT_TOL_DISPLACEMENT 1200
GEOM_OPT_TOL_ENERGY       100
SYMMETRY                  False
THRESH                    12
SCF_CONVERGENCE           8
MAX_SUB_FILE_NUM          128
MEM_STATIC                400
MEM_TOTAL                 4000
$end
--------------------------------------------------------------

   15   -1510.1478543541      8.68E-09 Convergence criterion met
 Total energy in the final basis set = -1510.14785435
   14   -1510.2175892836      1.36E-09 Convergence criterion met
 Total energy in the final basis set = -1510.21758928
   14   -1510.2547326322      1.58E-09 Convergence criterion met
 Total energy in the final basis set = -1510.25473263
   13   -1510.2707319520      9.02E-09 Convergence criterion met
 Total energy in the final basis set = -1510.27073195
   13   -1510.2757118731      7.16E-09 Convergence criterion met
 Total energy in the final basis set = -1510.27571187
   13   -1510.2773469901      2.67E-09 Convergence criterion met
 Total energy in the final basis set = -1510.27734699
   12   -1510.2780863191      6.25E-09 Convergence criterion met
 Total energy in the final basis set = -1510.27808632
   12   -1510.2783795553      5.64E-09 Convergence criterion met
   12   -1510.2789332870      3.83E-09 Convergence criterion met
 Total energy in the final basis set = -1510.27893329
   11   -1510.2789726362      8.12E-09 Convergence criterion met
 Total energy in the final basis set = -1510.27897264
   11   -1510.2789875975      5.24E-09 Convergence criterion met
 Total energy in the final basis set = -1510.27898760
   10   -1510.2789927462      6.41E-09 Convergence criterion met
 Total energy in the final basis set = -1510.27899275
    9   -1510.2789951688      7.39E-09 Convergence criterion met
 Total energy in the final basis set = -1510.27899517
    9   -1510.2789963915      4.96E-09 Convergence criterion met
 Total energy in the final basis set = -1510.27899639

             Standard Nuclear Orientation (Angstroms)
    I     Atom           X                Y                Z
 ----------------------------------------------------------------
    1      O      -2.0906801265    -1.4873639354     1.2720670957
    2      C      -3.1254460456    -1.5198146118     0.5685897599
    3      C      -4.3950127600    -0.6119470976     0.7569838927
    4      C      -3.9956124147     0.8814429345     1.1222910651
    5      C      -2.4450547517     1.1158052096     1.2107914444
    6      O      -1.9002217868     0.9708034897    -0.1109340439
    7      C      -0.6069194036     1.6793846540    -0.2316498811
    8      C      -0.0113719826     1.2739126417    -1.6310660394
    9      O       0.9356921640     0.1324194763    -1.5933609438
   10      C       2.0944348992     0.4337246153    -0.8131954244
   11      C       3.0250563143    -0.8218254527    -0.8340193448
   12      C       4.5641303186    -0.4707485495    -0.6790443211
   13      C       4.8333189400     1.0717506006    -0.5019165349
   14      O       4.9962650904     1.9022325652    -1.4229474173
   15      O      -3.3220007305    -2.4280792313    -0.5157362158
   16      O       4.9370271134     1.3799067910     0.8907729310
   17      O       2.3121978433     1.5362478196    -0.2619906145
   18      C       5.0833606867     2.8412477143     1.0691976845
   19      C       2.7991248040    -1.7601784053     0.4348677576
   20      C       3.4302866329    -3.1705741192     0.1106011933
   21      C       4.9659380043    -2.8463950185     0.2243871230
   22      C       4.9292957694    -1.3144467224     0.6132483462
   23      O       3.7120186755    -1.1967762131     1.4514185065
   24      H       2.8242823454    -1.3741426492    -1.7691569209
   25      H       5.1264662156    -0.8082804269    -1.5677987734
   26      H       1.7576504493    -1.7826610019     0.8118245144
   27      H       3.1168618802    -3.9117170868     0.8633292908
   28      H       3.1433116328    -3.5381627734    -0.8877026803
   29      H       5.4449640578    -3.4348030814     1.0228780526
   30      H       5.5087057144    -3.0222105793    -0.7183150611
   31      H       5.8142893585    -0.9442467122     1.1644055124
   32      O      -1.7976919538     1.5035634099     2.2064447990
   33      C      -2.1103521155    -3.2607646447    -0.6991742120
   34      C      -5.2127810773    -0.3886579548    -0.5830636706
   35      C      -6.6153426787     0.2406884534    -0.2193057318
   36      C      -6.2060412389     1.7215409189     0.1228984272
   37      C      -4.6435601127     1.6643933943    -0.0996263144
   38      O      -4.4900633013     0.7278755065    -1.2357305249
   39      H      -5.0233901444    -1.0610072596     1.5487347180
   40      H      -4.4354388695     1.1875454707     2.0875526774
   41      H      -1.8906084166    -3.8668659734     0.2034793299
   42      H      -5.2391170944    -1.2747618551    -1.2455365916
   43      H      -7.2910783707     0.1990695109    -1.0882524479
   44      H      -7.0976490765    -0.2744380512     0.6269838432
   45      H      -6.6670715433     2.4392986700    -0.5742011399
   46      H      -6.4692155398     2.0109323283     1.1528947865
   47      H      -4.1633121943     2.6347505503    -0.3303575968
   48      H      -1.2227948802    -2.6369813366    -0.9312110861
   49      H      -2.3275833889    -3.9298899388    -1.5519769591
   50      H       5.1915216838     3.0067029597     2.1568621237
   51      H       4.1863994132     3.3781252229     0.6984206299
   52      H       5.9765196460     3.2329419272     0.5404403297
   53      H      -0.8386769068     0.9462188532    -2.2930115213
   54      H       0.4877846347     2.1588139333    -2.0835013530
   55      H       0.0860828856     1.4167476892     0.5954416127
   56      H      -0.7706851448     2.7792748562    -0.2027633644
 ----------------------------------------------------------------

    9   -1510.2789971414      3.31E-09 Convergence criterion met
 Total energy in the final basis set = -1510.27899714
 Final energy is   -1510.27899714142
 **  OPTIMIZATION CONVERGED  **

                    Orbital Energies (a.u.)
 --------------------------------------------------------------

 Alpha MOs
 -- Occupied --
-18.941 -18.937 -18.921 -18.919 -18.887 -18.885 -18.879 -18.877
-18.870 -18.856 -10.102 -10.102 -10.093 -10.088 -10.075 -10.068
-10.067 -10.061 -10.059 -10.058 -10.055 -10.051 -10.039 -10.036
-10.034 -10.031 -10.021 -10.020 -10.019 -10.017  -1.017  -1.015
 -1.002  -0.997  -0.970  -0.967  -0.941  -0.939  -0.929  -0.922
 -0.763  -0.760  -0.726  -0.721  -0.713  -0.705  -0.694  -0.664
 -0.649  -0.615  -0.596  -0.579  -0.546  -0.543  -0.537  -0.534
 -0.516  -0.508  -0.486  -0.473  -0.469  -0.455  -0.442  -0.438
 -0.433  -0.431  -0.422  -0.414  -0.413  -0.406  -0.404  -0.399
 -0.394  -0.378  -0.373  -0.366  -0.359  -0.354  -0.351  -0.348
 -0.340  -0.338  -0.334  -0.330  -0.328  -0.322  -0.321  -0.311
 -0.308  -0.304  -0.301  -0.300  -0.295  -0.288  -0.277  -0.275
 -0.274  -0.257  -0.252  -0.243  -0.240  -0.234  -0.230  -0.181
 -0.180  -0.167  -0.162  -0.157  -0.155  -0.145  -0.143  -0.142
 -0.137

          Ground-State Mulliken Net Atomic Charges

     Atom                 Charge (a.u.)
  ----------------------------------------
      1 O                    -0.212632
      2 C                     0.214482
      3 C                    -0.077911
      4 C                    -0.080035
      5 C                     0.211774
      6 O                    -0.179808
      7 C                    -0.049523
      8 C                    -0.048004
      9 O                    -0.171351
     10 C                     0.211590
     11 C                    -0.079676
     12 C                    -0.080408
     13 C                     0.212074
     14 O                    -0.222567
     15 O                    -0.167630
     16 O                    -0.165643
     17 O                    -0.210782
     18 C                    -0.126548
     19 C                     0.025285
     20 C                    -0.143328
     21 C                    -0.144736
     22 C                     0.026360
     23 O                    -0.184599
     24 H                     0.085831
     25 H                     0.082603
     26 H                     0.086004
     27 H                     0.077792
     28 H                     0.072615
     29 H                     0.077574
     30 H                     0.072746
     31 H                     0.088375
     32 O                    -0.209349
     33 C                    -0.127487
     34 C                     0.023310
     35 C                    -0.144307
     36 C                    -0.143937
     37 C                     0.026376
     38 O                    -0.188295
     39 H                     0.085075
     40 H                     0.084091
     41 H                     0.089314
     42 H                     0.091812
     43 H                     0.077734
     44 H                     0.073104
     45 H                     0.077570
     46 H                     0.073999
     47 H                     0.081608
     48 H                     0.093323
     49 H                     0.091177
     50 H                     0.088705
     51 H                     0.093210
     52 H                     0.085566
     53 H                     0.101467
     54 H                     0.089301
     55 H                     0.102766
     56 H                     0.083942
  ----------------------------------------
  Sum of atomic charges =    -0.000000

                    Cartesian Multipole Moments
 -----------------------------------------------------------------
    Charge (ESU x 10^10)
                 0.0000
    Dipole Moment (Debye)
         X      -2.0614      Y      -1.8487      Z      -1.2527
       Tot       3.0391
    Quadrupole Moments (Debye-Ang)
        XX    -143.0921     XY      -6.8510     YY    -148.8428
        XZ      -2.7558     YZ       3.3675     ZZ    -168.3942

 Total job time:  49.33s(wall), 2347.67s(cpu)
        *  Thank you very much for using Q-Chem.  Have a nice day.  *
