 Q-Chem 5.0, Q-Chem, Inc., Pleasanton, CA (2017)
 Q-Chem 5.0.1 for Intel X86 EM64T Linux

User input:
--------------------------------------------------------------
$molecule
0  1
O -2.0906801265 -1.4873639354 1.2720670957
C -3.1254460456 -1.5198146118 0.5685897599
C -4.39501276 -0.6119470976 0.7569838927
C -3.9956124147 0.8814429345 1.1222910651
C -2.4450547517 1.1158052096 1.2107914444
O -1.9002217868 0.9708034897 -0.1109340439
C -0.6069194036 1.679384654 -0.2316498811
C -0.0113719826 1.2739126417 -1.6310660394
O 0.935692164 0.1324194763 -1.5933609438
C 2.0944348992 0.4337246153 -0.8131954244
C 3.0250563143 -0.8218254527 -0.8340193448
C 4.5641303186 -0.4707485495 -0.6790443211
C 4.83331894 1.0717506006 -0.5019165349
O 4.9962650904 1.9022325652 -1.4229474173
O -3.3220007305 -2.4280792313 -0.5157362158
O 4.9370271134 1.379906791 0.890772931
O 2.3121978433 1.5362478196 -0.2619906145
C 5.0833606867 2.8412477143 1.0691976845
C 2.799124804 -1.7601784053 0.4348677576
C 3.4302866329 -3.1705741192 0.1106011933
C 4.9659380043 -2.8463950185 0.224387123
C 4.9292957694 -1.3144467224 0.6132483462
O 3.7120186755 -1.1967762131 1.4514185065
H 2.8242823454 -1.3741426492 -1.7691569209
H 5.1264662156 -0.8082804269 -1.5677987734
H 1.7576504493 -1.7826610019 0.8118245144
H 3.1168618802 -3.9117170868 0.8633292908
H 3.1433116328 -3.5381627734 -0.8877026803
H 5.4449640578 -3.4348030814 1.0228780526
H 5.5087057144 -3.0222105793 -0.7183150611
H 5.8142893585 -0.9442467122 1.1644055124
O -1.7976919538 1.5035634099 2.206444799
C -2.1103521155 -3.2607646447 -0.699174212
C -5.2127810773 -0.3886579548 -0.5830636706
C -6.6153426787 0.2406884534 -0.2193057318
C -6.2060412389 1.7215409189 0.1228984272
C -4.6435601127 1.6643933943 -0.0996263144
O -4.4900633013 0.7278755065 -1.2357305249
H -5.0233901444 -1.0610072596 1.548734718
H -4.4354388695 1.1875454707 2.0875526774
H -1.8906084166 -3.8668659734 0.2034793299
H -5.2391170944 -1.2747618551 -1.2455365916
H -7.2910783707 0.1990695109 -1.0882524479
H -7.0976490765 -0.2744380512 0.6269838432
H -6.6670715433 2.43929867 -0.5742011399
H -6.4692155398 2.0109323283 1.1528947865
H -4.1633121943 2.6347505503 -0.3303575968
H -1.2227948802 -2.6369813366 -0.9312110861
H -2.3275833889 -3.9298899388 -1.5519769591
H 5.1915216838 3.0067029597 2.1568621237
H 4.1863994132 3.3781252229 0.6984206299
H 5.976519646 3.2329419272 0.5404403297
H -0.8386769068 0.9462188532 -2.2930115213
H 0.4877846347 2.1588139333 -2.083501353
H 0.0860828856 1.4167476892 0.5954416127
H -0.7706851448 2.7792748562 -0.2027633644
$end

$rem
JOBTYPE                   OPT
METHOD                    B3LYP
DFT_D                     d3_op
BASIS                     STO-3G
GEOM_OPT_MAX_CYCLES       100
GEOM_OPT_TOL_GRADIENT     300
GEOM_OPT_TOL_DISPLACEMENT 1200
GEOM_OPT_TOL_ENERGY       100
SYMMETRY                  False
THRESH                    12
SCF_CONVERGENCE           8
MAX_SUB_FILE_NUM          128
MEM_STATIC                400
MEM_TOTAL                 4000
$end
--------------------------------------------------------------

   16   -1510.2790076815      5.07E-09 Convergence criterion met
 Total energy in the final basis set = -1510.27900768
   14   -1510.2833741590      6.82E-09 Convergence criterion met
 Total energy in the final basis set = -1510.28337416
   14   -1510.2873108003      5.81E-09 Convergence criterion met
 Total energy in the final basis set = -1510.28731080
   14   -1510.2885142094      7.83E-09 Convergence criterion met
 Total energy in the final basis set = -1510.28851421
   15   -1510.2866254645      3.20E-09 Convergence criterion met
 Total energy in the final basis set = -1510.28662546
   14   -1510.2907163115      3.10E-09 Convergence criterion met
 Total energy in the final basis set = -1510.29071631
   13   -1510.2920614105      8.86E-09 Convergence criterion met
 Total energy in the final basis set = -1510.29206141
   14   -1510.2931390199      8.19E-09 Convergence criterion met
   11   -1510.2987222045      6.59E-09 Convergence criterion met
 Total energy in the final basis set = -1510.29872220
   11   -1510.2987352996      8.89E-09 Convergence criterion met
 Total energy in the final basis set = -1510.29873530
   11   -1510.2987303550      9.95E-09 Convergence criterion met
 Total energy in the final basis set = -1510.29873035
   11   -1510.2987273935      7.05E-09 Convergence criterion met
 Total energy in the final basis set = -1510.29872739
   10   -1510.2987239569      5.42E-09 Convergence criterion met
 Total energy in the final basis set = -1510.29872396
    9   -1510.2987220480      7.77E-09 Convergence criterion met
 Total energy in the final basis set = -1510.29872205

             Standard Nuclear Orientation (Angstroms)
    I     Atom           X                Y                Z
 ----------------------------------------------------------------
    1      O      -0.9838907511    -0.9821604706     0.6428371871
    2      C      -2.0673974373    -1.1896359038     0.0443676572
    3      C      -3.4823403399    -0.8001372325     0.6076635892
    4      C      -3.5199657249     0.6907075286     1.1530930155
    5      C      -2.1964333275     1.4940716039     0.9156534991
    6      O      -1.9036698139     1.4781082453    -0.4902109746
    7      C      -0.6829933857     2.2668249740    -0.7743142073
    8      C       0.0218503939     1.6572001986    -2.0340645038
    9      O       0.6916599065     0.3674777604    -1.7464737186
   10      C       1.9799932905     0.5768956288    -1.1452255487
   11      C       2.6140247413    -0.8140956925    -0.8272676694
   12      C       4.1081634761    -0.7218015949    -0.3065808294
   13      C       4.6771966676     0.7449553565    -0.2391163790
   14      O       5.3574496173     1.3150243704    -1.1203034775
   15      O      -2.1969247919    -1.8263822660    -1.2162599122
   16      O       4.3827631059     1.3067304511     1.0453021462
   17      O       2.4609436062     1.7127762126    -0.9428265861
   18      C       4.8361429363     2.7137357394     1.0893186694
   19      C       1.8945034247    -1.5153583067     0.4113657475
   20      C       2.3135105668    -3.0390855187     0.4002409445
   21      C       3.7952716255    -2.9575438269     0.9228443041
   22      C       3.9612952325    -1.3985828576     1.1229158213
   23      O       2.6204583081    -0.9640816214     1.5750191908
   24      H       2.5367795529    -1.4400027837    -1.7345750180
   25      H       4.7781017633    -1.3008835179    -0.9668366642
   26      H       0.7973871684    -1.3164608774     0.4883892610
   27      H       1.6738785145    -3.6170462751     1.0862763924
   28      H       2.2419352387    -3.4830694861    -0.6056058266
   29      H       3.9150219650    -3.4825604339     1.8839919049
   30      H       4.5241233388    -3.3663355105     0.2048370485
   31      H       4.7353905226    -1.0945142577     1.8531239712
   32      O      -1.5117186269     2.0936229099     1.7717215683
   33      C      -0.8612684677    -2.1344360659    -1.7886380663
   34      C      -4.6341768851    -0.7593911010    -0.4818832808
   35      C      -6.0215731560    -0.7756235773     0.2712312227
   36      C      -6.0742397083     0.6902823693     0.8414048157
   37      C      -4.7175310228     1.2824292033     0.2879558982
   38      O      -4.5520177889     0.6168989995    -1.0233082405
   39      H      -3.7270915537    -1.5123888917     1.4176657171
   40      H      -3.7383539200     0.7224215721     2.2347178318
   41      H      -0.3497859802    -2.9236146024    -1.2016625991
   42      H      -4.5156462569    -1.5041417172    -1.2915055543
   43      H      -6.8420564935    -0.9604674783    -0.4402163548
   44      H      -6.0593676730    -1.5428644024     1.0610709066
   45      H      -6.9319563152     1.2512026638     0.4374650186
   46      H      -6.1198489629     0.7181164527     1.9418594092
   47      H      -4.6974313959     2.3831417955     0.1696715338
   48      H      -0.2243929943    -1.2171634555    -1.8209832797
   49      H      -1.0562582319    -2.5088341327    -2.8098362785
   50      H       4.6297731255     3.0695907288     2.1154438680
   51      H       4.2760738045     3.3350405913     0.3606886386
   52      H       5.9203293468     2.8040472160     0.8725351719
   53      H      -0.7333308369     1.4360521321    -2.8154716372
   54      H       0.7610199448     2.3916362521    -2.4201691058
   55      H      -0.0052239250     2.2654922727     0.1063815260
   56      H      -0.9618713245     3.3213308216    -0.9957909031
 ----------------------------------------------------------------

    9   -1510.2987217658      2.04E-09 Convergence criterion met
 Total energy in the final basis set = -1510.29872177
 Final energy is   -1510.29872176579
 **  OPTIMIZATION CONVERGED  **

                    Orbital Energies (a.u.)
 --------------------------------------------------------------

 Alpha MOs
 -- Occupied --
-18.950 -18.943 -18.931 -18.917 -18.891 -18.889 -18.880 -18.876
-18.875 -18.852 -10.110 -10.109 -10.099 -10.084 -10.083 -10.073
-10.063 -10.059 -10.050 -10.049 -10.048 -10.041 -10.038 -10.037
-10.035 -10.027 -10.022 -10.021 -10.012 -10.010  -1.025  -1.018
 -1.009  -0.993  -0.972  -0.958  -0.949  -0.942  -0.935  -0.918
 -0.765  -0.756  -0.729  -0.720  -0.712  -0.704  -0.693  -0.660
 -0.646  -0.618  -0.598  -0.579  -0.548  -0.539  -0.536  -0.529
 -0.517  -0.506  -0.494  -0.474  -0.470  -0.456  -0.444  -0.437
 -0.436  -0.432  -0.425  -0.415  -0.411  -0.406  -0.403  -0.398
 -0.395  -0.384  -0.373  -0.369  -0.361  -0.358  -0.353  -0.352
 -0.341  -0.335  -0.333  -0.330  -0.323  -0.321  -0.314  -0.312
 -0.306  -0.305  -0.301  -0.299  -0.295  -0.292  -0.277  -0.273
 -0.271  -0.262  -0.249  -0.248  -0.237  -0.235  -0.221  -0.193
 -0.182  -0.173  -0.163  -0.161  -0.159  -0.151  -0.145  -0.136
 -0.132

          Ground-State Mulliken Net Atomic Charges

     Atom                 Charge (a.u.)
  ----------------------------------------
      1 O                    -0.219195
      2 C                     0.222631
      3 C                    -0.077339
      4 C                    -0.078903
      5 C                     0.211903
      6 O                    -0.174093
      7 C                    -0.051797
      8 C                    -0.047055
      9 O                    -0.172975
     10 C                     0.219339
     11 C                    -0.080741
     12 C                    -0.081810
     13 C                     0.212207
     14 O                    -0.223580
     15 O                    -0.165690
     16 O                    -0.167663
     17 O                    -0.203988
     18 C                    -0.127040
     19 C                     0.005640
     20 C                    -0.145719
     21 C                    -0.144838
     22 C                     0.026634
     23 O                    -0.188215
     24 H                     0.083072
     25 H                     0.081059
     26 H                     0.113571
     27 H                     0.074865
     28 H                     0.067205
     29 H                     0.075898
     30 H                     0.070662
     31 H                     0.085167
     32 O                    -0.208339
     33 C                    -0.147092
     34 C                     0.023723
     35 C                    -0.144044
     36 C                    -0.144083
     37 C                     0.026072
     38 O                    -0.187085
     39 H                     0.085340
     40 H                     0.086364
     41 H                     0.079971
     42 H                     0.092830
     43 H                     0.077984
     44 H                     0.073252
     45 H                     0.078123
     46 H                     0.074403
     47 H                     0.082447
     48 H                     0.114846
     49 H                     0.084619
     50 H                     0.087831
     51 H                     0.091006
     52 H                     0.085388
     53 H                     0.098115
     54 H                     0.097950
     55 H                     0.105593
     56 H                     0.085571
  ----------------------------------------
  Sum of atomic charges =    -0.000000

                    Cartesian Multipole Moments
 -----------------------------------------------------------------
    Charge (ESU x 10^10)
                -0.0000
    Dipole Moment (Debye)
         X      -2.5469      Y      -1.7377      Z      -0.9971
       Tot       3.2404
    Quadrupole Moments (Debye-Ang)
        XX    -154.9880     XY      -4.3803     YY    -151.2359
        XZ      -2.4750     YZ       0.2876     ZZ    -162.9031

 Total job time:  105.96s(wall), 5051.65s(cpu)
        *  Thank you very much for using Q-Chem.  Have a nice day.  *
