 Q-Chem 5.0, Q-Chem, Inc., Pleasanton, CA (2017)
 Q-Chem 5.0.1 for Intel X86 EM64T Linux

User input:
--------------------------------------------------------------
$molecule
0  1
O -1.682797346 -0.9551562653 1.1420755181
C -2.6119695712 -1.4725656492 0.484784003
C -4.0178993724 -0.8786518471 0.1231779053
C -4.3616958318 0.5055864567 0.8129044108
C -3.1187708334 1.2125623274 1.4652386666
O -2.1720466513 1.5097424966 0.4368063532
C -1.0046848647 2.2172271847 1.0062945473
C 0.0056402782 2.412603802 -0.1725208153
O 0.5905861523 1.1014509728 -0.5414925912
C 1.8559697165 0.901931296 0.0963247884
C 2.3737371583 -0.5072681035 -0.3638856463
C 3.903095516 -0.564977222 -0.7573380835
C 4.5698297689 0.8360371204 -0.9884696468
O 3.9991259522 1.9139749184 -1.2614245117
O -2.5218552932 -2.7671165025 -0.1234854633
O 5.9892295372 0.6892663888 -0.8732592319
O 2.3584591671 1.6844220824 0.9308405192
C 6.6506987618 1.9938917566 -1.105332121
C 2.3684555133 -1.4785979144 0.8959388026
C 2.6338490374 -2.9609718146 0.4127052782
C 4.1884662278 -2.9320883465 0.1677950054
C 4.5046100444 -1.4119329831 0.4489641323
O 3.6183376347 -1.0962099834 1.5924992594
H 1.7193016903 -0.8677963077 -1.1761881497
H 4.0231576046 -1.1300319387 -1.7012953006
H 1.4927152904 -1.3515587487 1.5622445744
H 2.3564887552 -3.6815747463 1.1982697317
H 2.0690627196 -3.2023251644 -0.5020624068
H 4.7205962437 -3.5722153865 0.8896351389
H 4.4671219005 -3.2409271484 -0.8524821116
H 5.5590743744 -1.1751280009 0.6882618566
O -2.9826834965 1.5266693653 2.6678385902
C -1.1830896363 -3.3476898656 0.1308176967
C -4.2186689215 -0.5256956289 -1.4180015964
C -5.7708076637 -0.5711932463 -1.7033854403
C -6.2468400217 0.7235199777 -0.943764037
C -4.867398921 1.3231978835 -0.4541501972
O -3.9100009846 0.9172127523 -1.5098529595
H -4.761863011 -1.6419675146 0.4176196394
H -5.1412221676 0.3941414885 1.5861487063
H -1.004808161 -3.5085537029 1.2138349098
H -3.5861538176 -1.1110884184 -2.1131435749
H -5.9617791241 -0.4942794758 -2.78584577
H -6.2429876493 -1.4914306799 -1.324218079
H -6.7548246983 1.427542997 -1.6216838253
H -6.9208907178 0.4982465017 -0.1017572488
H -4.8539136653 2.4226139183 -0.3241186942
H -0.3760920501 -2.6967944375 -0.262795569
H -1.1659953593 -4.3202890537 -0.3943254656
H 7.7356299995 1.8086295245 -1.00120245
H 6.3293372945 2.7509559319 -0.3610545545
H 6.4359440628 2.3854972387 -2.1206316252
H -0.522036278 2.7963701159 -1.0689824029
H 0.8095435321 3.1137683382 0.13936439
H -0.5354698711 1.6233210461 1.8208903562
H -1.3055694748 3.2035903098 1.4254696504
$end

$rem
JOBTYPE                   OPT
METHOD                    B3LYP
DFT_D                     d3_op
BASIS                     STO-3G
GEOM_OPT_MAX_CYCLES       100
GEOM_OPT_TOL_GRADIENT     300
GEOM_OPT_TOL_DISPLACEMENT 1200
GEOM_OPT_TOL_ENERGY       100
SYMMETRY                  False
THRESH                    12
SCF_CONVERGENCE           8
MAX_SUB_FILE_NUM          128
MEM_STATIC                400
MEM_TOTAL                 4000
$end
--------------------------------------------------------------

   16   -1510.2822064250      5.96E-09 Convergence criterion met
 Total energy in the final basis set = -1510.28220643
   14   -1510.2755175334      1.86E-09 Convergence criterion met
 Total energy in the final basis set = -1510.27551753
   14   -1510.2834675133      2.73E-09 Convergence criterion met
 Total energy in the final basis set = -1510.28346751
   13   -1510.2844022589      6.44E-09 Convergence criterion met
 Total energy in the final basis set = -1510.28440226
   13   -1510.2856032712      3.47E-09 Convergence criterion met
 Total energy in the final basis set = -1510.28560327
   13   -1510.2864850357      3.76E-09 Convergence criterion met
 Total energy in the final basis set = -1510.28648504
   13   -1510.2872458194      6.32E-09 Convergence criterion met
 Total energy in the final basis set = -1510.28724582
   13   -1510.2878451293      4.76E-09 Convergence criterion met
   12   -1510.3012213175      4.50E-09 Convergence criterion met
 Total energy in the final basis set = -1510.30122132
   11   -1510.3012220886      9.92E-09 Convergence criterion met
 Total energy in the final basis set = -1510.30122209
   11   -1510.3012297401      3.00E-09 Convergence criterion met
 Total energy in the final basis set = -1510.30122974
   11   -1510.3012330524      2.70E-09 Convergence criterion met
 Total energy in the final basis set = -1510.30123305
   10   -1510.3012342210      8.72E-09 Convergence criterion met
 Total energy in the final basis set = -1510.30123422
    9   -1510.3012359969      8.11E-09 Convergence criterion met
 Total energy in the final basis set = -1510.30123600

             Standard Nuclear Orientation (Angstroms)
    I     Atom           X                Y                Z
 ----------------------------------------------------------------
    1      O      -0.6251795044    -1.8421155767    -0.4288268552
    2      C      -1.5604146508    -1.2262076906    -0.9973726819
    3      C      -3.0604742027    -1.2173667920    -0.5400460569
    4      C      -3.3664484666    -0.0948408083     0.5519929412
    5      C      -2.1013206846     0.7359452920     0.9818745631
    6      O      -2.1345847974     2.0327075680     0.3784014173
    7      C      -0.9864914147     2.8546679724     0.8354511147
    8      C       0.2486283561     2.7266526251    -0.1315154569
    9      O       0.7146220037     1.3325329416    -0.2459367402
   10      C       1.4361106136     0.9151007151     0.9385054750
   11      C       1.7409559821    -0.6141475019     0.7783802887
   12      C       2.9770661517    -0.9524722860    -0.1449721366
   13      C       3.7125168171     0.3259581916    -0.6616762507
   14      O       3.4733153768     1.5140943779    -0.3459534807
   15      O      -1.4157877050    -0.4323463897    -2.1641290162
   16      O       4.7412006695    -0.0660489580    -1.5725931307
   17      O       1.6195878145     1.6514401267     1.9276903771
   18      C       5.4666184225     1.1289899426    -2.0639241390
   19      C       2.1958289703    -1.2610661547     2.1477434442
   20      C       2.0149481188    -2.8241657991     2.0273817098
   21      C       3.2202790011    -3.1950616097     1.0858426532
   22      C       3.8864652387    -1.7781553752     0.8673719427
   23      O       3.6694538966    -1.0825159721     2.1538590958
   24      H       0.8232620127    -1.0973683291     0.3725397599
   25      H       2.6848082551    -1.5685016646    -1.0141834766
   26      H       1.7450487003    -0.7900110112     3.0423710520
   27      H       2.1105770083    -3.3047812800     3.0139596451
   28      H       1.0384428291    -3.0898217028     1.5919281868
   29      H       3.9274658228    -3.8798013239     1.5805066269
   30      H       2.8941553482    -3.6486713959     0.1363786350
   31      H       4.9618299854    -1.7960009872     0.6030924444
   32      O      -1.2062972723     0.3458131747     1.7651450992
   33      C       0.0188242382    -0.2894390052    -2.5259411760
   34      C      -4.0673902328    -0.7909021586    -1.6886037193
   35      C      -5.5292401023    -1.1869430539    -1.2371179118
   36      C      -5.8296037508    -0.0724009103    -0.1681896686
   37      C      -4.4805177374     0.7504892684    -0.1966975344
   38      O      -4.0685580325     0.6882554084    -1.6179330051
   39      H      -3.2943449319    -2.2181599961    -0.1352276323
   40      H      -3.7633468371    -0.5653569940     1.4700994990
   41      H       0.5170278110    -1.2767864438    -2.5944193362
   42      H      -3.7753356900    -1.1299361433    -2.7008061789
   43      H      -6.2243725294    -1.1280270218    -2.0896375012
   44      H      -5.5717811480    -2.2041244435    -0.8159536839
   45      H      -6.6730045452     0.5660405426    -0.4758143535
   46      H      -6.0462712203    -0.4853456709     0.8300272580
   47      H      -4.5567564321     1.8018007642     0.1395540954
   48      H       0.5186644719     0.3457987339    -1.7542379518
   49      H       0.0315503368     0.2059082576    -3.5132139820
   50      H       6.2442815189     0.7516931788    -2.7531523617
   51      H       5.9446718406     1.6862978235    -1.2326566618
   52      H       4.7909457164     1.8197808069    -2.6086015774
   53      H      -0.0384040715     3.0327531953    -1.1577534586
   54      H       1.0608799491     3.3881900985     0.2417097080
   55      H      -0.6757645347     2.5506425412     1.8571592326
   56      H      -1.3402613708     3.9058737302     0.8405391083
 ----------------------------------------------------------------

    9   -1510.3012351262      5.23E-09 Convergence criterion met
 Total energy in the final basis set = -1510.30123513
 Final energy is   -1510.30123512617
 **  OPTIMIZATION CONVERGED  **

                    Orbital Energies (a.u.)
 --------------------------------------------------------------

 Alpha MOs
 -- Occupied --
-18.939 -18.938 -18.936 -18.922 -18.886 -18.880 -18.876 -18.875
-18.875 -18.862 -10.103 -10.101 -10.100 -10.090 -10.070 -10.068
-10.067 -10.059 -10.058 -10.052 -10.044 -10.043 -10.040 -10.038
-10.030 -10.020 -10.019 -10.010 -10.010 -10.006  -1.017  -1.014
 -1.011  -0.996  -0.968  -0.959  -0.939  -0.939  -0.936  -0.925
 -0.763  -0.752  -0.724  -0.717  -0.710  -0.700  -0.689  -0.662
 -0.654  -0.614  -0.594  -0.576  -0.546  -0.537  -0.535  -0.526
 -0.514  -0.503  -0.485  -0.471  -0.469  -0.450  -0.446  -0.440
 -0.432  -0.426  -0.421  -0.414  -0.413  -0.409  -0.406  -0.401
 -0.390  -0.376  -0.375  -0.368  -0.360  -0.354  -0.349  -0.345
 -0.342  -0.337  -0.331  -0.327  -0.325  -0.323  -0.315  -0.308
 -0.306  -0.302  -0.299  -0.294  -0.288  -0.286  -0.279  -0.269
 -0.266  -0.255  -0.252  -0.247  -0.239  -0.232  -0.223  -0.188
 -0.181  -0.173  -0.161  -0.159  -0.155  -0.149  -0.142  -0.140
 -0.133

          Ground-State Mulliken Net Atomic Charges

     Atom                 Charge (a.u.)
  ----------------------------------------
      1 O                    -0.221835
      2 C                     0.213054
      3 C                    -0.078238
      4 C                    -0.077777
      5 C                     0.206254
      6 O                    -0.168164
      7 C                    -0.055033
      8 C                    -0.047127
      9 O                    -0.185159
     10 C                     0.226955
     11 C                    -0.096327
     12 C                    -0.079549
     13 C                     0.212384
     14 O                    -0.209163
     15 O                    -0.162590
     16 O                    -0.169288
     17 O                    -0.214391
     18 C                    -0.128337
     19 C                     0.025370
     20 C                    -0.144116
     21 C                    -0.143466
     22 C                     0.024956
     23 O                    -0.192573
     24 H                     0.112605
     25 H                     0.084931
     26 H                     0.089387
     27 H                     0.074483
     28 H                     0.081285
     29 H                     0.075213
     30 H                     0.072891
     31 H                     0.081785
     32 O                    -0.214322
     33 C                    -0.147919
     34 C                     0.025960
     35 C                    -0.144477
     36 C                    -0.144303
     37 C                     0.024867
     38 O                    -0.185553
     39 H                     0.084748
     40 H                     0.085407
     41 H                     0.080014
     42 H                     0.087258
     43 H                     0.077609
     44 H                     0.072744
     45 H                     0.077677
     46 H                     0.072784
     47 H                     0.088934
     48 H                     0.115784
     49 H                     0.083977
     50 H                     0.091292
     51 H                     0.091511
     52 H                     0.088921
     53 H                     0.089604
     54 H                     0.096720
     55 H                     0.103801
     56 H                     0.088540
  ----------------------------------------
  Sum of atomic charges =    -0.000000

                    Cartesian Multipole Moments
 -----------------------------------------------------------------
    Charge (ESU x 10^10)
                -0.0000
    Dipole Moment (Debye)
         X      -1.5606      Y      -0.7260      Z      -2.2436
       Tot       2.8278
    Quadrupole Moments (Debye-Ang)
        XX    -146.8769     XY       2.7629     YY    -153.3493
        XZ     -14.4550     YZ      -0.5686     ZZ    -163.1591

 Total job time:  188.31s(wall), 8991.11s(cpu)
        *  Thank you very much for using Q-Chem.  Have a nice day.  *
