 Q-Chem 5.0, Q-Chem, Inc., Pleasanton, CA (2017)
 Q-Chem 5.0.1 for Intel X86 EM64T Linux

User input:
--------------------------------------------------------------
$molecule
0  1
O -3.94934 -3.66094 2.70899
C -3.26408 -4.56952 2.26188
C -3.36658 -6.02376 2.66595
C -4.29941 -6.36267 3.84019
C -5.16093 -5.23518 4.36424
O -6.01009 -4.80606 3.38434
C -6.89044 -3.76412 3.81862
C -7.74413 -3.27716 2.65234
O -6.93006 -2.54669 1.72145
C -6.94414 -1.19848 1.86739
C -6.0692 -0.48865 0.86177
C -6.69554 0.76173 0.22731
C -7.9192 1.3162 0.92869
O -8.64809 0.68948 1.68401
O -2.38962 -4.30308 1.25788
O -8.30948 2.56338 0.55067
O -7.19051 -0.68955 2.95805
C -9.42601 3.21157 1.03603
C -4.78736 0.10106 1.47997
C -3.73032 0.30547 0.39338
C -4.32645 1.46584 -0.3692
C -5.54826 1.76353 0.50254
O -5.13587 1.42139 1.80377
H -5.77188 -1.22866 0.08292
H -6.92583 0.66942 -0.85657
H -4.37777 -0.51866 2.30784
H -2.80163 0.65138 0.90156
H -3.49676 -0.57795 -0.23219
H -3.60485 2.31247 -0.3386
H -4.61718 1.24828 -1.41984
H -5.85141 2.8238 0.35906
O -5.15242 -4.83743 5.52305
C -2.25467 -3.07294 0.65536
C -3.96714 -6.91513 1.56307
C -3.52974 -8.3651 1.77188
C -4.36058 -8.74145 2.9832
C -5.1662 -7.45341 3.18105
O -5.3396 -6.96793 1.86974
H -2.32465 -6.34322 2.89474
H -3.7288 -6.75762 4.71068
H -1.96881 -2.30398 1.40485
H -3.70625 -6.5768 0.53652
H -3.89289 -8.95308 0.89872
H -2.4336 -8.51047 1.88272
H -5.04092 -9.57436 2.69721
H -3.78133 -9.0201 3.88994
H -6.09577 -7.65623 3.75726
H -3.21279 -2.79718 0.16905
H -1.46456 -3.13119 -0.12086
H -9.50174 4.21095 0.56066
H -9.34276 3.34374 2.13604
H -10.34179 2.63049 0.79526
H -8.23359 -4.13217 2.13978
H -8.57078 -2.64748 3.0568
H -6.33204 -2.90212 4.2492
H -7.57195 -4.17923 4.59522
$end

$opt
CONSTRAINT
tors           1           2           3           4      -7.022
tors           3           4           5           6     +62.291
tors           4           5           6           7    +178.150
tors           5           6           7           8    +176.430
tors           6           7           8           9     -70.648
tors           7           8           9          10     -96.387
tors           8           9          10          11    +179.947
tors           9          10          11          12    +136.420
tors          11          12          13          14     -21.487
ENDCONSTRAINT
$end

$rem
JOBTYPE                   OPT
METHOD                    B3LYP
DFT_D                     d3_op
BASIS                     STO-3G
GEOM_OPT_MAX_CYCLES       100
GEOM_OPT_TOL_GRADIENT     300
GEOM_OPT_TOL_DISPLACEMENT 1200
GEOM_OPT_TOL_ENERGY       100
SYMMETRY                  False
THRESH                    12
SCF_CONVERGENCE           8
MAX_SUB_FILE_NUM          128
MEM_STATIC                400
MEM_TOTAL                 4000
$end
--------------------------------------------------------------

   15   -1510.1423238610      8.85E-09 Convergence criterion met
 Total energy in the final basis set = -1510.14232386
   13   -1510.2131695668      8.92E-09 Convergence criterion met
 Total energy in the final basis set = -1510.21316957
   14   -1510.2506464972      6.79E-09 Convergence criterion met
 Total energy in the final basis set = -1510.25064650
   14   -1510.2683413686      7.56E-09 Convergence criterion met
 Total energy in the final basis set = -1510.26834137
   14   -1510.2752337500      4.12E-09 Convergence criterion met
 Total energy in the final basis set = -1510.27523375
   13   -1510.2773388761      9.97E-09 Convergence criterion met
 Total energy in the final basis set = -1510.27733888
   13   -1510.2791548288      4.98E-09 Convergence criterion met
 Total energy in the final basis set = -1510.27915483
   12   -1510.2799975602      5.78E-09 Convergence criterion met
    9   -1510.2822996650      9.54E-09 Convergence criterion met
 Total energy in the final basis set = -1510.28229967
    9   -1510.2822984619      4.93E-09 Convergence criterion met
 Total energy in the final basis set = -1510.28229846
    9   -1510.2822996625      1.85E-09 Convergence criterion met
 Total energy in the final basis set = -1510.28229966
    9   -1510.2823009493      1.84E-09 Convergence criterion met
 Total energy in the final basis set = -1510.28230095
    8   -1510.2823031311      9.73E-09 Convergence criterion met
 Total energy in the final basis set = -1510.28230313
    8   -1510.2823045570      9.48E-09 Convergence criterion met
 Total energy in the final basis set = -1510.28230456

             Standard Nuclear Orientation (Angstroms)
    I     Atom           X                Y                Z
 ----------------------------------------------------------------
    1      O      -1.6827973460    -0.9551562653     1.1420755181
    2      C      -2.6119695712    -1.4725656492     0.4847840030
    3      C      -4.0178993724    -0.8786518471     0.1231779053
    4      C      -4.3616958318     0.5055864567     0.8129044108
    5      C      -3.1187708334     1.2125623274     1.4652386666
    6      O      -2.1720466513     1.5097424966     0.4368063532
    7      C      -1.0046848647     2.2172271847     1.0062945473
    8      C       0.0056402782     2.4126038020    -0.1725208153
    9      O       0.5905861523     1.1014509728    -0.5414925912
   10      C       1.8559697165     0.9019312960     0.0963247884
   11      C       2.3737371583    -0.5072681035    -0.3638856463
   12      C       3.9030955160    -0.5649772220    -0.7573380835
   13      C       4.5698297689     0.8360371204    -0.9884696468
   14      O       3.9991259522     1.9139749184    -1.2614245117
   15      O      -2.5218552932    -2.7671165025    -0.1234854633
   16      O       5.9892295372     0.6892663888    -0.8732592319
   17      O       2.3584591671     1.6844220824     0.9308405192
   18      C       6.6506987618     1.9938917566    -1.1053321210
   19      C       2.3684555133    -1.4785979144     0.8959388026
   20      C       2.6338490374    -2.9609718146     0.4127052782
   21      C       4.1884662278    -2.9320883465     0.1677950054
   22      C       4.5046100444    -1.4119329831     0.4489641323
   23      O       3.6183376347    -1.0962099834     1.5924992594
   24      H       1.7193016903    -0.8677963077    -1.1761881497
   25      H       4.0231576046    -1.1300319387    -1.7012953006
   26      H       1.4927152904    -1.3515587487     1.5622445744
   27      H       2.3564887552    -3.6815747463     1.1982697317
   28      H       2.0690627196    -3.2023251644    -0.5020624068
   29      H       4.7205962437    -3.5722153865     0.8896351389
   30      H       4.4671219005    -3.2409271484    -0.8524821116
   31      H       5.5590743744    -1.1751280009     0.6882618566
   32      O      -2.9826834965     1.5266693653     2.6678385902
   33      C      -1.1830896363    -3.3476898656     0.1308176967
   34      C      -4.2186689215    -0.5256956289    -1.4180015964
   35      C      -5.7708076637    -0.5711932463    -1.7033854403
   36      C      -6.2468400217     0.7235199777    -0.9437640370
   37      C      -4.8673989210     1.3231978835    -0.4541501972
   38      O      -3.9100009846     0.9172127523    -1.5098529595
   39      H      -4.7618630110    -1.6419675146     0.4176196394
   40      H      -5.1412221676     0.3941414885     1.5861487063
   41      H      -1.0048081610    -3.5085537029     1.2138349098
   42      H      -3.5861538176    -1.1110884184    -2.1131435749
   43      H      -5.9617791241    -0.4942794758    -2.7858457700
   44      H      -6.2429876493    -1.4914306799    -1.3242180790
   45      H      -6.7548246983     1.4275429970    -1.6216838253
   46      H      -6.9208907178     0.4982465017    -0.1017572488
   47      H      -4.8539136653     2.4226139183    -0.3241186942
   48      H      -0.3760920501    -2.6967944375    -0.2627955690
   49      H      -1.1659953593    -4.3202890537    -0.3943254656
   50      H       7.7356299995     1.8086295245    -1.0012024500
   51      H       6.3293372945     2.7509559319    -0.3610545545
   52      H       6.4359440628     2.3854972387    -2.1206316252
   53      H      -0.5220362780     2.7963701159    -1.0689824029
   54      H       0.8095435321     3.1137683382     0.1393643900
   55      H      -0.5354698711     1.6233210461     1.8208903562
   56      H      -1.3055694748     3.2035903098     1.4254696504
 ----------------------------------------------------------------

    7   -1510.2823047864      8.43E-09 Convergence criterion met
 Total energy in the final basis set = -1510.28230479
 Final energy is   -1510.28230478637
 **  OPTIMIZATION CONVERGED  **

                    Orbital Energies (a.u.)
 --------------------------------------------------------------

 Alpha MOs
 -- Occupied --
-18.937 -18.933 -18.921 -18.919 -18.889 -18.886 -18.881 -18.874
-18.862 -18.860 -10.102 -10.098 -10.089 -10.088 -10.068 -10.063
-10.063 -10.061 -10.061 -10.060 -10.058 -10.057 -10.038 -10.036
-10.033 -10.032 -10.021 -10.020 -10.020 -10.019  -1.015  -1.010
 -1.002  -0.996  -0.970  -0.968  -0.939  -0.936  -0.927  -0.920
 -0.762  -0.761  -0.725  -0.721  -0.711  -0.705  -0.691  -0.665
 -0.660  -0.610  -0.596  -0.573  -0.545  -0.542  -0.537  -0.535
 -0.515  -0.507  -0.486  -0.468  -0.462  -0.454  -0.448  -0.437
 -0.433  -0.433  -0.420  -0.414  -0.413  -0.409  -0.408  -0.404
 -0.389  -0.377  -0.374  -0.366  -0.355  -0.355  -0.349  -0.343
 -0.341  -0.336  -0.330  -0.328  -0.327  -0.324  -0.317  -0.314
 -0.311  -0.305  -0.303  -0.298  -0.293  -0.283  -0.281  -0.273
 -0.269  -0.258  -0.253  -0.243  -0.236  -0.233  -0.232  -0.182
 -0.177  -0.166  -0.163  -0.154  -0.153  -0.142  -0.142  -0.140
 -0.139

          Ground-State Mulliken Net Atomic Charges

     Atom                 Charge (a.u.)
  ----------------------------------------
      1 O                    -0.208118
      2 C                     0.212158
      3 C                    -0.078716
      4 C                    -0.080576
      5 C                     0.212306
      6 O                    -0.168381
      7 C                    -0.044614
      8 C                    -0.048736
      9 O                    -0.171581
     10 C                     0.214198
     11 C                    -0.078774
     12 C                    -0.079417
     13 C                     0.212486
     14 O                    -0.210276
     15 O                    -0.171759
     16 O                    -0.171588
     17 O                    -0.213999
     18 C                    -0.128028
     19 C                     0.024069
     20 C                    -0.145264
     21 C                    -0.142797
     22 C                     0.024879
     23 O                    -0.186847
     24 H                     0.084677
     25 H                     0.083447
     26 H                     0.087682
     27 H                     0.076825
     28 H                     0.070573
     29 H                     0.077912
     30 H                     0.072783
     31 H                     0.090852
     32 O                    -0.218657
     33 C                    -0.128755
     34 C                     0.026892
     35 C                    -0.142366
     36 C                    -0.145066
     37 C                     0.026464
     38 O                    -0.184083
     39 H                     0.084664
     40 H                     0.083852
     41 H                     0.088587
     42 H                     0.086209
     43 H                     0.077772
     44 H                     0.073771
     45 H                     0.077762
     46 H                     0.073773
     47 H                     0.082670
     48 H                     0.088803
     49 H                     0.089957
     50 H                     0.090133
     51 H                     0.092421
     52 H                     0.088341
     53 H                     0.093964
     54 H                     0.098872
     55 H                     0.095154
     56 H                     0.083489
  ----------------------------------------
  Sum of atomic charges =    -0.000000

                    Cartesian Multipole Moments
 -----------------------------------------------------------------
    Charge (ESU x 10^10)
                -0.0000
    Dipole Moment (Debye)
         X      -0.7219      Y      -2.5578      Z      -2.4945
       Tot       3.6450
    Quadrupole Moments (Debye-Ang)
        XX    -137.8567     XY      -0.3963     YY    -150.4367
        XZ      -4.5149     YZ      -1.2205     ZZ    -168.7387

 Total job time:  64.40s(wall), 3063.93s(cpu)
        *  Thank you very much for using Q-Chem.  Have a nice day.  *
