 Q-Chem 5.0, Q-Chem, Inc., Pleasanton, CA (2017)
 Q-Chem 5.0.1 for Intel X86 EM64T Linux

User input:
--------------------------------------------------------------
$molecule
0  1
O -3.94934 -3.66094 2.70899
C -3.26408 -4.56952 2.26188
C -3.36658 -6.02376 2.66595
C -4.5112 -6.40972 3.61712
C -5.53084 -5.33338 3.91699
O -6.2484 -5.04724 2.79064
C -7.32882 -4.13835 3.027
C -7.97406 -3.73386 1.70557
O -7.28633 -2.60114 1.15162
C -7.62039 -1.39902 1.68311
C -6.8645 -0.2497 1.05994
C -7.66456 1.05419 0.92557
C -8.94296 1.1315 1.73577
O -9.66128 0.18357 2.01862
O -2.30418 -4.27101 1.3475
O -9.42503 2.38194 1.97181
O -8.04402 -1.32328 2.83198
C -10.60904 2.65235 2.6258
C -5.67206 0.20641 1.92016
C -4.64603 0.91379 1.03901
C -5.39226 2.19057 0.71542
C -6.63997 2.0084 1.59047
O -6.18265 1.26205 2.69084
H -6.47807 -0.59348 0.07252
H -7.89329 1.36077 -0.11834
H -5.19181 -0.62491 2.48229
H -3.77772 1.16234 1.69081
H -4.28852 0.33687 0.15899
H -4.78034 3.05056 1.06777
H -5.66346 2.32633 -0.35396
H -7.0664 3.00599 1.83232
O -5.77781 -4.91526 5.04209
C -2.06565 -3.00254 0.86042
C -3.68784 -6.95486 1.47571
C -3.21052 -8.37388 1.78508
C -4.22929 -8.79593 2.82527
C -5.14743 -7.56903 2.82777
O -5.0868 -7.10271 1.50095
H -2.37019 -6.29596 3.08155
H -4.11003 -6.74317 4.60047
H -1.78062 -2.32067 1.69003
H -3.25143 -6.60727 0.51399
H -3.3723 -8.98221 0.8663
H -2.14755 -8.45966 2.09741
H -4.77414 -9.68735 2.44232
H -3.8174 -9.0074 3.83577
H -6.15761 -7.83246 3.21165
H -2.97196 -2.61209 0.34934
H -1.23255 -3.04401 0.12926
H -10.75106 3.75108 2.68136
H -10.57687 2.24287 3.65814
H -11.46364 2.20877 2.07162
H -7.97899 -4.59071 0.99867
H -9.04224 -3.46059 1.87363
H -7.022 -3.26247 3.63532
H -8.09227 -4.70362 3.60775
$end

$opt
CONSTRAINT
tors           1           2           3           4      +6.043
tors           3           4           5           6     +67.431
tors           4           5           6           7    +173.788
tors           5           6           7           8    +173.083
tors           6           7           8           9     -87.287
tors           7           8           9          10     -80.043
tors           8           9          10          11    -180.000
tors           9          10          11          12    +144.799
tors          11          12          13          14     -31.487
ENDCONSTRAINT
$end

$rem
JOBTYPE                   OPT
METHOD                    B3LYP
DFT_D                     d3_op
BASIS                     STO-3G
GEOM_OPT_MAX_CYCLES       100
GEOM_OPT_TOL_GRADIENT     300
GEOM_OPT_TOL_DISPLACEMENT 1200
GEOM_OPT_TOL_ENERGY       100
SYMMETRY                  False
THRESH                    12
SCF_CONVERGENCE           8
MAX_SUB_FILE_NUM          128
MEM_STATIC                400
MEM_TOTAL                 4000
$end
--------------------------------------------------------------

   15   -1510.1397493145      8.65E-09 Convergence criterion met
 Total energy in the final basis set = -1510.13974931
   14   -1510.2108352852      4.50E-09 Convergence criterion met
 Total energy in the final basis set = -1510.21083529
   14   -1510.2488654052      6.25E-09 Convergence criterion met
 Total energy in the final basis set = -1510.24886541
   14   -1510.2668308792      5.90E-09 Convergence criterion met
 Total energy in the final basis set = -1510.26683088
   14   -1510.2740921733      3.54E-09 Convergence criterion met
 Total energy in the final basis set = -1510.27409217
   13   -1510.2772142079      4.09E-09 Convergence criterion met
 Total energy in the final basis set = -1510.27721421
   13   -1510.2788514442      2.08E-09 Convergence criterion met
 Total energy in the final basis set = -1510.27885144
   12   -1510.2795816256      8.29E-09 Convergence criterion met
   11   -1510.2816893746      3.37E-09 Convergence criterion met
 Total energy in the final basis set = -1510.28168937
   11   -1510.2817224067      4.46E-09 Convergence criterion met
 Total energy in the final basis set = -1510.28172241
    9   -1510.2817404345      9.92E-09 Convergence criterion met
 Total energy in the final basis set = -1510.28174043
    9   -1510.2817566746      8.10E-09 Convergence criterion met
 Total energy in the final basis set = -1510.28175667
    9   -1510.2817633437      7.53E-09 Convergence criterion met
 Total energy in the final basis set = -1510.28176334
    9   -1510.2817656993      5.88E-09 Convergence criterion met
 Total energy in the final basis set = -1510.28176570

             Standard Nuclear Orientation (Angstroms)
    I     Atom           X                Y                Z
 ----------------------------------------------------------------
    1      O      -1.8878710878    -1.1624600580     0.9798014705
    2      C      -2.9320141936    -1.5085975509     0.3832044295
    3      C      -4.3087623489    -0.7604558218     0.3459846012
    4      C      -4.2783850923     0.6584376251     1.0513049870
    5      C      -2.8323290653     1.1342692552     1.4490515161
    6      O      -2.0933663196     1.3835922916     0.2477048519
    7      C      -0.7762713158     1.9752313213     0.5683503535
    8      C       0.0184776864     2.0414411676    -0.7849147535
    9      O       0.7508709202     0.7808016418    -1.0497165864
   10      C       1.9720700401     0.7315238972    -0.3044576645
   11      C       2.6644150415    -0.6316509817    -0.6539137818
   12      C       4.2436436829    -0.5803156739    -0.7128471682
   13      C       4.8481141186     0.8670887787    -0.7934774665
   14      O       4.3374152460     1.8702492625    -1.3365827716
   15      O      -3.0377883220    -2.6950301637    -0.4082518575
   16      O       6.1384209481     0.8646824754    -0.1738232681
   17      O       2.3322167560     1.5980158432     0.5203600150
   18      C       6.7341959844     2.2184589949    -0.2440171848
   19      C       2.4610994525    -1.6233583138     0.5760393748
   20      C       2.9210436098    -3.0765002681     0.1560983876
   21      C       4.4873828170    -2.9393158390     0.2354563786
   22      C       4.6341297394    -1.4078545623     0.5877503048
   23      O       3.5082238829    -1.1722053302     1.5207907965
   24      H       2.2217818480    -1.0243844855    -1.5856070593
   25      H       4.5948334791    -1.1179312142    -1.6141063484
   26      H       1.4590179198    -1.5658888555     1.0455964045
   27      H       2.5408843036    -3.8239251085     0.8705062405
   28      H       2.5685628140    -3.3422686574    -0.8535619846
   29      H       4.9041415019    -3.5605042762     1.0442920898
   30      H       4.9896809281    -3.2029612172    -0.7088849340
   31      H       5.5955816364    -1.1050786000     1.0448709429
   32      O      -2.4140710772     1.3721103791     2.6026871779
   33      C      -1.7396157449    -3.4096705674    -0.4196587654
   34      C      -4.8037415103    -0.3772512190    -1.1165238044
   35      C      -6.3629095414    -0.1384429701    -1.0420626575
   36      C      -6.4166515455     1.2333288191    -0.2720130409
   37      C      -4.8778156583     1.5605077795    -0.1120346946
   38      O      -4.2661713460     0.9839996758    -1.3324358564
   39      H      -5.0514673995    -1.4214688532     0.8305061193
   40      H      -4.9044555860     0.6722940280     1.9600285122
   41      H      -1.4590357139    -3.7618224823     0.5942300397
   42      H      -4.4615238314    -1.0692324795    -1.9103142566
   43      H      -6.7846472510    -0.0480057515    -2.0558327542
   44      H      -6.8861213112    -0.9495975008    -0.5108785712
   45      H      -6.9175035916     2.0132169561    -0.8671313783
   46      H      -6.9241096806     1.1527386903     0.7025854834
   47      H      -4.6326773566     2.6369645869    -0.0296800363
   48      H      -0.9238567226    -2.7652169677    -0.8065537225
   49      H      -1.8764074381    -4.2795172430    -1.0880685851
   50      H       7.7106081721     2.1486349363     0.2697536818
   51      H       6.0972737958     2.9692122368     0.2665558736
   52      H       6.8890285854     2.5432807599    -1.2933741760
   53      H      -0.6947429571     2.1636819521    -1.6250724889
   54      H       0.7239091332     2.8995377718    -0.7597037228
   55      H      -0.2275231977     1.3632426799     1.3163634166
   56      H      -0.9007499903     2.9978665637     0.9892012522
 ----------------------------------------------------------------

    9   -1510.2817665489      2.55E-09 Convergence criterion met
 Total energy in the final basis set = -1510.28176655
 Final energy is   -1510.28176654886
 **  OPTIMIZATION CONVERGED  **

                    Orbital Energies (a.u.)
 --------------------------------------------------------------

 Alpha MOs
 -- Occupied --
-18.940 -18.932 -18.923 -18.916 -18.888 -18.884 -18.883 -18.871
-18.865 -18.858 -10.104 -10.096 -10.091 -10.087 -10.069 -10.065
-10.061 -10.060 -10.060 -10.059 -10.057 -10.055 -10.038 -10.035
-10.032 -10.032 -10.020 -10.019 -10.019 -10.018  -1.017  -1.009
 -1.003  -0.996  -0.969  -0.967  -0.941  -0.934  -0.927  -0.921
 -0.762  -0.760  -0.724  -0.720  -0.711  -0.705  -0.690  -0.666
 -0.658  -0.611  -0.595  -0.574  -0.545  -0.541  -0.537  -0.535
 -0.514  -0.508  -0.485  -0.468  -0.464  -0.455  -0.446  -0.439
 -0.433  -0.432  -0.415  -0.414  -0.412  -0.408  -0.408  -0.404
 -0.390  -0.378  -0.373  -0.365  -0.357  -0.354  -0.349  -0.344
 -0.342  -0.334  -0.331  -0.328  -0.326  -0.323  -0.316  -0.314
 -0.309  -0.304  -0.301  -0.298  -0.290  -0.285  -0.282  -0.273
 -0.269  -0.259  -0.252  -0.242  -0.238  -0.234  -0.231  -0.184
 -0.175  -0.167  -0.162  -0.157  -0.153  -0.143  -0.141  -0.140
 -0.138

          Ground-State Mulliken Net Atomic Charges

     Atom                 Charge (a.u.)
  ----------------------------------------
      1 O                    -0.207364
      2 C                     0.214330
      3 C                    -0.078642
      4 C                    -0.080946
      5 C                     0.213022
      6 O                    -0.173735
      7 C                    -0.046659
      8 C                    -0.047845
      9 O                    -0.173553
     10 C                     0.212693
     11 C                    -0.078811
     12 C                    -0.079479
     13 C                     0.213151
     14 O                    -0.212780
     15 O                    -0.169942
     16 O                    -0.171205
     17 O                    -0.212369
     18 C                    -0.127728
     19 C                     0.024289
     20 C                    -0.144921
     21 C                    -0.143059
     22 C                     0.024056
     23 O                    -0.187710
     24 H                     0.085111
     25 H                     0.082861
     26 H                     0.086834
     27 H                     0.077012
     28 H                     0.071788
     29 H                     0.077593
     30 H                     0.072391
     31 H                     0.092563
     32 O                    -0.218501
     33 C                    -0.128380
     34 C                     0.025525
     35 C                    -0.142880
     36 C                    -0.144871
     37 C                     0.026641
     38 O                    -0.185858
     39 H                     0.084980
     40 H                     0.083628
     41 H                     0.088848
     42 H                     0.087519
     43 H                     0.077833
     44 H                     0.073386
     45 H                     0.077663
     46 H                     0.073790
     47 H                     0.082993
     48 H                     0.091810
     49 H                     0.091076
     50 H                     0.089881
     51 H                     0.093167
     52 H                     0.087592
     53 H                     0.097790
     54 H                     0.093772
     55 H                     0.097940
     56 H                     0.083712
  ----------------------------------------
  Sum of atomic charges =     0.000000

                    Cartesian Multipole Moments
 -----------------------------------------------------------------
    Charge (ESU x 10^10)
                 0.0000
    Dipole Moment (Debye)
         X      -0.9053      Y      -2.3925      Z      -2.0623
       Tot       3.2858
    Quadrupole Moments (Debye-Ang)
        XX    -134.1357     XY      -1.2557     YY    -149.2252
        XZ      -5.0159     YZ       1.0572     ZZ    -169.3198

 Total job time:  55.66s(wall), 2647.17s(cpu)
        *  Thank you very much for using Q-Chem.  Have a nice day.  *
