 Q-Chem 5.0, Q-Chem, Inc., Pleasanton, CA (2017)
 Q-Chem 5.0.1 for Intel X86 EM64T Linux

User input:
--------------------------------------------------------------
$molecule
0  1
O -1.8878710878 -1.162460058 0.9798014705
C -2.9320141936 -1.5085975509 0.3832044295
C -4.3087623489 -0.7604558218 0.3459846012
C -4.2783850923 0.6584376251 1.051304987
C -2.8323290653 1.1342692552 1.4490515161
O -2.0933663196 1.3835922916 0.2477048519
C -0.7762713158 1.9752313213 0.5683503535
C 0.0184776864 2.0414411676 -0.7849147535
O 0.7508709202 0.7808016418 -1.0497165864
C 1.9720700401 0.7315238972 -0.3044576645
C 2.6644150415 -0.6316509817 -0.6539137818
C 4.2436436829 -0.5803156739 -0.7128471682
C 4.8481141186 0.8670887787 -0.7934774665
O 4.337415246 1.8702492625 -1.3365827716
O -3.037788322 -2.6950301637 -0.4082518575
O 6.1384209481 0.8646824754 -0.1738232681
O 2.332216756 1.5980158432 0.520360015
C 6.7341959844 2.2184589949 -0.2440171848
C 2.4610994525 -1.6233583138 0.5760393748
C 2.9210436098 -3.0765002681 0.1560983876
C 4.487382817 -2.939315839 0.2354563786
C 4.6341297394 -1.4078545623 0.5877503048
O 3.5082238829 -1.1722053302 1.5207907965
H 2.221781848 -1.0243844855 -1.5856070593
H 4.5948334791 -1.1179312142 -1.6141063484
H 1.4590179198 -1.5658888555 1.0455964045
H 2.5408843036 -3.8239251085 0.8705062405
H 2.568562814 -3.3422686574 -0.8535619846
H 4.9041415019 -3.5605042762 1.0442920898
H 4.9896809281 -3.2029612172 -0.708884934
H 5.5955816364 -1.1050786 1.0448709429
O -2.4140710772 1.3721103791 2.6026871779
C -1.7396157449 -3.4096705674 -0.4196587654
C -4.8037415103 -0.377251219 -1.1165238044
C -6.3629095414 -0.1384429701 -1.0420626575
C -6.4166515455 1.2333288191 -0.2720130409
C -4.8778156583 1.5605077795 -0.1120346946
O -4.266171346 0.9839996758 -1.3324358564
H -5.0514673995 -1.4214688532 0.8305061193
H -4.904455586 0.672294028 1.9600285122
H -1.4590357139 -3.7618224823 0.5942300397
H -4.4615238314 -1.0692324795 -1.9103142566
H -6.784647251 -0.0480057515 -2.0558327542
H -6.8861213112 -0.9495975008 -0.5108785712
H -6.9175035916 2.0132169561 -0.8671313783
H -6.9241096806 1.1527386903 0.7025854834
H -4.6326773566 2.6369645869 -0.0296800363
H -0.9238567226 -2.7652169677 -0.8065537225
H -1.8764074381 -4.279517243 -1.0880685851
H 7.7106081721 2.1486349363 0.2697536818
H 6.0972737958 2.9692122368 0.2665558736
H 6.8890285854 2.5432807599 -1.293374176
H -0.6947429571 2.1636819521 -1.6250724889
H 0.7239091332 2.8995377718 -0.7597037228
H -0.2275231977 1.3632426799 1.3163634166
H -0.9007499903 2.9978665637 0.9892012522
$end

$rem
JOBTYPE                   OPT
METHOD                    B3LYP
DFT_D                     d3_op
BASIS                     STO-3G
GEOM_OPT_MAX_CYCLES       100
GEOM_OPT_TOL_GRADIENT     300
GEOM_OPT_TOL_DISPLACEMENT 1200
GEOM_OPT_TOL_ENERGY       100
SYMMETRY                  False
THRESH                    12
SCF_CONVERGENCE           8
MAX_SUB_FILE_NUM          128
MEM_STATIC                400
MEM_TOTAL                 4000
$end
--------------------------------------------------------------

   16   -1510.2817139691      6.73E-09 Convergence criterion met
 Total energy in the final basis set = -1510.28171397
   14   -1510.2845808630      2.47E-09 Convergence criterion met
 Total energy in the final basis set = -1510.28458086
   14   -1510.2849557759      2.53E-09 Convergence criterion met
 Total energy in the final basis set = -1510.28495578
   14   -1510.2826700028      3.93E-09 Convergence criterion met
 Total energy in the final basis set = -1510.28267000
   13   -1510.2856448421      9.54E-09 Convergence criterion met
 Total energy in the final basis set = -1510.28564484
   14   -1510.2870871077      3.41E-09 Convergence criterion met
 Total energy in the final basis set = -1510.28708711
   14   -1510.2887857652      2.38E-09 Convergence criterion met
 Total energy in the final basis set = -1510.28878577
   13   -1510.2894098793      7.04E-09 Convergence criterion met
   12   -1510.2988589140      6.23E-09 Convergence criterion met
 Total energy in the final basis set = -1510.29885891
   12   -1510.2988836635      3.57E-09 Convergence criterion met
 Total energy in the final basis set = -1510.29888366
   11   -1510.2988976505      7.56E-09 Convergence criterion met
 Total energy in the final basis set = -1510.29889765
   11   -1510.2988916060      5.23E-09 Convergence criterion met
 Total energy in the final basis set = -1510.29889161
   11   -1510.2988879956      7.49E-09 Convergence criterion met
 Total energy in the final basis set = -1510.29888800
   11   -1510.2988983333      4.65E-09 Convergence criterion met
 Total energy in the final basis set = -1510.29889833

             Standard Nuclear Orientation (Angstroms)
    I     Atom           X                Y                Z
 ----------------------------------------------------------------
    1      O      -0.9374496492    -0.9986431802     0.4873281560
    2      C      -2.0397320079    -1.1547060225    -0.0924484859
    3      C      -3.4322034540    -0.7806027870     0.5331882909
    4      C      -3.4209432145     0.6643604536     1.1931106588
    5      C      -2.0733026607     1.4409618394     1.0064222747
    6      O      -1.8214131622     1.5760993092    -0.4010319765
    7      C      -0.5705404969     2.3335279328    -0.6333405628
    8      C       0.1046361972     1.7956172414    -1.9415641951
    9      O       0.7309391253     0.4649733332    -1.7630782671
   10      C       2.0244412453     0.5823951347    -1.1476905030
   11      C       2.6303940040    -0.8461867943    -0.9821610614
   12      C       4.1278962722    -0.8418406071    -0.4629843212
   13      C       4.7068286322     0.5942024841    -0.1742014631
   14      O       5.4375967745     1.2656739196    -0.9353958593
   15      O      -2.2108379901    -1.7044231281    -1.3883629946
   16      O       4.3527832976     0.9832056521     1.1579370956
   17      O       2.5322192497     1.6811651733    -0.8355338757
   18      C       4.8227809362     2.3617836702     1.4150988536
   19      C       1.9019036759    -1.6792861381     0.1678250817
   20      C       2.2689304973    -3.1999222209    -0.0477347058
   21      C       3.7682778687    -3.2261730677     0.4295779721
   22      C       3.9804767849    -1.7181066461     0.8527869692
   23      O       2.6586165394    -1.3150764130     1.3841307664
   24      H       2.5421934486    -1.3636698701    -1.9547020713
   25      H       4.7924492179    -1.3196403526    -1.2044333232
   26      H       0.8145516522    -1.4501995293     0.2876288008
   27      H       1.6335018155    -3.8386543999     0.5866728353
   28      H       2.1507063231    -3.5174160030    -1.0961941308
   29      H       3.9054691783    -3.8918667748     1.2963810329
   30      H       4.4637420194    -3.5358426790    -0.3670425833
   31      H       4.7722219524    -1.5457946222     1.6065186409
   32      O      -1.3392173603     1.9094414725     1.9025391457
   33      C      -0.8946488109    -1.9861127723    -2.0168179819
   34      C      -4.6038694729    -0.6269999560    -0.5231124899
   35      C      -5.9760079627    -0.6558289093     0.2574680560
   36      C      -5.9765044833     0.7692897746     0.9248245067
   37      C      -4.6096427864     1.3561212127     0.3919626593
   38      O      -4.4879772771     0.7818136202    -0.9663410814
   39      H      -3.6754496715    -1.5488155722     1.2908732475
   40      H      -3.6290191199     0.6157497369     2.2761555608
   41      H      -0.3948579449    -2.8436043555    -1.5227947163
   42      H      -4.5269998361    -1.3141293434    -1.3870180190
   43      H      -6.8156028006    -0.7712804546    -0.4463756976
   44      H      -6.0196115527    -1.4725894841     0.9956439757
   45      H      -6.8211790768     1.3814704839     0.5709770903
   46      H      -6.0082192763     0.7257282828     2.0252896885
   47      H      -4.5538492540     2.4612138735     0.3523157961
   48      H      -0.2336355899    -1.0868000875    -1.9696567762
   49      H      -1.1181880678    -2.2507261881    -3.0661724834
   50      H       4.5515333372     2.5871051333     2.4628401533
   51      H       4.3244954469     3.0854204402     0.7378865018
   52      H       5.9207647182     2.4534779335     1.2853502149
   53      H      -0.6637667044     1.6613861909    -2.7298469537
   54      H       0.8658083485     2.5315935300    -2.2790633866
   55      H       0.1069792204     2.2363718906     0.2420515101
   56      H      -0.8082102230     3.4118238630    -0.7724626755
 ----------------------------------------------------------------

    9   -1510.2988979547      8.73E-09 Convergence criterion met
 Total energy in the final basis set = -1510.29889795
 Final energy is   -1510.29889795468
 **  OPTIMIZATION CONVERGED  **

                    Orbital Energies (a.u.)
 --------------------------------------------------------------

 Alpha MOs
 -- Occupied --
-18.949 -18.944 -18.930 -18.916 -18.891 -18.889 -18.881 -18.876
-18.876 -18.852 -10.110 -10.110 -10.099 -10.084 -10.083 -10.072
-10.062 -10.060 -10.051 -10.049 -10.048 -10.041 -10.038 -10.037
-10.035 -10.027 -10.022 -10.021 -10.012 -10.011  -1.025  -1.018
 -1.008  -0.992  -0.971  -0.958  -0.949  -0.942  -0.935  -0.918
 -0.765  -0.756  -0.729  -0.720  -0.713  -0.704  -0.692  -0.660
 -0.646  -0.618  -0.598  -0.579  -0.548  -0.539  -0.536  -0.529
 -0.517  -0.506  -0.493  -0.474  -0.470  -0.456  -0.444  -0.437
 -0.435  -0.432  -0.426  -0.415  -0.411  -0.406  -0.403  -0.397
 -0.395  -0.384  -0.374  -0.369  -0.361  -0.358  -0.353  -0.352
 -0.341  -0.333  -0.333  -0.330  -0.323  -0.322  -0.314  -0.312
 -0.306  -0.305  -0.300  -0.299  -0.295  -0.292  -0.277  -0.273
 -0.271  -0.262  -0.249  -0.248  -0.237  -0.235  -0.221  -0.193
 -0.182  -0.172  -0.162  -0.161  -0.158  -0.151  -0.145  -0.135
 -0.132

          Ground-State Mulliken Net Atomic Charges

     Atom                 Charge (a.u.)
  ----------------------------------------
      1 O                    -0.218339
      2 C                     0.222454
      3 C                    -0.077219
      4 C                    -0.078943
      5 C                     0.212034
      6 O                    -0.174575
      7 C                    -0.052419
      8 C                    -0.046987
      9 O                    -0.173047
     10 C                     0.219272
     11 C                    -0.081035
     12 C                    -0.081525
     13 C                     0.212194
     14 O                    -0.223360
     15 O                    -0.165524
     16 O                    -0.167327
     17 O                    -0.204130
     18 C                    -0.127071
     19 C                     0.005994
     20 C                    -0.145609
     21 C                    -0.145034
     22 C                     0.026647
     23 O                    -0.187318
     24 H                     0.082838
     25 H                     0.080967
     26 H                     0.113268
     27 H                     0.074734
     28 H                     0.067286
     29 H                     0.075843
     30 H                     0.070723
     31 H                     0.084432
     32 O                    -0.208402
     33 C                    -0.146812
     34 C                     0.023666
     35 C                    -0.144107
     36 C                    -0.144050
     37 C                     0.026167
     38 O                    -0.187057
     39 H                     0.085595
     40 H                     0.086210
     41 H                     0.080125
     42 H                     0.092678
     43 H                     0.077974
     44 H                     0.073246
     45 H                     0.078077
     46 H                     0.074343
     47 H                     0.082664
     48 H                     0.114990
     49 H                     0.084850
     50 H                     0.088007
     51 H                     0.090974
     52 H                     0.084926
     53 H                     0.097777
     54 H                     0.097280
     55 H                     0.106406
     56 H                     0.085249
  ----------------------------------------
  Sum of atomic charges =    -0.000000

                    Cartesian Multipole Moments
 -----------------------------------------------------------------
    Charge (ESU x 10^10)
                -0.0000
    Dipole Moment (Debye)
         X      -2.6533      Y      -1.5887      Z      -1.1809
       Tot       3.3103
    Quadrupole Moments (Debye-Ang)
        XX    -156.2816     XY      -4.5242     YY    -151.2281
        XZ      -3.4279     YZ       1.8446     ZZ    -161.7644

 Total job time:  95.89s(wall), 4574.75s(cpu)
        *  Thank you very much for using Q-Chem.  Have a nice day.  *
