 Q-Chem 5.0, Q-Chem, Inc., Pleasanton, CA (2017)
 Q-Chem 5.0.1 for Intel X86 EM64T Linux

User input:
--------------------------------------------------------------
$molecule
0  1
O -3.94934 -3.66094 2.70899
C -3.26408 -4.56952 2.26188
C -3.36658 -6.02376 2.66595
C -4.24854 -6.35491 3.88099
C -5.07036 -5.2184 4.4476
O -5.88712 -4.7085 3.47892
C -7.04684 -4.05574 4.00637
C -7.86209 -3.43752 2.87531
O -7.06159 -2.4835 2.15983
C -7.4718 -1.19401 2.24974
C -6.51956 -0.2262 1.58849
C -7.18536 0.99761 0.94252
C -8.62148 1.26012 1.34916
O -9.53103 0.44444 1.30506
O -2.40716 -4.29635 1.24332
O -8.90412 2.47935 1.88674
O -8.24302 -0.81629 3.12574
C -10.14666 2.86564 2.34476
C -5.55004 0.4728 2.56666
C -4.28481 0.87802 1.81451
C -4.83058 1.97569 0.92162
C -6.25515 2.10386 1.48242
O -6.13198 1.72699 2.83229
H -5.90821 -0.80433 0.8563
H -7.1904 0.9059 -0.16547
H -5.29286 -0.14674 3.45365
H -3.60461 1.33525 2.56898
H -3.74265 0.06433 1.28602
H -4.23278 2.8974 1.09644
H -4.85765 1.73443 -0.16325
H -6.64417 3.12718 1.28988
O -5.07699 -4.8881 5.62691
C -2.22096 -3.04054 0.70333
C -4.02526 -6.8971 1.58411
C -3.61192 -8.35721 1.77101
C -4.41187 -8.72278 3.00572
C -5.17172 -7.41444 3.2445
O -5.38497 -6.91666 1.94379
H -2.31992 -6.35477 2.85212
H -3.6614 -6.78422 4.72371
H -1.85102 -2.33975 1.48217
H -3.79525 -6.55883 0.55013
H -4.01175 -8.93551 0.90756
H -2.51545 -8.52072 1.84857
H -5.12965 -9.52836 2.73293
H -3.8116 -9.0343 3.8877
H -6.08368 -7.59842 3.85444
H -3.17551 -2.65995 0.28031
H -1.46881 -3.10159 -0.10964
H -10.0862 3.90527 2.72679
H -10.47389 2.19921 3.17128
H -10.8872 2.83066 1.51732
H -8.17253 -4.23605 2.1685
H -8.80091 -3.02691 3.30926
H -6.75619 -3.23401 4.70006
H -7.67885 -4.79265 4.55136
$end

$opt
CONSTRAINT
tors           1           2           3           4      -9.774
tors           3           4           5           6     +57.742
tors           4           5           6           7    +155.546
tors           5           6           7           8    +176.430
tors           6           7           8           9     -59.373
tors           7           8           9          10    -114.458
tors           8           9          10          11    +174.527
tors           9          10          11          12    +146.543
tors          11          12          13          14     -52.460
ENDCONSTRAINT
$end

$rem
JOBTYPE                   OPT
METHOD                    B3LYP
DFT_D                     d3_op
BASIS                     STO-3G
GEOM_OPT_MAX_CYCLES       100
GEOM_OPT_TOL_GRADIENT     300
GEOM_OPT_TOL_DISPLACEMENT 1200
GEOM_OPT_TOL_ENERGY       100
SYMMETRY                  False
THRESH                    12
SCF_CONVERGENCE           8
MAX_SUB_FILE_NUM          128
MEM_STATIC                400
MEM_TOTAL                 4000
$end
--------------------------------------------------------------

   16   -1510.1418558719      1.96E-09 Convergence criterion met
 Total energy in the final basis set = -1510.14185587
   13   -1510.2117284280      8.51E-09 Convergence criterion met
 Total energy in the final basis set = -1510.21172843
   14   -1510.2482586718      7.43E-09 Convergence criterion met
 Total energy in the final basis set = -1510.24825867
   14   -1510.2644755796      7.40E-09 Convergence criterion met
 Total energy in the final basis set = -1510.26447558
   14   -1510.2705914155      5.26E-09 Convergence criterion met
 Total energy in the final basis set = -1510.27059142
   13   -1510.2726079449      4.48E-09 Convergence criterion met
 Total energy in the final basis set = -1510.27260794
   12   -1510.2737966445      9.24E-09 Convergence criterion met
 Total energy in the final basis set = -1510.27379664
   12   -1510.2744170993      5.62E-09 Convergence criterion met
   11   -1510.2765417091      7.20E-09 Convergence criterion met
 Total energy in the final basis set = -1510.27654171
   11   -1510.2765971437      5.16E-09 Convergence criterion met
 Total energy in the final basis set = -1510.27659714
   11   -1510.2766460787      6.13E-09 Convergence criterion met
 Total energy in the final basis set = -1510.27664608
   10   -1510.2766812138      9.90E-09 Convergence criterion met
 Total energy in the final basis set = -1510.27668121
    9   -1510.2766940766      9.65E-09 Convergence criterion met
 Total energy in the final basis set = -1510.27669408
    9   -1510.2766985557      6.62E-09 Convergence criterion met
 Total energy in the final basis set = -1510.27669856

             Standard Nuclear Orientation (Angstroms)
    I     Atom           X                Y                Z
 ----------------------------------------------------------------
    1      O      -1.8952548061    -1.4089932043     0.9058940081
    2      C      -2.8954623591    -1.6826679064     0.2077577625
    3      C      -4.1965107601    -0.8391939300    -0.0117578842
    4      C      -4.3342737418     0.4134950656     0.9441742307
    5      C      -2.9911685862     0.8708884182     1.6281299864
    6      O      -2.0240428912     1.1715501164     0.6129636913
    7      C      -1.0104565150     2.1206560490     1.1241635918
    8      C       0.0305583615     2.2985765889    -0.0275315069
    9      O       0.6147982409     0.9732611367    -0.3434961728
   10      C       2.0078555044     0.9320178998    -0.0238572782
   11      C       2.4852179202    -0.5393303884    -0.2608111761
   12      C       3.9769353101    -0.6721261057    -0.7775864279
   13      C       4.6279122357     0.7023403204    -1.1820531318
   14      O       4.1461430536     1.5451586045    -1.9700477246
   15      O      -3.0090302578    -2.8725147706    -0.5832358185
   16      O       5.8917706555     0.8541643258    -0.5301263877
   17      O       2.6649299504     1.8982025686     0.4228397978
   18      C       6.4897187508     2.1588387468    -0.8951334343
   19      C       2.5901608225    -1.2996072483     1.1340829725
   20      C       2.7397396049    -2.8476576926     0.8555916354
   21      C       4.2420621556    -2.9312136346     0.3949703909
   22      C       4.6613178853    -1.4089226050     0.4502125480
   23      O       3.9248768639    -0.8958093357     1.6292025689
   24      H       1.7641841487    -1.0293868713    -0.9379207563
   25      H       4.0010252084    -1.3152226286    -1.6772737932
   26      H       1.8008473621    -1.0279604281     1.8619816417
   27      H       2.5644172689    -3.4227830142     1.7787371062
   28      H       2.0363745805    -3.1971930597     0.0827935045
   29      H       4.8473064664    -3.5229271537     1.1001039397
   30      H       4.3569321492    -3.3581376402    -0.6140525589
   31      H       5.7448638631    -1.2107323185     0.5517648453
   32      O      -2.8214243726     1.0766636117     2.8499262880
   33      C      -1.7792520824    -3.6866234349    -0.4457945797
   34      C      -4.3634799944    -0.1677522290    -1.4486231809
   35      C      -5.9131081057     0.0230411675    -1.6837764026
   36      C      -6.2247538840     1.1710940186    -0.6521201667
   37      C      -4.7752659456     1.5136346516    -0.1176228758
   38      O      -3.8908387020     1.2217740174    -1.2699425042
   39      H      -5.0430034945    -1.5306913418     0.1549845187
   40      H      -5.0883418917     0.2519637900     1.7336269062
   41      H      -1.6283349303    -4.0262868428     0.5994333226
   42      H      -3.8120548131    -0.6716330501    -2.2659707920
   43      H      -6.1032253194     0.3506824695    -2.7184726246
   44      H      -6.4874204651    -0.8971189874    -1.4902917587
   45      H      -6.6761406898     2.0481812954    -1.1421587770
   46      H      -6.8916009676     0.8387306178     0.1596110279
   47      H      -4.6355531241     2.5588678033     0.2199276994
   48      H      -0.8787670306    -3.1224193236    -0.7640350324
   49      H      -1.9190273140    -4.5647282307    -1.1027555366
   50      H       7.4464483585     2.2205317676    -0.3447099400
   51      H       5.8328224062     3.0014411043    -0.5978412244
   52      H       6.6824757374     2.2296443614    -1.9853472046
   53      H      -0.4732166975     2.6759815228    -0.9414670751
   54      H       0.8448594038     2.9916773415     0.2793253816
   55      H      -0.5147981135     1.7264808144     2.0384833344
   56      H      -1.4750914512     3.1006510930     1.3751710583
 ----------------------------------------------------------------

    9   -1510.2766991752      3.92E-09 Convergence criterion met
 Total energy in the final basis set = -1510.27669918
 Final energy is   -1510.27669917523
 **  OPTIMIZATION CONVERGED  **

                    Orbital Energies (a.u.)
 --------------------------------------------------------------

 Alpha MOs
 -- Occupied --
-18.936 -18.930 -18.927 -18.917 -18.890 -18.884 -18.881 -18.869
-18.865 -18.863 -10.101 -10.093 -10.093 -10.090 -10.067 -10.066
-10.063 -10.062 -10.061 -10.058 -10.057 -10.054 -10.038 -10.035
-10.033 -10.032 -10.022 -10.021 -10.018 -10.017  -1.014  -1.008
 -1.003  -0.997  -0.971  -0.966  -0.938  -0.934  -0.928  -0.922
 -0.763  -0.759  -0.725  -0.720  -0.711  -0.705  -0.693  -0.665
 -0.655  -0.610  -0.596  -0.573  -0.546  -0.540  -0.538  -0.533
 -0.515  -0.506  -0.488  -0.469  -0.462  -0.454  -0.444  -0.437
 -0.436  -0.431  -0.427  -0.413  -0.411  -0.408  -0.406  -0.402
 -0.390  -0.376  -0.369  -0.366  -0.356  -0.354  -0.349  -0.345
 -0.342  -0.338  -0.332  -0.331  -0.327  -0.322  -0.318  -0.315
 -0.306  -0.306  -0.300  -0.298  -0.290  -0.286  -0.282  -0.273
 -0.270  -0.257  -0.249  -0.242  -0.236  -0.233  -0.230  -0.181
 -0.173  -0.166  -0.165  -0.154  -0.153  -0.145  -0.142  -0.140
 -0.139

          Ground-State Mulliken Net Atomic Charges

     Atom                 Charge (a.u.)
  ----------------------------------------
      1 O                    -0.204157
      2 C                     0.211220
      3 C                    -0.079443
      4 C                    -0.079793
      5 C                     0.213143
      6 O                    -0.168204
      7 C                    -0.044372
      8 C                    -0.051453
      9 O                    -0.168091
     10 C                     0.212610
     11 C                    -0.077618
     12 C                    -0.079621
     13 C                     0.213065
     14 O                    -0.216871
     15 O                    -0.171700
     16 O                    -0.168592
     17 O                    -0.214599
     18 C                    -0.127202
     19 C                     0.025857
     20 C                    -0.143434
     21 C                    -0.144003
     22 C                     0.023606
     23 O                    -0.188342
     24 H                     0.086838
     25 H                     0.082277
     26 H                     0.086465
     27 H                     0.077918
     28 H                     0.071679
     29 H                     0.077217
     30 H                     0.071816
     31 H                     0.092845
     32 O                    -0.216664
     33 C                    -0.128409
     34 C                     0.027265
     35 C                    -0.141970
     36 C                    -0.145097
     37 C                     0.026060
     38 O                    -0.183942
     39 H                     0.084599
     40 H                     0.084068
     41 H                     0.088724
     42 H                     0.086587
     43 H                     0.078103
     44 H                     0.074126
     45 H                     0.077975
     46 H                     0.073959
     47 H                     0.081011
     48 H                     0.088629
     49 H                     0.090263
     50 H                     0.089584
     51 H                     0.094091
     52 H                     0.086914
     53 H                     0.091996
     54 H                     0.101029
     55 H                     0.090997
     56 H                     0.081044
  ----------------------------------------
  Sum of atomic charges =    -0.000000

                    Cartesian Multipole Moments
 -----------------------------------------------------------------
    Charge (ESU x 10^10)
                -0.0000
    Dipole Moment (Debye)
         X      -1.6717      Y      -2.1483      Z      -1.7583
       Tot       3.2406
    Quadrupole Moments (Debye-Ang)
        XX    -140.3927     XY      -3.3048     YY    -148.0233
        XZ      -2.1208     YZ       2.4025     ZZ    -169.6045

 Total job time:  52.94s(wall), 2516.54s(cpu)
        *  Thank you very much for using Q-Chem.  Have a nice day.  *
