 Q-Chem 5.0, Q-Chem, Inc., Pleasanton, CA (2017)
 Q-Chem 5.0.1 for Intel X86 EM64T Linux

User input:
--------------------------------------------------------------
$molecule
0  1
O -1.8952548061 -1.4089932043 0.9058940081
C -2.8954623591 -1.6826679064 0.2077577625
C -4.1965107601 -0.83919393 -0.0117578842
C -4.3342737418 0.4134950656 0.9441742307
C -2.9911685862 0.8708884182 1.6281299864
O -2.0240428912 1.1715501164 0.6129636913
C -1.010456515 2.120656049 1.1241635918
C 0.0305583615 2.2985765889 -0.0275315069
O 0.6147982409 0.9732611367 -0.3434961728
C 2.0078555044 0.9320178998 -0.0238572782
C 2.4852179202 -0.5393303884 -0.2608111761
C 3.9769353101 -0.6721261057 -0.7775864279
C 4.6279122357 0.7023403204 -1.1820531318
O 4.1461430536 1.5451586045 -1.9700477246
O -3.0090302578 -2.8725147706 -0.5832358185
O 5.8917706555 0.8541643258 -0.5301263877
O 2.6649299504 1.8982025686 0.4228397978
C 6.4897187508 2.1588387468 -0.8951334343
C 2.5901608225 -1.2996072483 1.1340829725
C 2.7397396049 -2.8476576926 0.8555916354
C 4.2420621556 -2.9312136346 0.3949703909
C 4.6613178853 -1.408922605 0.450212548
O 3.9248768639 -0.8958093357 1.6292025689
H 1.7641841487 -1.0293868713 -0.9379207563
H 4.0010252084 -1.3152226286 -1.6772737932
H 1.8008473621 -1.0279604281 1.8619816417
H 2.5644172689 -3.4227830142 1.7787371062
H 2.0363745805 -3.1971930597 0.0827935045
H 4.8473064664 -3.5229271537 1.1001039397
H 4.3569321492 -3.3581376402 -0.6140525589
H 5.7448638631 -1.2107323185 0.5517648453
O -2.8214243726 1.0766636117 2.849926288
C -1.7792520824 -3.6866234349 -0.4457945797
C -4.3634799944 -0.167752229 -1.4486231809
C -5.9131081057 0.0230411675 -1.6837764026
C -6.224753884 1.1710940186 -0.6521201667
C -4.7752659456 1.5136346516 -0.1176228758
O -3.890838702 1.2217740174 -1.2699425042
H -5.0430034945 -1.5306913418 0.1549845187
H -5.0883418917 0.25196379 1.7336269062
H -1.6283349303 -4.0262868428 0.5994333226
H -3.8120548131 -0.6716330501 -2.265970792
H -6.1032253194 0.3506824695 -2.7184726246
H -6.4874204651 -0.8971189874 -1.4902917587
H -6.6761406898 2.0481812954 -1.142158777
H -6.8916009676 0.8387306178 0.1596110279
H -4.6355531241 2.5588678033 0.2199276994
H -0.8787670306 -3.1224193236 -0.7640350324
H -1.919027314 -4.5647282307 -1.1027555366
H 7.4464483585 2.2205317676 -0.34470994
H 5.8328224062 3.0014411043 -0.5978412244
H 6.6824757374 2.2296443614 -1.9853472046
H -0.4732166975 2.6759815228 -0.9414670751
H 0.8448594038 2.9916773415 0.2793253816
H -0.5147981135 1.7264808144 2.0384833344
H -1.4750914512 3.100651093 1.3751710583
$end

$rem
JOBTYPE                   OPT
METHOD                    B3LYP
DFT_D                     d3_op
BASIS                     STO-3G
GEOM_OPT_MAX_CYCLES       100
GEOM_OPT_TOL_GRADIENT     300
GEOM_OPT_TOL_DISPLACEMENT 1200
GEOM_OPT_TOL_ENERGY       100
SYMMETRY                  False
THRESH                    12
SCF_CONVERGENCE           8
MAX_SUB_FILE_NUM          128
MEM_STATIC                400
MEM_TOTAL                 4000
$end
--------------------------------------------------------------

   16   -1510.2768092068      5.83E-09 Convergence criterion met
 Total energy in the final basis set = -1510.27680921
   14   -1510.2806301783      5.34E-09 Convergence criterion met
 Total energy in the final basis set = -1510.28063018
   13   -1510.2827318268      8.42E-09 Convergence criterion met
 Total energy in the final basis set = -1510.28273183
   14   -1510.2839420704      4.69E-09 Convergence criterion met
 Total energy in the final basis set = -1510.28394207
   13   -1510.2849552777      8.12E-09 Convergence criterion met
 Total energy in the final basis set = -1510.28495528
   14   -1510.2864524710      2.85E-09 Convergence criterion met
 Total energy in the final basis set = -1510.28645247
   14   -1510.2877464065      1.86E-09 Convergence criterion met
 Total energy in the final basis set = -1510.28774641
   14   -1510.2892871092      2.66E-09 Convergence criterion met
   12   -1510.2989136726      5.98E-09 Convergence criterion met
 Total energy in the final basis set = -1510.29891367
   12   -1510.2989280682      3.85E-09 Convergence criterion met
 Total energy in the final basis set = -1510.29892807
   11   -1510.2989368175      4.68E-09 Convergence criterion met
 Total energy in the final basis set = -1510.29893682
   10   -1510.2989372285      5.55E-09 Convergence criterion met
 Total energy in the final basis set = -1510.29893723
    9   -1510.2989393817      9.48E-09 Convergence criterion met
 Total energy in the final basis set = -1510.29893938
    9   -1510.2989404585      3.82E-09 Convergence criterion met
 Total energy in the final basis set = -1510.29894046

             Standard Nuclear Orientation (Angstroms)
    I     Atom           X                Y                Z
 ----------------------------------------------------------------
    1      O      -0.9777062125    -0.9918141746     0.4213129015
    2      C      -2.0649738979    -1.1212174424    -0.1924254884
    3      C      -3.4760797661    -0.8004352416     0.4208723596
    4      C      -3.4955011176     0.5948489560     1.1799896009
    5      C      -2.1461362650     1.3868659338     1.0948387203
    6      O      -1.8474233748     1.6240708876    -0.2895402862
    7      C      -0.5877330869     2.3909795862    -0.4243317748
    8      C       0.1131834807     1.9676180834    -1.7607497773
    9      O       0.7272249393     0.6210671658    -1.6898747660
   10      C       2.0131036502     0.6738104786    -1.0497076129
   11      C       2.6012375110    -0.7708548622    -0.9887359554
   12      C       4.0994016205    -0.8212945898    -0.4741406476
   13      C       4.7055937855     0.5855963250    -0.1075606564
   14      O       5.4210938038     1.2988699499    -0.8449641832
   15      O      -2.2020570765    -1.5922362599    -1.5229347694
   16      O       4.4004875074     0.8866301933     1.2589120009
   17      O       2.5268082392     1.7373526647    -0.6403770265
   18      C       4.9039841923     2.2355643909     1.5965566334
   19      C       1.8638969288    -1.6672045522     0.1067476631
   20      C       2.2161264278    -3.1759720222    -0.1996812699
   21      C       3.7129838371    -3.2474209304     0.2815408837
   22      C       3.9407303887    -1.7682800375     0.7895335024
   23      O       2.6224485290    -1.3830584950     1.3430900441
   24      H       2.5023643944    -1.2192121164    -1.9940276885
   25      H       4.7530703113    -1.2680214787    -1.2441497870
   26      H       0.7779792955    -1.4366331615     0.2363024017
   27      H       1.5704810142    -3.8454769359     0.3911010745
   28      H       2.1011062476    -3.4273228396    -1.2662733605
   29      H       3.8381232351    -3.9627308494     1.1098203229
   30      H       4.4083988904    -3.5206096588    -0.5284240949
   31      H       4.7331275632    -1.6472111561     1.5524258443
   32      O      -1.4454936448     1.7912184853     2.0471122624
   33      C      -0.8705299273    -1.8188670388    -2.1406425042
   34      C      -4.6169459634    -0.5804160771    -0.6567036934
   35      C      -6.0123988073    -0.6678348593     0.0767214648
   36      C      -6.0421948135     0.7087471612     0.8386703735
   37      C      -4.6628401542     1.3354529766     0.3910021094
   38      O      -4.4956438724     0.8558954305    -0.9990578535
   39      H      -3.7321631695    -1.6215753960     1.1165259125
   40      H      -3.7397715560     0.4681397555     2.2490086665
   41      H      -0.3707340467    -2.7009170926    -1.6922199096
   42      H      -4.5086868816    -1.2068081069    -1.5623445708
   43      H      -6.8291757191    -0.7396617347    -0.6591128281
   44      H      -6.0729849904    -1.5326687536     0.7565802069
   45      H      -6.8785820622     1.3407873937     0.5003156439
   46      H      -6.1090742404     0.5904583639     1.9320763546
   47      H      -4.6122289485     2.4408619859     0.4287420447
   48      H      -0.2218444018    -0.9171587469    -2.0222009914
   49      H      -1.0697955469    -2.0178886793    -3.2092194790
   50      H       4.6759329169     2.3879019634     2.6675018370
   51      H       4.3941537348     3.0143529829     0.9932572900
   52      H       5.9978554899     2.3196296371     1.4317504435
   53      H      -0.6380683261     1.9122460440    -2.5747042621
   54      H       0.8869645585     2.7241382516    -2.0132273796
   55      H       0.0701538682     2.2113745568     0.4530936511
   56      H      -0.8158566793     3.4792645850    -0.4709606616
 ----------------------------------------------------------------

    9   -1510.2989403548      2.68E-09 Convergence criterion met
 Total energy in the final basis set = -1510.29894035
 Final energy is   -1510.29894035481
 **  OPTIMIZATION CONVERGED  **

                    Orbital Energies (a.u.)
 --------------------------------------------------------------

 Alpha MOs
 -- Occupied --
-18.949 -18.944 -18.930 -18.917 -18.891 -18.889 -18.881 -18.876
-18.875 -18.852 -10.110 -10.110 -10.098 -10.084 -10.083 -10.072
-10.062 -10.060 -10.051 -10.049 -10.048 -10.041 -10.038 -10.037
-10.035 -10.027 -10.022 -10.021 -10.012 -10.011  -1.025  -1.018
 -1.008  -0.993  -0.971  -0.958  -0.949  -0.942  -0.935  -0.918
 -0.765  -0.756  -0.729  -0.720  -0.713  -0.704  -0.693  -0.660
 -0.646  -0.618  -0.598  -0.579  -0.548  -0.539  -0.536  -0.529
 -0.517  -0.506  -0.493  -0.474  -0.470  -0.456  -0.444  -0.437
 -0.435  -0.432  -0.426  -0.415  -0.411  -0.406  -0.403  -0.397
 -0.395  -0.384  -0.373  -0.370  -0.361  -0.358  -0.353  -0.352
 -0.341  -0.334  -0.333  -0.330  -0.323  -0.322  -0.315  -0.312
 -0.306  -0.305  -0.300  -0.299  -0.295  -0.291  -0.277  -0.273
 -0.271  -0.262  -0.249  -0.248  -0.237  -0.235  -0.221  -0.193
 -0.182  -0.172  -0.163  -0.161  -0.159  -0.151  -0.145  -0.136
 -0.132

          Ground-State Mulliken Net Atomic Charges

     Atom                 Charge (a.u.)
  ----------------------------------------
      1 O                    -0.218422
      2 C                     0.222684
      3 C                    -0.077268
      4 C                    -0.079020
      5 C                     0.212063
      6 O                    -0.174565
      7 C                    -0.052085
      8 C                    -0.046985
      9 O                    -0.172923
     10 C                     0.219139
     11 C                    -0.080924
     12 C                    -0.081555
     13 C                     0.212204
     14 O                    -0.223504
     15 O                    -0.165664
     16 O                    -0.167321
     17 O                    -0.204012
     18 C                    -0.126975
     19 C                     0.005889
     20 C                    -0.145699
     21 C                    -0.144975
     22 C                     0.026576
     23 O                    -0.187585
     24 H                     0.082823
     25 H                     0.081049
     26 H                     0.113117
     27 H                     0.074825
     28 H                     0.067236
     29 H                     0.075852
     30 H                     0.070676
     31 H                     0.084853
     32 O                    -0.208635
     33 C                    -0.146924
     34 C                     0.023595
     35 C                    -0.144130
     36 C                    -0.144006
     37 C                     0.026098
     38 O                    -0.187150
     39 H                     0.085548
     40 H                     0.086082
     41 H                     0.080108
     42 H                     0.092825
     43 H                     0.077999
     44 H                     0.073250
     45 H                     0.078078
     46 H                     0.074319
     47 H                     0.082666
     48 H                     0.115067
     49 H                     0.084837
     50 H                     0.087991
     51 H                     0.091005
     52 H                     0.085081
     53 H                     0.097820
     54 H                     0.097590
     55 H                     0.106055
     56 H                     0.085327
  ----------------------------------------
  Sum of atomic charges =    -0.000000

                    Cartesian Multipole Moments
 -----------------------------------------------------------------
    Charge (ESU x 10^10)
                -0.0000
    Dipole Moment (Debye)
         X      -2.5878      Y      -1.5028      Z      -1.3079
       Tot       3.2658
    Quadrupole Moments (Debye-Ang)
        XX    -155.4573     XY      -4.0042     YY    -151.3855
        XZ      -3.2738     YZ       2.4020     ZZ    -162.2097

 Total job time:  98.18s(wall), 4686.14s(cpu)
        *  Thank you very much for using Q-Chem.  Have a nice day.  *
