 Q-Chem 5.0, Q-Chem, Inc., Pleasanton, CA (2017)
 Q-Chem 5.0.1 for Intel X86 EM64T Linux

User input:
--------------------------------------------------------------
$molecule
0  1
O -3.94934 -3.66094 2.70899
C -3.26408 -4.56952 2.26188
C -3.36658 -6.02376 2.66595
C -4.14678 -6.34239 3.95188
C -4.88771 -5.19057 4.59409
O -6.18307 -5.17325 4.16145
C -7.02692 -4.32226 4.94437
C -8.28645 -3.96657 4.16128
O -7.93152 -3.29548 2.94205
C -7.63638 -1.97769 3.0664
C -7.21077 -1.34453 1.76308
C -7.45078 0.16941 1.67012
C -7.73486 0.87512 2.98084
O -7.98211 0.32381 4.04361
O -2.37408 -4.3008 1.27123
O -7.78832 2.23253 2.92602
O -6.98542 -1.6764 4.0566
C -8.05999 3.04472 4.00702
C -5.7655 -1.43949 1.29662
C -5.68728 -1.22229 -0.2234
C -5.8906 0.27212 -0.30746
C -6.05836 0.61012 1.17131
O -5.1739 -0.27848 1.81789
H -7.85363 -1.84064 0.99949
H -8.26188 0.45563 0.9639
H -5.33793 -2.40664 1.54071
H -4.66454 -1.44938 -0.5886
H -6.41691 -1.83114 -0.79996
H -4.94625 0.73804 -0.66939
H -6.74084 0.60464 -0.94123
H -5.8577 1.69241 1.33094
O -4.36464 -4.36625 5.33484
C -2.08227 -3.03798 0.80507
C -4.10101 -6.87831 1.62398
C -3.66851 -8.33711 1.75422
C -4.35374 -8.71775 3.0492
C -5.10333 -7.41708 3.36161
O -5.42586 -6.90595 2.08993
H -2.31297 -6.3643 2.78559
H -3.53657 -6.81575 4.7528
H -1.67785 -2.4105 1.62778
H -3.95344 -6.52086 0.58127
H -4.14276 -8.90405 0.92135
H -2.56932 -8.49954 1.73256
H -5.08151 -9.53156 2.83296
H -3.67671 -9.02602 3.87482
H -5.96108 -7.63705 4.03508
H -2.99128 -2.56793 0.38937
H -1.32049 -3.11292 0.00234
H -8.03901 4.10451 3.68009
H -7.29289 2.89856 4.79732
H -9.06795 2.81579 4.41441
H -8.79289 -4.91822 3.89325
H -9.00008 -3.36433 4.76821
H -6.50707 -3.42905 5.33308
H -7.33599 -4.88347 5.85314
$end

$opt
CONSTRAINT
tors           1           2           3           4     -14.998
tors           3           4           5           6     +94.240
tors           4           5           6           7    +166.263
tors           5           6           7           8    +160.442
tors           6           7           8           9     -59.373
tors           7           8           9          10     -80.047
tors           8           9          10          11    +177.373
tors           9          10          11          12    +154.559
tors          11          12          13          14     -11.552
ENDCONSTRAINT
$end

$rem
JOBTYPE                   OPT
METHOD                    B3LYP
DFT_D                     d3_op
BASIS                     STO-3G
GEOM_OPT_MAX_CYCLES       100
GEOM_OPT_TOL_GRADIENT     300
GEOM_OPT_TOL_DISPLACEMENT 1200
GEOM_OPT_TOL_ENERGY       100
SYMMETRY                  False
THRESH                    12
SCF_CONVERGENCE           8
MAX_SUB_FILE_NUM          128
MEM_STATIC                400
MEM_TOTAL                 4000
$end
--------------------------------------------------------------

   16   -1510.1054170085      2.95E-09 Convergence criterion met
 Total energy in the final basis set = -1510.10541701
   14   -1510.1826239177      2.78E-09 Convergence criterion met
 Total energy in the final basis set = -1510.18262392
   14   -1510.2266329273      5.39E-09 Convergence criterion met
 Total energy in the final basis set = -1510.22663293
   14   -1510.2520466186      5.48E-09 Convergence criterion met
 Total energy in the final basis set = -1510.25204662
   14   -1510.2629199821      4.11E-09 Convergence criterion met
 Total energy in the final basis set = -1510.26291998
   13   -1510.2717628167      4.52E-09 Convergence criterion met
 Total energy in the final basis set = -1510.27176282
   13   -1510.2773518750      5.83E-09 Convergence criterion met
 Total energy in the final basis set = -1510.27735187
   13   -1510.2795076646      2.92E-09 Convergence criterion met
   12   -1510.2837659872      5.88E-09 Convergence criterion met
 Total energy in the final basis set = -1510.28376599
   11   -1510.2837555425      5.80E-09 Convergence criterion met
 Total energy in the final basis set = -1510.28375554
    9   -1510.2837730773      9.97E-09 Convergence criterion met
 Total energy in the final basis set = -1510.28377308
   10   -1510.2837833287      8.22E-09 Convergence criterion met
 Total energy in the final basis set = -1510.28378333
    9   -1510.2837893350      3.54E-09 Convergence criterion met
 Total energy in the final basis set = -1510.28378933
    9   -1510.2837921733      6.57E-09 Convergence criterion met
 Total energy in the final basis set = -1510.28379217

             Standard Nuclear Orientation (Angstroms)
    I     Atom           X                Y                Z
 ----------------------------------------------------------------
    1      O      -1.3462290978    -0.9405502945     0.5500644673
    2      C      -2.4458286078    -1.5374513580     0.4795769731
    3      C      -3.8733331961    -0.9040599870     0.4205946009
    4      C      -3.9120919921     0.6244075750     0.8291262255
    5      C      -2.5224543102     1.2281163141     1.2656338623
    6      O      -1.8930878670     1.8476765141     0.1381353832
    7      C      -0.7648599706     2.6939683015     0.5927808403
    8      C       0.1849107530     2.9400570091    -0.6266823547
    9      O       0.7284600196     1.6884692508    -1.2015409751
   10      C       1.8318157543     1.2254980277    -0.4049727754
   11      C       2.3266088201    -0.1324066096    -1.0135089965
   12      C       3.8413904321    -0.4667681190    -0.7128331867
   13      C       4.7797783189     0.7509016724    -0.4004825963
   14      O       4.5587995482     1.9719641414    -0.5399085718
   15      O      -2.6088336327    -2.9549052267     0.4540979881
   16      O       6.0225377509     0.2194200654     0.0820292266
   17      O       2.2033815758     1.7795149660     0.6509059978
   18      C       6.9562975292     1.3258680386     0.3907715818
   19      C       1.6257265387    -1.3023901928    -0.1851664795
   20      C       2.0006700933    -2.6965080093    -0.8389926413
   21      C       3.4495391844    -2.9371947953    -0.2753156724
   22      C       3.7075836295    -1.5575824540     0.4410085000
   23      O       2.4025943605    -1.2754514142     1.0777666801
   24      H       2.0859683200    -0.1654080944    -2.0900816168
   25      H       4.2804020003    -0.9537019984    -1.6044742316
   26      H       0.5411658295    -1.1477929171     0.0220513994
   27      H       1.3092672796    -3.4849845927    -0.5082145770
   28      H       1.9756171118    -2.6501579901    -1.9396564683
   29      H       3.4617731086    -3.7579380358     0.4600922431
   30      H       4.1899029169    -3.1541356910    -1.0615320460
   31      H       4.5269966313    -1.5432806785     1.1851811447
   32      O      -2.0813906611     1.2698156428     2.4353339165
   33      C      -1.2992470412    -3.6427614450     0.4902032535
   34      C      -4.4167898937    -0.8317500962    -1.0760442995
   35      C      -5.9744370272    -0.5755873840    -1.0191949102
   36      C      -6.0158011704     0.9444640166    -0.6146081194
   37      C      -4.4743391696     1.2741103080    -0.5057355923
   38      O      -3.8679900207     0.4463347462    -1.5751909078
   39      H      -4.5427699036    -1.5151968930     1.0519694299
   40      H      -4.6036224730     0.7724750862     1.6774827938
   41      H      -0.6133791353    -3.1792871588     1.2273178710
   42      H      -4.0994162023    -1.6753554707    -1.7196418158
   43      H      -6.4268549580    -0.7449026739    -2.0093375659
   44      H      -6.4761296037    -1.2271538058    -0.2860946210
   45      H      -6.4860760982     1.5584201221    -1.3990106933
   46      H      -6.5459691999     1.1178985399     0.3356145295
   47      H      -4.2037484792     2.3378891026    -0.6439979387
   48      H      -0.8176039669    -3.6227763489    -0.5083356125
   49      H      -1.5064819574    -4.6909046562     0.7745075204
   50      H       7.8795892301     0.8501907101     0.7695653627
   51      H       6.5434395869     2.0047863891     1.1647060877
   52      H       7.1922091300     1.9264648386    -0.5116822220
   53      H      -0.3816649521     3.4201323289    -1.4502883462
   54      H       1.0069328833     3.6126927026    -0.2986121854
   55      H      -0.2159173442     2.1991379285     1.4223055724
   56      H      -1.1461321536     3.6723495148     0.9622970558
 ----------------------------------------------------------------

    9   -1510.2837921520      4.68E-09 Convergence criterion met
 Total energy in the final basis set = -1510.28379215
 Final energy is   -1510.28379215198
 **  OPTIMIZATION CONVERGED  **

                    Orbital Energies (a.u.)
 --------------------------------------------------------------

 Alpha MOs
 -- Occupied --
-18.947 -18.925 -18.920 -18.919 -18.893 -18.889 -18.877 -18.869
-18.860 -18.860 -10.112 -10.092 -10.090 -10.085 -10.071 -10.063
-10.063 -10.059 -10.058 -10.058 -10.051 -10.042 -10.041 -10.034
-10.029 -10.027 -10.022 -10.020 -10.014 -10.013  -1.022  -1.005
 -1.001  -0.994  -0.971  -0.960  -0.948  -0.930  -0.926  -0.918
 -0.764  -0.755  -0.725  -0.718  -0.712  -0.701  -0.689  -0.670
 -0.655  -0.609  -0.596  -0.570  -0.547  -0.538  -0.536  -0.530
 -0.515  -0.503  -0.486  -0.466  -0.459  -0.449  -0.447  -0.439
 -0.435  -0.428  -0.424  -0.420  -0.413  -0.407  -0.403  -0.401
 -0.387  -0.383  -0.369  -0.364  -0.360  -0.351  -0.349  -0.344
 -0.339  -0.337  -0.331  -0.326  -0.326  -0.317  -0.314  -0.311
 -0.308  -0.306  -0.302  -0.294  -0.287  -0.284  -0.279  -0.274
 -0.263  -0.259  -0.249  -0.242  -0.236  -0.233  -0.223  -0.188
 -0.172  -0.165  -0.164  -0.161  -0.150  -0.146  -0.140  -0.134
 -0.133

          Ground-State Mulliken Net Atomic Charges

     Atom                 Charge (a.u.)
  ----------------------------------------
      1 O                    -0.204603
      2 C                     0.219145
      3 C                    -0.078371
      4 C                    -0.080946
      5 C                     0.212950
      6 O                    -0.170690
      7 C                    -0.051024
      8 C                    -0.046735
      9 O                    -0.169719
     10 C                     0.214479
     11 C                    -0.078402
     12 C                    -0.080087
     13 C                     0.211217
     14 O                    -0.209420
     15 O                    -0.167405
     16 O                    -0.174372
     17 O                    -0.210589
     18 C                    -0.128548
     19 C                     0.011892
     20 C                    -0.147345
     21 C                    -0.142348
     22 C                     0.025750
     23 O                    -0.190953
     24 H                     0.084769
     25 H                     0.081727
     26 H                     0.104200
     27 H                     0.070552
     28 H                     0.071036
     29 H                     0.074881
     30 H                     0.072111
     31 H                     0.087775
     32 O                    -0.218510
     33 C                    -0.130867
     34 C                     0.025995
     35 C                    -0.143482
     36 C                    -0.144604
     37 C                     0.026702
     38 O                    -0.186222
     39 H                     0.087887
     40 H                     0.083903
     41 H                     0.099044
     42 H                     0.083480
     43 H                     0.078168
     44 H                     0.074023
     45 H                     0.077910
     46 H                     0.073554
     47 H                     0.087900
     48 H                     0.087507
     49 H                     0.093114
     50 H                     0.088503
     51 H                     0.090914
     52 H                     0.086809
     53 H                     0.088973
     54 H                     0.094244
     55 H                     0.104383
     56 H                     0.079744
  ----------------------------------------
  Sum of atomic charges =    -0.000000

                    Cartesian Multipole Moments
 -----------------------------------------------------------------
    Charge (ESU x 10^10)
                -0.0000
    Dipole Moment (Debye)
         X      -1.5199      Y      -2.0866      Z      -1.5539
       Tot       3.0131
    Quadrupole Moments (Debye-Ang)
        XX    -135.8111     XY      -2.7590     YY    -148.5359
        XZ      -3.6936     YZ       1.0305     ZZ    -166.6020

 Total job time:  64.69s(wall), 3082.53s(cpu)
        *  Thank you very much for using Q-Chem.  Have a nice day.  *
