 Q-Chem 5.0, Q-Chem, Inc., Pleasanton, CA (2017)
 Q-Chem 5.0.1 for Intel X86 EM64T Linux

User input:
--------------------------------------------------------------
$molecule
0  1
O -1.3462290978 -0.9405502945 0.5500644673
C -2.4458286078 -1.537451358 0.4795769731
C -3.8733331961 -0.904059987 0.4205946009
C -3.9120919921 0.624407575 0.8291262255
C -2.5224543102 1.2281163141 1.2656338623
O -1.893087867 1.8476765141 0.1381353832
C -0.7648599706 2.6939683015 0.5927808403
C 0.184910753 2.9400570091 -0.6266823547
O 0.7284600196 1.6884692508 -1.2015409751
C 1.8318157543 1.2254980277 -0.4049727754
C 2.3266088201 -0.1324066096 -1.0135089965
C 3.8413904321 -0.466768119 -0.7128331867
C 4.7797783189 0.7509016724 -0.4004825963
O 4.5587995482 1.9719641414 -0.5399085718
O -2.6088336327 -2.9549052267 0.4540979881
O 6.0225377509 0.2194200654 0.0820292266
O 2.2033815758 1.779514966 0.6509059978
C 6.9562975292 1.3258680386 0.3907715818
C 1.6257265387 -1.3023901928 -0.1851664795
C 2.0006700933 -2.6965080093 -0.8389926413
C 3.4495391844 -2.9371947953 -0.2753156724
C 3.7075836295 -1.557582454 0.4410085
O 2.4025943605 -1.2754514142 1.0777666801
H 2.08596832 -0.1654080944 -2.0900816168
H 4.2804020003 -0.9537019984 -1.6044742316
H 0.5411658295 -1.1477929171 0.0220513994
H 1.3092672796 -3.4849845927 -0.508214577
H 1.9756171118 -2.6501579901 -1.9396564683
H 3.4617731086 -3.7579380358 0.4600922431
H 4.1899029169 -3.154135691 -1.061532046
H 4.5269966313 -1.5432806785 1.1851811447
O -2.0813906611 1.2698156428 2.4353339165
C -1.2992470412 -3.642761445 0.4902032535
C -4.4167898937 -0.8317500962 -1.0760442995
C -5.9744370272 -0.575587384 -1.0191949102
C -6.0158011704 0.9444640166 -0.6146081194
C -4.4743391696 1.274110308 -0.5057355923
O -3.8679900207 0.4463347462 -1.5751909078
H -4.5427699036 -1.515196893 1.0519694299
H -4.603622473 0.7724750862 1.6774827938
H -0.6133791353 -3.1792871588 1.227317871
H -4.0994162023 -1.6753554707 -1.7196418158
H -6.426854958 -0.7449026739 -2.0093375659
H -6.4761296037 -1.2271538058 -0.286094621
H -6.4860760982 1.5584201221 -1.3990106933
H -6.5459691999 1.1178985399 0.3356145295
H -4.2037484792 2.3378891026 -0.6439979387
H -0.8176039669 -3.6227763489 -0.5083356125
H -1.5064819574 -4.6909046562 0.7745075204
H 7.8795892301 0.8501907101 0.7695653627
H 6.5434395869 2.0047863891 1.1647060877
H 7.19220913 1.9264648386 -0.511682222
H -0.3816649521 3.4201323289 -1.4502883462
H 1.0069328833 3.6126927026 -0.2986121854
H -0.2159173442 2.1991379285 1.4223055724
H -1.1461321536 3.6723495148 0.9622970558
$end

$rem
JOBTYPE                   OPT
METHOD                    B3LYP
DFT_D                     d3_op
BASIS                     STO-3G
GEOM_OPT_MAX_CYCLES       100
GEOM_OPT_TOL_GRADIENT     300
GEOM_OPT_TOL_DISPLACEMENT 1200
GEOM_OPT_TOL_ENERGY       100
SYMMETRY                  False
THRESH                    12
SCF_CONVERGENCE           8
MAX_SUB_FILE_NUM          128
MEM_STATIC                400
MEM_TOTAL                 4000
$end
--------------------------------------------------------------

   16   -1510.2838491727      5.34E-09 Convergence criterion met
 Total energy in the final basis set = -1510.28384917
   14   -1510.2840002252      2.02E-09 Convergence criterion met
 Total energy in the final basis set = -1510.28400023
   14   -1510.2821947330      3.59E-09 Convergence criterion met
 Total energy in the final basis set = -1510.28219473
   13   -1510.2859785198      9.98E-09 Convergence criterion met
 Total energy in the final basis set = -1510.28597852
   14   -1510.2854095038      6.06E-09 Convergence criterion met
 Total energy in the final basis set = -1510.28540950
   14   -1510.2871677474      1.97E-09 Convergence criterion met
 Total energy in the final basis set = -1510.28716775
   13   -1510.2889290953      8.04E-09 Convergence criterion met
 Total energy in the final basis set = -1510.28892910
   13   -1510.2892440411      4.57E-09 Convergence criterion met
   12   -1510.2956431600      4.78E-09 Convergence criterion met
 Total energy in the final basis set = -1510.29564316
   11   -1510.2956545387      7.96E-09 Convergence criterion met
 Total energy in the final basis set = -1510.29565454
   11   -1510.2956562979      5.23E-09 Convergence criterion met
 Total energy in the final basis set = -1510.29565630
   11   -1510.2956501066      6.48E-09 Convergence criterion met
 Total energy in the final basis set = -1510.29565011
   11   -1510.2956488355      2.66E-09 Convergence criterion met
 Total energy in the final basis set = -1510.29564884
    9   -1510.2956503859      9.02E-09 Convergence criterion met
 Total energy in the final basis set = -1510.29565039

             Standard Nuclear Orientation (Angstroms)
    I     Atom           X                Y                Z
 ----------------------------------------------------------------
    1      O      -1.3753517570    -0.4805265185     1.9010635229
    2      C      -2.2775449312    -1.1617004276     1.3643598598
    3      C      -3.2009457119    -0.7254320710     0.1752843188
    4      C      -3.1921643214     0.8435388724    -0.0470572099
    5      C      -2.5805447378     1.6494555171     1.1642229991
    6      O      -1.4014189293     2.3123431777     0.7178186839
    7      C      -0.6562327326     2.9199375119     1.8460662185
    8      C       0.8094534637     3.0873369196     1.2929513856
    9      O       1.0905561619     1.9949670927     0.3364494294
   10      C       1.2706114876     0.7536920787     1.0460825326
   11      C       1.1767778795    -0.4189786510     0.0086732360
   12      C       2.3258621505    -0.4472446241    -1.0755986787
   13      C       3.4539083149     0.5967399250    -0.7827340386
   14      O       3.6980804313     1.1582675362     0.3083842921
   15      O      -2.6044864735    -2.5035905615     1.7240929701
   16      O       4.2190375330     0.7968063441    -1.9756686624
   17      O       1.3561087186     0.6647760938     2.2885042690
   18      C       5.3155496106     1.7582285204    -1.7160685071
   19      C       1.3908068306    -1.8175580568     0.7198471705
   20      C       0.7803039106    -2.9416366560    -0.1999889652
   21      C       1.8242599877    -2.9604309630    -1.3773704517
   22      C       2.8943651961    -1.9174405445    -0.8569307470
   23      O       2.8502074845    -2.0625816377     0.6143298205
   24      H       0.1742582310    -0.3485486780    -0.4804353029
   25      H       1.9473156217    -0.2984289746    -2.1022616881
   26      H       1.0738286148    -1.8273693005     1.7803933729
   27      H       0.7560844882    -3.9072288167     0.3302213801
   28      H      -0.2372813710    -2.6973365348    -0.5382142806
   29      H       2.2807953529    -3.9551329537    -1.5023614134
   30      H       1.3832293520    -2.6494955283    -2.3379405336
   31      H       3.9232503847    -2.0716569321    -1.2367425077
   32      O      -3.0746206546     1.7624832907     2.3073034922
   33      C      -1.7239135293    -2.9706994477     2.8213614303
   34      C      -2.5576525748    -1.2171276369    -1.1891712526
   35      C      -3.5561460393    -0.9317656679    -2.3789114336
   36      C      -3.3557529941     0.6153292120    -2.5892578597
   37      C      -2.3708064702     0.9526240597    -1.4053829258
   38      O      -1.4711532885    -0.2293542794    -1.3926336219
   39      H      -4.2160955917    -1.1327457245     0.3268895281
   40      H      -4.2272061726     1.2027730696    -0.1929678318
   41      H      -1.6717714215    -2.2299348858     3.6442033236
   42      H      -2.1534918265    -2.2473563584    -1.1563785837
   43      H      -3.2651416471    -1.5055506984    -3.2729277264
   44      H      -4.5925478944    -1.1937387909    -2.1126846783
   45      H      -2.8777729141     0.8292853713    -3.5587055107
   46      H      -4.2975719106     1.1829264883    -2.5247770001
   47      H      -1.7791124109     1.8815743322    -1.5089577454
   48      H      -0.6957531694    -3.1653658854     2.4548790399
   49      H      -2.1670073749    -3.9140127693     3.1898860264
   50      H       5.8405532457     1.8914807492    -2.6798066338
   51      H       6.0265879215     1.3724393285    -0.9568627656
   52      H       4.9259571653     2.7360133645    -1.3663571361
   53      H       0.9020400623     4.0245150079     0.7092945129
   54      H       1.5349822138     3.0972836048     2.1345693749
   55      H      -0.6729848886     2.2396162287     2.7232016171
   56      H      -1.0937928919     3.8990718089     2.1402004293
 ----------------------------------------------------------------

    9   -1510.2956503714      4.20E-09 Convergence criterion met
 Total energy in the final basis set = -1510.29565037
 Final energy is   -1510.29565037144
 **  OPTIMIZATION CONVERGED  **

                    Orbital Energies (a.u.)
 --------------------------------------------------------------

 Alpha MOs
 -- Occupied --
-18.943 -18.929 -18.925 -18.907 -18.906 -18.885 -18.874 -18.870
-18.862 -18.850 -10.106 -10.095 -10.091 -10.077 -10.072 -10.067
-10.065 -10.061 -10.060 -10.060 -10.051 -10.045 -10.043 -10.038
-10.029 -10.027 -10.025 -10.013 -10.011 -10.006  -1.019  -1.006
 -1.004  -0.986  -0.983  -0.959  -0.944  -0.930  -0.929  -0.912
 -0.770  -0.749  -0.730  -0.719  -0.712  -0.698  -0.686  -0.668
 -0.657  -0.610  -0.592  -0.574  -0.553  -0.545  -0.533  -0.528
 -0.514  -0.497  -0.485  -0.472  -0.460  -0.454  -0.447  -0.440
 -0.435  -0.432  -0.421  -0.415  -0.414  -0.407  -0.405  -0.400
 -0.384  -0.378  -0.367  -0.365  -0.358  -0.351  -0.350  -0.343
 -0.339  -0.338  -0.334  -0.330  -0.323  -0.322  -0.317  -0.314
 -0.308  -0.304  -0.299  -0.293  -0.287  -0.282  -0.281  -0.270
 -0.263  -0.259  -0.249  -0.245  -0.240  -0.227  -0.221  -0.184
 -0.172  -0.169  -0.163  -0.158  -0.152  -0.146  -0.142  -0.133
 -0.129

          Ground-State Mulliken Net Atomic Charges

     Atom                 Charge (a.u.)
  ----------------------------------------
      1 O                    -0.205733
      2 C                     0.212470
      3 C                    -0.078055
      4 C                    -0.081033
      5 C                     0.214492
      6 O                    -0.174184
      7 C                    -0.049896
      8 C                    -0.046230
      9 O                    -0.175856
     10 C                     0.220096
     11 C                    -0.094550
     12 C                    -0.078305
     13 C                     0.213458
     14 O                    -0.208669
     15 O                    -0.169209
     16 O                    -0.171185
     17 O                    -0.217721
     18 C                    -0.128508
     19 C                     0.021603
     20 C                    -0.144766
     21 C                    -0.143730
     22 C                     0.024714
     23 O                    -0.192712
     24 H                     0.109027
     25 H                     0.085698
     26 H                     0.088007
     27 H                     0.071985
     28 H                     0.069058
     29 H                     0.074959
     30 H                     0.073159
     31 H                     0.080138
     32 O                    -0.220345
     33 C                    -0.129772
     34 C                     0.025639
     35 C                    -0.143874
     36 C                    -0.142875
     37 C                     0.025668
     38 O                    -0.189529
     39 H                     0.089475
     40 H                     0.083667
     41 H                     0.097193
     42 H                     0.083808
     43 H                     0.079612
     44 H                     0.076583
     45 H                     0.079487
     46 H                     0.075821
     47 H                     0.100090
     48 H                     0.089538
     49 H                     0.092048
     50 H                     0.088971
     51 H                     0.088663
     52 H                     0.089495
     53 H                     0.084138
     54 H                     0.094239
     55 H                     0.102041
     56 H                     0.081699
  ----------------------------------------
  Sum of atomic charges =     0.000000

                    Cartesian Multipole Moments
 -----------------------------------------------------------------
    Charge (ESU x 10^10)
                -0.0000
    Dipole Moment (Debye)
         X      -2.2137      Y      -0.5636      Z      -3.2579
       Tot       3.9789
    Quadrupole Moments (Debye-Ang)
        XX    -153.1110     XY       6.3060     YY    -148.3571
        XZ      -0.8960     YZ      -2.6755     ZZ    -162.1668

 Total job time:  147.28s(wall), 7027.66s(cpu)
        *  Thank you very much for using Q-Chem.  Have a nice day.  *
