 Q-Chem 5.0, Q-Chem, Inc., Pleasanton, CA (2017)
 Q-Chem 5.0.1 for Intel X86 EM64T Linux

User input:
--------------------------------------------------------------
$molecule
0  1
O -3.94934 -3.66094 2.70899
C -3.26408 -4.56952 2.26188
C -3.36658 -6.02376 2.66595
C -4.44917 -6.3929 3.69337
C -5.42397 -5.29879 4.06856
O -6.38771 -5.18632 3.10733
C -7.42015 -4.25621 3.45116
C -8.41768 -4.13054 2.3043
O -7.75348 -3.63871 1.12964
C -7.79911 -2.29481 0.95356
C -6.99992 -1.83042 -0.24071
C -7.51755 -0.54712 -0.90665
C -8.50784 0.26475 -0.09615
O -9.39765 -0.19642 0.60394
O -2.26812 -4.27717 1.38617
O -8.47057 1.61589 -0.25682
O -7.93438 -1.5624 1.9289
C -9.31757 2.50278 0.37469
C -5.54665 -1.4283 0.07366
C -4.69959 -1.56074 -1.19437
C -5.24362 -0.41812 -2.02132
C -6.18566 0.22937 -1.00033
O -5.59205 -0.03519 0.24715
H -6.97989 -2.67628 -0.96664
H -7.98361 -0.72628 -1.90013
H -5.10351 -2.01164 0.90769
H -3.65309 -1.30613 -0.92426
H -4.7154 -2.55558 -1.68918
H -4.40185 0.26246 -2.2802
H -5.78995 -0.71529 -2.94276
H -6.31607 1.30239 -1.25713
O -5.49808 -4.81343 5.19146
C -1.83642 -3.00045 1.10286
C -3.76347 -6.95165 1.50025
C -3.27352 -8.37167 1.78131
C -4.2227 -8.78606 2.88848
C -5.1357 -7.5561 2.9474
O -5.15883 -7.09244 1.6176
H -2.354 -6.30271 3.03658
H -3.98236 -6.73044 4.6461
H -1.42753 -2.52645 2.02053
H -3.38784 -6.60313 0.51344
H -3.49869 -8.981 0.87668
H -2.19261 -8.46184 2.02292
H -4.79358 -9.67764 2.54598
H -3.74561 -8.99455 3.87048
H -6.11888 -7.81912 3.39609
H -2.67309 -2.39088 0.72326
H -1.03745 -3.04555 0.33481
H -9.05998 3.53586 0.06354
H -9.20246 2.42186 1.4768
H -10.37125 2.29545 0.09022
H -8.84415 -5.1311 2.0797
H -9.27318 -3.48346 2.60798
H -6.98794 -3.25297 3.66534
H -7.96581 -4.61673 4.35221
$end

$opt
CONSTRAINT
tors           1           2           3           4      +1.864
tors           3           4           5           6     +80.103
tors           4           5           6           7    +174.471
tors           5           6           7           8    +177.087
tors           6           7           8           9     -61.221
tors           7           8           9          10     -93.700
tors           8           9          10          11    +175.808
tors           9          10          11          12    +151.153
tors          11          12          13          14     -38.852
ENDCONSTRAINT
$end

$rem
JOBTYPE                   OPT
METHOD                    B3LYP
DFT_D                     d3_op
BASIS                     STO-3G
GEOM_OPT_MAX_CYCLES       100
GEOM_OPT_TOL_GRADIENT     300
GEOM_OPT_TOL_DISPLACEMENT 1200
GEOM_OPT_TOL_ENERGY       100
SYMMETRY                  False
THRESH                    12
SCF_CONVERGENCE           8
MAX_SUB_FILE_NUM          128
MEM_STATIC                400
MEM_TOTAL                 4000
$end
--------------------------------------------------------------

   16   -1510.1425842833      2.06E-09 Convergence criterion met
 Total energy in the final basis set = -1510.14258428
   13   -1510.2134242151      9.02E-09 Convergence criterion met
 Total energy in the final basis set = -1510.21342422
   14   -1510.2514461908      4.07E-09 Convergence criterion met
 Total energy in the final basis set = -1510.25144619
   14   -1510.2663817875      2.87E-09 Convergence criterion met
 Total energy in the final basis set = -1510.26638179
   14   -1510.2729772296      4.74E-09 Convergence criterion met
 Total energy in the final basis set = -1510.27297723
   13   -1510.2772012528      4.16E-09 Convergence criterion met
 Total energy in the final basis set = -1510.27720125
   13   -1510.2798180133      3.41E-09 Convergence criterion met
 Total energy in the final basis set = -1510.27981801
   12   -1510.2808354134      6.73E-09 Convergence criterion met
   11   -1510.2851745882      3.45E-09 Convergence criterion met
 Total energy in the final basis set = -1510.28517459
   11   -1510.2851836313      3.46E-09 Convergence criterion met
 Total energy in the final basis set = -1510.28518363
   10   -1510.2851919121      5.78E-09 Convergence criterion met
 Total energy in the final basis set = -1510.28519191
   10   -1510.2851985311      9.11E-09 Convergence criterion met
 Total energy in the final basis set = -1510.28519853
   11   -1510.2852045106      2.03E-09 Convergence criterion met
 Total energy in the final basis set = -1510.28520451
    9   -1510.2852063905      6.70E-09 Convergence criterion met
 Total energy in the final basis set = -1510.28520639

             Standard Nuclear Orientation (Angstroms)
    I     Atom           X                Y                Z
 ----------------------------------------------------------------
    1      O      -1.5551507696    -0.9326192621     1.0869372394
    2      C      -2.5745328234    -1.4713515618     0.6011692137
    3      C      -3.9931890790    -0.8530286773     0.3481554950
    4      C      -4.1337192511     0.6775741304     0.7264607421
    5      C      -2.8460861769     1.3385032979     1.3363929255
    6      O      -1.9361336679     1.6773255012     0.2858569702
    7      C      -0.7857278119     2.4191045440     0.8526865356
    8      C       0.2071391633     2.6960137717    -0.3223222996
    9      O       0.6783141974     1.4099277279    -0.8911848345
   10      C       1.9096940584     1.0294052017    -0.2647567770
   11      C       2.3238824925    -0.3794012985    -0.8072590553
   12      C       3.8883439177    -0.6125753730    -0.8106453364
   13      C       4.7400108017     0.7054480817    -0.7223536774
   14      O       4.4967068322     1.7950437135    -1.2845017819
   15      O      -2.6443070963    -2.8377974238     0.1809805120
   16      O       5.9026309070     0.4634473832     0.0767495085
   17      O       2.4855861938     1.7008163995     0.6192594620
   18      C       6.7198246888     1.6954632237     0.1595292317
   19      C       1.8784449426    -1.4616447604     0.2734526240
   20      C       2.1275882598    -2.9150074641    -0.3004609881
   21      C       3.6842093693    -3.0607217721    -0.1262002203
   22      C       4.0544530529    -1.6234655655     0.4058560006
   23      O       2.9248073490    -1.3037132309     1.3103030220
   24      H       1.8604417205    -0.5461035195    -1.7950116770
   25      H       4.1831280876    -1.1116096390    -1.7531800611
   26      H       0.8666843176    -1.2871996594     0.6966805224
   27      H       1.5872597871    -3.6645910887     0.2977382048
   28      H       1.8078206058    -3.0038550152    -1.3514057163
   29      H       3.9326619798    -3.8247783260     0.6276422319
   30      H       4.2007678430    -3.3091034298    -1.0667932921
   31      H       5.0203214085    -1.5377054489     0.9389411606
   32      O      -2.6599438955     1.6107450110     2.5428991235
   33      C      -1.3339620333    -3.5032179779     0.3465015722
   34      C      -4.3364857942    -0.8160756611    -1.2056540039
   35      C      -5.8933666088    -0.6070516428    -1.3645849282
   36      C      -6.0331048285     0.9157108321    -0.9916854287
   37      C      -4.5295005032     1.2936701129    -0.6850994512
   38      O      -3.7624016080     0.4723374186    -1.6498618912
   39      H      -4.7288488875    -1.4698535900     0.8959858110
   40      H      -4.9416172093     0.8138108660     1.4669072471
   41      H      -0.8889210538    -3.2938132467     1.3399302867
   42      H      -3.9088666837    -1.6592648555    -1.7820133914
   43      H      -6.2038182414    -0.7993054594    -2.4039583947
   44      H      -6.4711311209    -1.2651418433    -0.6960366555
   45      H      -6.4118487186     1.5065016210    -1.8408082025
   46      H      -6.6897671817     1.0836581182    -0.1232753920
   47      H      -4.2768795785     2.3646484787    -0.8045872476
   48      H      -0.6222878274    -3.1751627010    -0.4371425247
   49      H      -1.5205565842    -4.5877276897     0.2397357129
   50      H       7.5791783522     1.4489183089     0.8097979913
   51      H       6.1449925906     2.5338865449     0.6028306033
   52      H       7.0877456991     2.0099213691    -0.8387898436
   53      H      -0.3051748001     3.2383290758    -1.1423724889
   54      H       1.0699568515     3.2845729756     0.0569893270
   55      H      -0.2825191767     1.8209736901     1.6436279753
   56      H      -1.1189330464     3.3788338188     1.3071004588
 ----------------------------------------------------------------

    9   -1510.2852069925      4.43E-09 Convergence criterion met
 Total energy in the final basis set = -1510.28520699
 Final energy is   -1510.28520699248
 **  OPTIMIZATION CONVERGED  **

                    Orbital Energies (a.u.)
 --------------------------------------------------------------

 Alpha MOs
 -- Occupied --
-18.940 -18.930 -18.926 -18.922 -18.888 -18.886 -18.883 -18.866
-18.866 -18.860 -10.106 -10.094 -10.091 -10.090 -10.069 -10.065
-10.063 -10.061 -10.060 -10.059 -10.054 -10.053 -10.040 -10.034
-10.033 -10.032 -10.021 -10.019 -10.019 -10.017  -1.018  -1.008
 -1.003  -0.998  -0.970  -0.965  -0.943  -0.933  -0.928  -0.921
 -0.763  -0.759  -0.725  -0.721  -0.713  -0.704  -0.692  -0.667
 -0.656  -0.610  -0.597  -0.572  -0.545  -0.540  -0.537  -0.534
 -0.517  -0.505  -0.486  -0.468  -0.462  -0.453  -0.447  -0.441
 -0.434  -0.432  -0.428  -0.416  -0.413  -0.408  -0.406  -0.402
 -0.388  -0.379  -0.371  -0.366  -0.357  -0.356  -0.350  -0.343
 -0.340  -0.337  -0.332  -0.328  -0.326  -0.323  -0.317  -0.314
 -0.308  -0.306  -0.302  -0.298  -0.287  -0.283  -0.281  -0.274
 -0.269  -0.259  -0.250  -0.246  -0.237  -0.234  -0.229  -0.184
 -0.173  -0.166  -0.165  -0.160  -0.152  -0.145  -0.143  -0.140
 -0.138

          Ground-State Mulliken Net Atomic Charges

     Atom                 Charge (a.u.)
  ----------------------------------------
      1 O                    -0.208166
      2 C                     0.215050
      3 C                    -0.077688
      4 C                    -0.081709
      5 C                     0.211911
      6 O                    -0.168885
      7 C                    -0.046273
      8 C                    -0.049652
      9 O                    -0.167298
     10 C                     0.213281
     11 C                    -0.077723
     12 C                    -0.079614
     13 C                     0.213813
     14 O                    -0.215636
     15 O                    -0.171502
     16 O                    -0.170674
     17 O                    -0.214528
     18 C                    -0.127486
     19 C                     0.020749
     20 C                    -0.146257
     21 C                    -0.143071
     22 C                     0.023707
     23 O                    -0.188783
     24 H                     0.086655
     25 H                     0.082168
     26 H                     0.093175
     27 H                     0.074820
     28 H                     0.071385
     29 H                     0.076904
     30 H                     0.072444
     31 H                     0.092952
     32 O                    -0.218648
     33 C                    -0.130646
     34 C                     0.025567
     35 C                    -0.143730
     36 C                    -0.144412
     37 C                     0.026878
     38 O                    -0.186493
     39 H                     0.086739
     40 H                     0.083480
     41 H                     0.093212
     42 H                     0.086256
     43 H                     0.077943
     44 H                     0.073642
     45 H                     0.077696
     46 H                     0.073658
     47 H                     0.084759
     48 H                     0.088259
     49 H                     0.091074
     50 H                     0.089435
     51 H                     0.093309
     52 H                     0.087037
     53 H                     0.090896
     54 H                     0.100354
     55 H                     0.095688
     56 H                     0.083978
  ----------------------------------------
  Sum of atomic charges =     0.000000

                    Cartesian Multipole Moments
 -----------------------------------------------------------------
    Charge (ESU x 10^10)
                 0.0000
    Dipole Moment (Debye)
         X      -1.1802      Y      -2.2319      Z      -1.6692
       Tot       3.0266
    Quadrupole Moments (Debye-Ang)
        XX    -138.1894     XY      -2.0884     YY    -148.5970
        XZ      -1.5426     YZ       1.3552     ZZ    -169.3296

 Total job time:  75.43s(wall), 3597.44s(cpu)
        *  Thank you very much for using Q-Chem.  Have a nice day.  *
