 Q-Chem 5.0, Q-Chem, Inc., Pleasanton, CA (2017)
 Q-Chem 5.0.1 for Intel X86 EM64T Linux

User input:
--------------------------------------------------------------
$molecule
0  1
O -1.5551507696 -0.9326192621 1.0869372394
C -2.5745328234 -1.4713515618 0.6011692137
C -3.993189079 -0.8530286773 0.348155495
C -4.1337192511 0.6775741304 0.7264607421
C -2.8460861769 1.3385032979 1.3363929255
O -1.9361336679 1.6773255012 0.2858569702
C -0.7857278119 2.419104544 0.8526865356
C 0.2071391633 2.6960137717 -0.3223222996
O 0.6783141974 1.4099277279 -0.8911848345
C 1.9096940584 1.0294052017 -0.264756777
C 2.3238824925 -0.3794012985 -0.8072590553
C 3.8883439177 -0.612575373 -0.8106453364
C 4.7400108017 0.7054480817 -0.7223536774
O 4.4967068322 1.7950437135 -1.2845017819
O -2.6443070963 -2.8377974238 0.180980512
O 5.902630907 0.4634473832 0.0767495085
O 2.4855861938 1.7008163995 0.619259462
C 6.7198246888 1.6954632237 0.1595292317
C 1.8784449426 -1.4616447604 0.273452624
C 2.1275882598 -2.9150074641 -0.3004609881
C 3.6842093693 -3.0607217721 -0.1262002203
C 4.0544530529 -1.6234655655 0.4058560006
O 2.924807349 -1.3037132309 1.310303022
H 1.8604417205 -0.5461035195 -1.795011677
H 4.1831280876 -1.111609639 -1.7531800611
H 0.8666843176 -1.2871996594 0.6966805224
H 1.5872597871 -3.6645910887 0.2977382048
H 1.8078206058 -3.0038550152 -1.3514057163
H 3.9326619798 -3.824778326 0.6276422319
H 4.200767843 -3.3091034298 -1.0667932921
H 5.0203214085 -1.5377054489 0.9389411606
O -2.6599438955 1.610745011 2.5428991235
C -1.3339620333 -3.5032179779 0.3465015722
C -4.3364857942 -0.8160756611 -1.2056540039
C -5.8933666088 -0.6070516428 -1.3645849282
C -6.0331048285 0.9157108321 -0.9916854287
C -4.5295005032 1.2936701129 -0.6850994512
O -3.762401608 0.4723374186 -1.6498618912
H -4.7288488875 -1.46985359 0.895985811
H -4.9416172093 0.813810866 1.4669072471
H -0.8889210538 -3.2938132467 1.3399302867
H -3.9088666837 -1.6592648555 -1.7820133914
H -6.2038182414 -0.7993054594 -2.4039583947
H -6.4711311209 -1.2651418433 -0.6960366555
H -6.4118487186 1.506501621 -1.8408082025
H -6.6897671817 1.0836581182 -0.123275392
H -4.2768795785 2.3646484787 -0.8045872476
H -0.6222878274 -3.175162701 -0.4371425247
H -1.5205565842 -4.5877276897 0.2397357129
H 7.5791783522 1.4489183089 0.8097979913
H 6.1449925906 2.5338865449 0.6028306033
H 7.0877456991 2.0099213691 -0.8387898436
H -0.3051748001 3.2383290758 -1.1423724889
H 1.0699568515 3.2845729756 0.056989327
H -0.2825191767 1.8209736901 1.6436279753
H -1.1189330464 3.3788338188 1.3071004588
$end

$rem
JOBTYPE                   OPT
METHOD                    B3LYP
DFT_D                     d3_op
BASIS                     STO-3G
GEOM_OPT_MAX_CYCLES       100
GEOM_OPT_TOL_GRADIENT     300
GEOM_OPT_TOL_DISPLACEMENT 1200
GEOM_OPT_TOL_ENERGY       100
SYMMETRY                  False
THRESH                    12
SCF_CONVERGENCE           8
MAX_SUB_FILE_NUM          128
MEM_STATIC                400
MEM_TOTAL                 4000
$end
--------------------------------------------------------------

   16   -1510.2851951309      6.36E-09 Convergence criterion met
 Total energy in the final basis set = -1510.28519513
   14   -1510.2753016324      5.76E-09 Convergence criterion met
 Total energy in the final basis set = -1510.27530163
   14   -1510.2860809685      2.41E-09 Convergence criterion met
 Total energy in the final basis set = -1510.28608097
   14   -1510.2853462777      2.67E-09 Convergence criterion met
 Total energy in the final basis set = -1510.28534628
   13   -1510.2870540179      9.85E-09 Convergence criterion met
 Total energy in the final basis set = -1510.28705402
   14   -1510.2877837114      2.42E-09 Convergence criterion met
 Total energy in the final basis set = -1510.28778371
   13   -1510.2880023625      4.66E-09 Convergence criterion met
 Total energy in the final basis set = -1510.28800236
   13   -1510.2889038378      6.10E-09 Convergence criterion met
   11   -1510.2987979771      6.96E-09 Convergence criterion met
 Total energy in the final basis set = -1510.29879798
   11   -1510.2987973323      8.82E-09 Convergence criterion met
 Total energy in the final basis set = -1510.29879733
    9   -1510.2987963636      7.69E-09 Convergence criterion met
 Total energy in the final basis set = -1510.29879636
    9   -1510.2987966170      3.94E-09 Convergence criterion met
 Total energy in the final basis set = -1510.29879662
    9   -1510.2987983852      4.54E-09 Convergence criterion met
 Total energy in the final basis set = -1510.29879839
    9   -1510.2987994866      6.05E-09 Convergence criterion met
 Total energy in the final basis set = -1510.29879949

             Standard Nuclear Orientation (Angstroms)
    I     Atom           X                Y                Z
 ----------------------------------------------------------------
    1      O      -0.9769376797    -0.9811772006     0.5103939131
    2      C      -2.0752715725    -1.1336297448    -0.0777137631
    3      C      -3.4664805815    -0.7084770992     0.5172852191
    4      C      -3.4342217725     0.7605361817     1.1207742932
    5      C      -2.0693530401     1.5029660519     0.9204800014
    6      O      -1.7948866563     1.5725599488    -0.4875301637
    7      C      -0.5254922022     2.2948106958    -0.7326733327
    8      C       0.1557945350     1.6919590930    -2.0088548265
    9      O       0.7509201988     0.3571109346    -1.7668257241
   10      C       2.0475915857     0.4732461475    -1.1575786398
   11      C       2.6179466167    -0.9602307617    -0.9207302399
   12      C       4.1058138032    -0.9690395810    -0.3738291151
   13      C       4.7115516387     0.4639860596    -0.1290082946
   14      O       5.4832400048     1.0832084786    -0.8939714630
   15      O      -2.2436031777    -1.7254459426    -1.3552981345
   16      O       4.3221977693     0.9214530425     1.1712681063
   17      O       2.5832594675     1.5733389180    -0.9018965623
   18      C       4.8118576476     2.3013777145     1.3801549499
   19      C       1.8481724896    -1.7274351182     0.2478115050
   20      C       2.1789106009    -3.2642155039     0.0986010227
   21      C       3.6696429264    -3.3084146100     0.6014020837
   22      C       3.9129396681    -1.7909252474     0.9714455417
   23      O       2.5931691733    -1.3348484607     1.4624004884
   24      H       2.5357347906    -1.5160050830    -1.8724920003
   25      H       4.7731251403    -1.4899306266    -1.0831138323
   26      H       0.7652085909    -1.4662093918     0.3393108186
   27      H       1.5176571791    -3.8612968524     0.7469170780
   28      H       2.0687287692    -3.6192206137    -0.9385782998
   29      H       3.7765415704    -3.9436541344     1.4949153350
   30      H       4.3693827753    -3.6650709086    -0.1713097503
   31      H       4.6956077676    -1.6103433672     1.7327754797
   32      O      -1.3394394786     1.9962906909     1.8066301401
   33      C      -0.9274408560    -2.0617657113    -1.9563802004
   34      C      -4.6241793013    -0.5736488335    -0.5569997544
   35      C      -6.0043798773    -0.5457228761     0.2095395142
   36      C      -5.9840659618     0.9047782721     0.8196232305
   37      C      -4.6000441818     1.4432559374     0.2795597688
   38      O      -4.4755315813     0.8138900138    -1.0537430184
   39      H      -3.7327110482    -1.4419146640     1.3012823953
   40      H      -3.6550177786     0.7586003877     2.2023599617
   41      H      -0.4546599747    -2.9119056843    -1.4245758464
   42      H      -4.5518448547    -1.2953857750    -1.3926775945
   43      H      -6.8391915430    -0.6736078487    -0.4977978562
   44      H      -6.0700827188    -1.3316681448     0.9788117458
   45      H      -6.8127505608     1.5183194062     0.4319753524
   46      H      -6.0282275031     0.9055948348     1.9205450795
   47      H      -4.5220344336     2.5446798581     0.1975018451
   48      H      -0.2445992293    -1.1778806849    -1.9346692953
   49      H      -1.1451874628    -2.3602063950    -2.9978509227
   50      H       4.5139370903     2.5795186782     2.4078227109
   51      H       4.3481985169     3.0021152710     0.6558037417
   52      H       5.9147602495     2.3668454821     1.2800538797
   53      H      -0.6040849045     1.5428625596    -2.8026860987
   54      H       0.9379066129     2.3976511556    -2.3624121450
   55      H       0.1382512465     2.2185597324     0.1553231516
   56      H      -0.7390163281     3.3714124191    -0.9169545806
 ----------------------------------------------------------------

    9   -1510.2987993193      2.64E-09 Convergence criterion met
 Total energy in the final basis set = -1510.29879932
 Final energy is   -1510.29879931935
 **  OPTIMIZATION CONVERGED  **

                    Orbital Energies (a.u.)
 --------------------------------------------------------------

 Alpha MOs
 -- Occupied --
-18.949 -18.944 -18.930 -18.916 -18.891 -18.889 -18.881 -18.876
-18.875 -18.852 -10.110 -10.110 -10.099 -10.084 -10.083 -10.072
-10.062 -10.060 -10.051 -10.050 -10.048 -10.041 -10.038 -10.037
-10.034 -10.027 -10.022 -10.021 -10.012 -10.011  -1.025  -1.018
 -1.008  -0.992  -0.972  -0.958  -0.949  -0.942  -0.935  -0.918
 -0.765  -0.756  -0.729  -0.720  -0.713  -0.704  -0.692  -0.660
 -0.646  -0.618  -0.598  -0.579  -0.548  -0.539  -0.536  -0.529
 -0.517  -0.506  -0.494  -0.474  -0.470  -0.456  -0.444  -0.437
 -0.435  -0.432  -0.426  -0.415  -0.411  -0.406  -0.403  -0.397
 -0.395  -0.384  -0.373  -0.369  -0.361  -0.358  -0.353  -0.352
 -0.341  -0.333  -0.333  -0.330  -0.323  -0.322  -0.314  -0.312
 -0.306  -0.305  -0.300  -0.299  -0.295  -0.292  -0.277  -0.273
 -0.271  -0.262  -0.249  -0.248  -0.237  -0.235  -0.221  -0.193
 -0.182  -0.172  -0.163  -0.161  -0.158  -0.151  -0.145  -0.135
 -0.132

          Ground-State Mulliken Net Atomic Charges

     Atom                 Charge (a.u.)
  ----------------------------------------
      1 O                    -0.218245
      2 C                     0.222606
      3 C                    -0.077216
      4 C                    -0.078970
      5 C                     0.212027
      6 O                    -0.174467
      7 C                    -0.052311
      8 C                    -0.047166
      9 O                    -0.173084
     10 C                     0.219291
     11 C                    -0.081038
     12 C                    -0.081519
     13 C                     0.212175
     14 O                    -0.223097
     15 O                    -0.165490
     16 O                    -0.167394
     17 O                    -0.204244
     18 C                    -0.127154
     19 C                     0.005794
     20 C                    -0.145627
     21 C                    -0.145069
     22 C                     0.026755
     23 O                    -0.187399
     24 H                     0.082828
     25 H                     0.080953
     26 H                     0.113556
     27 H                     0.074707
     28 H                     0.067221
     29 H                     0.075819
     30 H                     0.070740
     31 H                     0.084195
     32 O                    -0.208433
     33 C                    -0.146891
     34 C                     0.023724
     35 C                    -0.144139
     36 C                    -0.144028
     37 C                     0.026160
     38 O                    -0.187070
     39 H                     0.085578
     40 H                     0.086257
     41 H                     0.080121
     42 H                     0.092652
     43 H                     0.077972
     44 H                     0.073263
     45 H                     0.078105
     46 H                     0.074365
     47 H                     0.082640
     48 H                     0.115054
     49 H                     0.084807
     50 H                     0.087974
     51 H                     0.090902
     52 H                     0.085022
     53 H                     0.097734
     54 H                     0.097633
     55 H                     0.106142
     56 H                     0.085277
  ----------------------------------------
  Sum of atomic charges =    -0.000000

                    Cartesian Multipole Moments
 -----------------------------------------------------------------
    Charge (ESU x 10^10)
                -0.0000
    Dipole Moment (Debye)
         X      -2.6994      Y      -1.5740      Z      -1.1530
       Tot       3.3307
    Quadrupole Moments (Debye-Ang)
        XX    -156.6922     XY      -4.5015     YY    -150.8359
        XZ      -3.1282     YZ       1.4618     ZZ    -161.8799

 Total job time:  136.24s(wall), 6501.62s(cpu)
        *  Thank you very much for using Q-Chem.  Have a nice day.  *
