 Q-Chem 5.0, Q-Chem, Inc., Pleasanton, CA (2017)
 Q-Chem 5.0.1 for Intel X86 EM64T Linux

User input:
--------------------------------------------------------------
$molecule
0  1
O -2.2859794987 -1.5065791182 0.7144888822
C -3.4510016547 -1.6770154891 0.2884924904
C -4.6010278422 -0.6207245792 0.2363714398
C -4.2308275277 0.7187246224 0.9911066538
C -2.7205303927 0.8134551679 1.4509122902
O -1.8877866181 1.122535201 0.3168487136
C -0.7375149025 1.950954519 0.7414636521
C 0.1524882406 2.1778846326 -0.5273005093
O 0.8586495744 0.9336071274 -0.9104541526
C 2.1467498886 0.8673995749 -0.2848112307
C 2.7900144564 -0.4921785729 -0.7322390221
C 4.3691208099 -0.5369565049 -0.7175793611
C 5.0907020431 0.8571919835 -0.7340038888
O 4.6449375473 1.9518306811 -1.1379620338
O -3.9272754399 -2.9043275206 -0.2668279148
O 6.4209848926 0.6765036499 -0.2316367367
O 2.5734777533 1.7080668946 0.5344140397
C 7.1449858802 1.9677027697 -0.2474150883
C 2.4726492716 -1.5602920598 0.4062098149
C 2.8999813927 -3.001435198 -0.0832382384
C 4.460559015 -2.9466451715 0.1152556689
C 4.6471039811 -1.4444137891 0.5617129959
O 3.4772517485 -1.2147905983 1.4392119143
H 2.3674144321 -0.7812627235 -1.7098684987
H 4.7219910179 -1.0706120403 -1.6206846092
H 1.4465518108 -1.4911508752 0.8183237801
H 2.4353823816 -3.776874637 0.5459758542
H 2.6110492641 -3.1788526035 -1.1316072656
H 4.7879337803 -3.6283795181 0.9166797125
H 5.0185676485 -3.1856070974 -0.8040577979
H 5.5916455422 -1.210369054 1.0890724708
O -2.3272670664 0.8195679956 2.6378997139
C -2.84483602 -3.9163221811 -0.2609776832
C -4.9225318923 -0.0822780243 -1.227048408
C -6.3700162273 0.548188553 -1.1885084473
C -6.0982125797 1.8660958436 -0.3719112034
C -4.5347600972 1.7787001578 -0.151143786
O -4.0449902336 1.098472913 -1.3735679519
H -5.5034335679 -1.0878798493 0.6713836585
H -4.8592555 0.8633833295 1.8872909826
H -2.5041794393 -4.1423599431 0.7701767964
H -4.7410724031 -0.8128126779 -2.0391977182
H -6.7184717601 0.7696979504 -2.210050127
H -7.1026811635 -0.1138658796 -0.7001189657
H -6.3571056993 2.7651179511 -0.9534220048
H -6.6491495171 1.8926216411 0.581911361
H -4.0237585292 2.7519900619 -0.0223340782
H -1.9705264021 -3.5806919145 -0.8551883829
H -3.2761507135 -4.8266853855 -0.7162915489
H 8.1491480306 1.7597544411 0.1657010398
H 6.63504379 2.7282728868 0.3784189068
H 7.2431434957 2.3691134581 -1.2769439806
H -0.4882662282 2.4545273525 -1.3891229801
H 0.8854188955 2.9860605722 -0.3158001238
H -0.1450199701 1.4558050435 1.5421063814
H -1.0884774064 2.9332007322 1.1310946017
$end

$rem
JOBTYPE                   OPT
METHOD                    B3LYP
DFT_D                     d3_op
BASIS                     STO-3G
GEOM_OPT_MAX_CYCLES       100
GEOM_OPT_TOL_GRADIENT     300
GEOM_OPT_TOL_DISPLACEMENT 1200
GEOM_OPT_TOL_ENERGY       100
SYMMETRY                  False
THRESH                    12
SCF_CONVERGENCE           8
MAX_SUB_FILE_NUM          128
MEM_STATIC                400
MEM_TOTAL                 4000
$end
--------------------------------------------------------------

   16   -1510.2744781696      5.49E-09 Convergence criterion met
 Total energy in the final basis set = -1510.27447817
   14   -1510.2787678082      4.04E-09 Convergence criterion met
 Total energy in the final basis set = -1510.27876781
   14   -1510.2826032867      3.59E-09 Convergence criterion met
 Total energy in the final basis set = -1510.28260329
   13   -1510.2842542774      4.07E-09 Convergence criterion met
 Total energy in the final basis set = -1510.28425428
   14   -1510.2854146563      2.62E-09 Convergence criterion met
 Total energy in the final basis set = -1510.28541466
   14   -1510.2862236205      2.35E-09 Convergence criterion met
 Total energy in the final basis set = -1510.28622362
   13   -1510.2871442842      6.48E-09 Convergence criterion met
 Total energy in the final basis set = -1510.28714428
   13   -1510.2877191703      4.67E-09 Convergence criterion met
   12   -1510.2987370356      5.64E-09 Convergence criterion met
 Total energy in the final basis set = -1510.29873704
   12   -1510.2987627552      4.44E-09 Convergence criterion met
 Total energy in the final basis set = -1510.29876276
   11   -1510.2987667858      6.13E-09 Convergence criterion met
 Total energy in the final basis set = -1510.29876679
   11   -1510.2987728614      4.06E-09 Convergence criterion met
 Total energy in the final basis set = -1510.29877286
   11   -1510.2987775356      6.89E-09 Convergence criterion met
 Total energy in the final basis set = -1510.29877754
    9   -1510.2987803339      6.64E-09 Convergence criterion met
 Total energy in the final basis set = -1510.29878033

             Standard Nuclear Orientation (Angstroms)
    I     Atom           X                Y                Z
 ----------------------------------------------------------------
    1      O      -1.0093110792    -0.9218850619     0.4356147592
    2      C      -2.1179954718    -0.9564110377    -0.1516756395
    3      C      -3.4841278040    -0.5360582813     0.5028000734
    4      C      -3.3917731021     0.8746140848     1.2269981500
    5      C      -1.9972113553     1.5752423062     1.0943893193
    6      O      -1.7084642396     1.7551199129    -0.3008263780
    7      C      -0.4114518884     2.4488235381    -0.4738243589
    8      C       0.2432133198     1.9627767909    -1.8121600457
    9      O       0.7733727456     0.5815457785    -1.7337079204
   10      C       2.0539954683     0.5562272306    -1.0807031753
   11      C       2.5583145613    -0.9203852368    -1.0300391966
   12      C       4.0493031930    -1.0646090981    -0.5129471630
   13      C       4.7267902386     0.2989549313    -0.1096838345
   14      O       5.4917732051     0.9854414654    -0.8223850791
   15      O      -2.3229582957    -1.3954725541    -1.4843840630
   16      O       4.4142741765     0.5923636902     1.2565997009
   17      O       2.6229716175     1.5854134713    -0.6570273181
   18      C       4.9814916676     1.9072949280     1.6260697447
   19      C       1.7656036974    -1.7868087541     0.0513479882
   20      C       2.0204855391    -3.3085538358    -0.2864759872
   21      C       3.5128719529    -3.4810059210     0.1833885993
   22      C       3.8326156501    -2.0310667442     0.7268101197
   23      O       2.5414917603    -1.5779007466     1.2915352357
   24      H       2.4370153950    -1.3519903827    -2.0401027207
   25      H       4.6824096841    -1.5265532509    -1.2911911985
   26      H       0.6975433120    -1.4884350337     0.1905939571
   27      H       1.3377791959    -3.9480497820     0.2957145457
   28      H       1.8844167207    -3.5305338439    -1.3571394558
   29      H       3.5999405667    -4.2235666518     0.9924312607
   30      H       4.1862756598    -3.7741720846    -0.6380932712
   31      H       4.6310145458    -1.9793349119     1.4915700469
   32      O      -1.2540214861     1.9590749599     2.0227471559
   33      C      -1.0288687780    -1.7208703903    -2.1365842013
   34      C      -4.6479321028    -0.2711422421    -0.5392636107
   35      C      -6.0181039192    -0.2437899980     0.2459158143
   36      C      -5.9322911460     1.1557773552     0.9599628724
   37      C      -4.5291192376     1.6725278217     0.4499279490
   38      O      -4.4426461982     1.1436296511    -0.9290475713
   39      H      -3.7627034631    -1.3236792260     1.2278692423
   40      H      -3.6163792182     0.7887872351     2.3044139950
   41      H      -0.5878376440    -2.6418711995    -1.7050864362
   42      H      -4.6158432720    -0.9282676359    -1.4288057649
   43      H      -6.8650178035    -0.2875564796    -0.4572249241
   44      H      -6.1069224804    -1.0801317640     0.9575877525
   45      H      -6.7352949833     1.8310184265     0.6238865424
   46      H      -5.9726441439     1.0784591110     2.0582946858
   47      H      -4.4021475817     2.7724266845     0.4523710135
   48      H      -0.3079180911    -0.8738215250    -2.0322873540
   49      H      -1.2699207405    -1.8975183920    -3.2004737020
   50      H       4.7472282060     2.0514959380     2.6967781884
   51      H       4.5198580536     2.7219072522     1.0313097851
   52      H       6.0802472725     1.9383983583     1.4761733544
   53      H      -0.5208455734     1.9431475562    -2.6158531124
   54      H       1.0577228229     2.6674792198    -2.0859335910
   55      H       0.2516475437     2.2521749762     0.3958374673
   56      H      -0.5812223176     3.5467493579    -0.5399565326
 ----------------------------------------------------------------

    9   -1510.2987804753      1.87E-09 Convergence criterion met
 Total energy in the final basis set = -1510.29878048
 Final energy is   -1510.29878047533
 **  OPTIMIZATION CONVERGED  **

                    Orbital Energies (a.u.)
 --------------------------------------------------------------

 Alpha MOs
 -- Occupied --
-18.949 -18.944 -18.931 -18.916 -18.891 -18.889 -18.881 -18.876
-18.876 -18.852 -10.110 -10.109 -10.099 -10.084 -10.083 -10.073
-10.062 -10.060 -10.051 -10.049 -10.048 -10.041 -10.039 -10.037
-10.034 -10.027 -10.022 -10.021 -10.012 -10.011  -1.025  -1.018
 -1.009  -0.993  -0.971  -0.958  -0.949  -0.942  -0.935  -0.918
 -0.765  -0.756  -0.729  -0.720  -0.713  -0.704  -0.693  -0.660
 -0.646  -0.618  -0.598  -0.579  -0.548  -0.539  -0.536  -0.529
 -0.517  -0.506  -0.493  -0.473  -0.470  -0.456  -0.444  -0.436
 -0.435  -0.433  -0.425  -0.415  -0.411  -0.406  -0.403  -0.397
 -0.395  -0.384  -0.373  -0.369  -0.361  -0.358  -0.353  -0.352
 -0.341  -0.334  -0.333  -0.330  -0.323  -0.322  -0.314  -0.312
 -0.306  -0.305  -0.300  -0.299  -0.295  -0.292  -0.277  -0.273
 -0.271  -0.262  -0.249  -0.248  -0.237  -0.235  -0.221  -0.193
 -0.182  -0.172  -0.162  -0.161  -0.158  -0.151  -0.145  -0.136
 -0.132

          Ground-State Mulliken Net Atomic Charges

     Atom                 Charge (a.u.)
  ----------------------------------------
      1 O                    -0.218722
      2 C                     0.222578
      3 C                    -0.077121
      4 C                    -0.079098
      5 C                     0.211747
      6 O                    -0.174384
      7 C                    -0.052324
      8 C                    -0.046791
      9 O                    -0.172909
     10 C                     0.219073
     11 C                    -0.081049
     12 C                    -0.081501
     13 C                     0.212130
     14 O                    -0.223370
     15 O                    -0.165428
     16 O                    -0.167076
     17 O                    -0.204084
     18 C                    -0.127020
     19 C                     0.005746
     20 C                    -0.145684
     21 C                    -0.145013
     22 C                     0.026732
     23 O                    -0.187442
     24 H                     0.082816
     25 H                     0.081060
     26 H                     0.113319
     27 H                     0.074701
     28 H                     0.067262
     29 H                     0.075753
     30 H                     0.070591
     31 H                     0.084492
     32 O                    -0.208351
     33 C                    -0.146863
     34 C                     0.023638
     35 C                    -0.144243
     36 C                    -0.143894
     37 C                     0.026176
     38 O                    -0.187103
     39 H                     0.085619
     40 H                     0.086264
     41 H                     0.080082
     42 H                     0.092846
     43 H                     0.078005
     44 H                     0.073283
     45 H                     0.078047
     46 H                     0.074359
     47 H                     0.082649
     48 H                     0.114865
     49 H                     0.084810
     50 H                     0.088055
     51 H                     0.090996
     52 H                     0.085137
     53 H                     0.097748
     54 H                     0.097045
     55 H                     0.106499
     56 H                     0.085346
  ----------------------------------------
  Sum of atomic charges =    -0.000000

                    Cartesian Multipole Moments
 -----------------------------------------------------------------
    Charge (ESU x 10^10)
                -0.0000
    Dipole Moment (Debye)
         X      -2.7037      Y      -1.2837      Z      -1.2893
       Tot       3.2589
    Quadrupole Moments (Debye-Ang)
        XX    -156.4765     XY      -4.0167     YY    -151.1200
        XZ      -3.6977     YZ       2.5558     ZZ    -161.5175

 Total job time:  107.23s(wall), 5112.80s(cpu)
        *  Thank you very much for using Q-Chem.  Have a nice day.  *
