 Q-Chem 5.0, Q-Chem, Inc., Pleasanton, CA (2017)
 Q-Chem 5.0.1 for Intel X86 EM64T Linux

User input:
--------------------------------------------------------------
$molecule
0  1
O -3.94934 -3.66094 2.70899
C -3.26408 -4.56952 2.26188
C -3.36658 -6.02376 2.66595
C -4.27441 -6.35872 3.86073
C -5.11649 -5.22667 4.40612
O -6.18365 -5.00406 3.58329
C -7.35229 -4.56409 4.28325
C -8.47617 -4.26792 3.29567
O -8.1831 -3.06543 2.56697
C -8.6696 -1.92167 3.10942
C -8.30583 -0.69143 2.31264
C -9.26874 0.49365 2.4759
C -10.22271 0.41294 3.65069
O -10.56933 -0.61581 4.21291
O -2.39528 -4.2963 1.25348
O -10.85658 1.56958 3.98313
O -8.65795 -1.85589 4.33519
C -11.79887 1.6823 4.98399
C -6.96597 -0.06634 2.73575
C -6.4012 0.76355 1.58541
C -7.36796 1.92934 1.5811
C -8.22159 1.58452 2.80813
O -7.3287 0.9187 3.66823
H -8.25038 -1.00066 1.24338
H -9.85714 0.74692 1.56694
H -6.22019 -0.81761 3.07744
H -5.40074 1.13092 1.90862
H -6.29966 0.22784 0.61707
H -6.78872 2.86329 1.75571
H -7.98897 2.03077 0.66483
H -8.67852 2.51268 3.21556
O -5.03383 -4.82918 5.56227
C -2.19751 -3.04082 0.71786
C -3.98529 -6.91997 1.57764
C -3.52775 -8.36484 1.77566
C -4.31655 -8.74636 3.01318
C -5.13761 -7.46992 3.22619
O -5.34914 -6.98966 1.91835
H -2.32083 -6.34336 2.87741
H -3.67566 -6.74394 4.7169
H -1.83272 -2.34335 1.50198
H -3.75377 -6.57863 0.54508
H -3.9142 -8.95587 0.91458
H -2.42774 -8.50329 1.85131
H -4.98792 -9.59495 2.75349
H -3.70639 -9.00508 3.90543
H -6.04913 -7.68639 3.82577
H -3.14537 -2.65593 0.28424
H -1.43646 -3.10421 -0.08665
H -12.14637 2.73426 5.03955
H -11.35289 1.40045 5.96179
H -12.67032 1.02868 4.7657
H -8.60743 -5.11817 2.59325
H -9.43695 -4.16875 3.85385
H -7.14646 -3.67054 4.91105
H -7.6903 -5.39179 4.94696
$end

$opt
CONSTRAINT
tors           1           2           3           4      -8.388
tors           3           4           5           6     +76.692
tors           4           5           6           7    +147.237
tors           5           6           7           8    +177.087
tors           6           7           8           9     -71.860
tors           7           8           9          10     -91.526
tors           8           9          10          11    +178.880
tors           9          10          11          12    +154.545
tors          11          12          13          14     -22.888
ENDCONSTRAINT
$end

$rem
JOBTYPE                   OPT
METHOD                    B3LYP
DFT_D                     d3_op
BASIS                     STO-3G
GEOM_OPT_MAX_CYCLES       100
GEOM_OPT_TOL_GRADIENT     300
GEOM_OPT_TOL_DISPLACEMENT 1200
GEOM_OPT_TOL_ENERGY       100
SYMMETRY                  False
THRESH                    12
SCF_CONVERGENCE           8
MAX_SUB_FILE_NUM          128
MEM_STATIC                400
MEM_TOTAL                 4000
$end
--------------------------------------------------------------

   16   -1510.1182362359      3.78E-09 Convergence criterion met
 Total energy in the final basis set = -1510.11823624
   14   -1510.1916199412      2.03E-09 Convergence criterion met
 Total energy in the final basis set = -1510.19161994
   14   -1510.2309459603      9.37E-09 Convergence criterion met
 Total energy in the final basis set = -1510.23094596
   14   -1510.2530450639      6.73E-09 Convergence criterion met
 Total energy in the final basis set = -1510.25304506
   14   -1510.2626911976      3.86E-09 Convergence criterion met
 Total energy in the final basis set = -1510.26269120
   13   -1510.2674908644      7.38E-09 Convergence criterion met
 Total energy in the final basis set = -1510.26749086
   13   -1510.2700813095      3.01E-09 Convergence criterion met
 Total energy in the final basis set = -1510.27008131
   13   -1510.2714023574      3.38E-09 Convergence criterion met
   12   -1510.2740401110      9.65E-09 Convergence criterion met
 Total energy in the final basis set = -1510.27404011
   12   -1510.2742303874      5.30E-09 Convergence criterion met
 Total energy in the final basis set = -1510.27423039
   12   -1510.2743236792      2.72E-09 Convergence criterion met
 Total energy in the final basis set = -1510.27432368
   11   -1510.2743596625      3.71E-09 Convergence criterion met
 Total energy in the final basis set = -1510.27435966
   11   -1510.2743829351      2.01E-09 Convergence criterion met
 Total energy in the final basis set = -1510.27438294
   10   -1510.2743916957      8.12E-09 Convergence criterion met
 Total energy in the final basis set = -1510.27439170

             Standard Nuclear Orientation (Angstroms)
    I     Atom           X                Y                Z
 ----------------------------------------------------------------
    1      O      -2.2859794987    -1.5065791182     0.7144888822
    2      C      -3.4510016547    -1.6770154891     0.2884924904
    3      C      -4.6010278422    -0.6207245792     0.2363714398
    4      C      -4.2308275277     0.7187246224     0.9911066538
    5      C      -2.7205303927     0.8134551679     1.4509122902
    6      O      -1.8877866181     1.1225352010     0.3168487136
    7      C      -0.7375149025     1.9509545190     0.7414636521
    8      C       0.1524882406     2.1778846326    -0.5273005093
    9      O       0.8586495744     0.9336071274    -0.9104541526
   10      C       2.1467498886     0.8673995749    -0.2848112307
   11      C       2.7900144564    -0.4921785729    -0.7322390221
   12      C       4.3691208099    -0.5369565049    -0.7175793611
   13      C       5.0907020431     0.8571919835    -0.7340038888
   14      O       4.6449375473     1.9518306811    -1.1379620338
   15      O      -3.9272754399    -2.9043275206    -0.2668279148
   16      O       6.4209848926     0.6765036499    -0.2316367367
   17      O       2.5734777533     1.7080668946     0.5344140397
   18      C       7.1449858802     1.9677027697    -0.2474150883
   19      C       2.4726492716    -1.5602920598     0.4062098149
   20      C       2.8999813927    -3.0014351980    -0.0832382384
   21      C       4.4605590150    -2.9466451715     0.1152556689
   22      C       4.6471039811    -1.4444137891     0.5617129959
   23      O       3.4772517485    -1.2147905983     1.4392119143
   24      H       2.3674144321    -0.7812627235    -1.7098684987
   25      H       4.7219910179    -1.0706120403    -1.6206846092
   26      H       1.4465518108    -1.4911508752     0.8183237801
   27      H       2.4353823816    -3.7768746370     0.5459758542
   28      H       2.6110492641    -3.1788526035    -1.1316072656
   29      H       4.7879337803    -3.6283795181     0.9166797125
   30      H       5.0185676485    -3.1856070974    -0.8040577979
   31      H       5.5916455422    -1.2103690540     1.0890724708
   32      O      -2.3272670664     0.8195679956     2.6378997139
   33      C      -2.8448360200    -3.9163221811    -0.2609776832
   34      C      -4.9225318923    -0.0822780243    -1.2270484080
   35      C      -6.3700162273     0.5481885530    -1.1885084473
   36      C      -6.0982125797     1.8660958436    -0.3719112034
   37      C      -4.5347600972     1.7787001578    -0.1511437860
   38      O      -4.0449902336     1.0984729130    -1.3735679519
   39      H      -5.5034335679    -1.0878798493     0.6713836585
   40      H      -4.8592555000     0.8633833295     1.8872909826
   41      H      -2.5041794393    -4.1423599431     0.7701767964
   42      H      -4.7410724031    -0.8128126779    -2.0391977182
   43      H      -6.7184717601     0.7696979504    -2.2100501270
   44      H      -7.1026811635    -0.1138658796    -0.7001189657
   45      H      -6.3571056993     2.7651179511    -0.9534220048
   46      H      -6.6491495171     1.8926216411     0.5819113610
   47      H      -4.0237585292     2.7519900619    -0.0223340782
   48      H      -1.9705264021    -3.5806919145    -0.8551883829
   49      H      -3.2761507135    -4.8266853855    -0.7162915489
   50      H       8.1491480306     1.7597544411     0.1657010398
   51      H       6.6350437900     2.7282728868     0.3784189068
   52      H       7.2431434957     2.3691134581    -1.2769439806
   53      H      -0.4882662282     2.4545273525    -1.3891229801
   54      H       0.8854188955     2.9860605722    -0.3158001238
   55      H      -0.1450199701     1.4558050435     1.5421063814
   56      H      -1.0884774064     2.9332007322     1.1310946017
 ----------------------------------------------------------------

   10   -1510.2743912094      8.92E-09 Convergence criterion met
 Total energy in the final basis set = -1510.27439121
 Final energy is   -1510.27439120941
 **  OPTIMIZATION CONVERGED  **

                    Orbital Energies (a.u.)
 --------------------------------------------------------------

 Alpha MOs
 -- Occupied --
-18.942 -18.928 -18.921 -18.908 -18.888 -18.886 -18.883 -18.870
-18.865 -18.859 -10.105 -10.094 -10.089 -10.087 -10.069 -10.063
-10.062 -10.060 -10.060 -10.059 -10.055 -10.054 -10.039 -10.033
-10.032 -10.031 -10.021 -10.020 -10.017 -10.016  -1.018  -1.007
 -1.001  -0.992  -0.970  -0.966  -0.942  -0.932  -0.926  -0.918
 -0.762  -0.758  -0.724  -0.719  -0.710  -0.704  -0.690  -0.666
 -0.657  -0.609  -0.595  -0.572  -0.546  -0.539  -0.537  -0.533
 -0.514  -0.506  -0.485  -0.465  -0.462  -0.453  -0.446  -0.440
 -0.434  -0.430  -0.421  -0.415  -0.411  -0.408  -0.406  -0.401
 -0.388  -0.378  -0.371  -0.363  -0.357  -0.352  -0.349  -0.342
 -0.341  -0.336  -0.330  -0.329  -0.326  -0.324  -0.315  -0.313
 -0.307  -0.305  -0.299  -0.297  -0.289  -0.287  -0.282  -0.272
 -0.266  -0.259  -0.250  -0.239  -0.234  -0.231  -0.229  -0.184
 -0.174  -0.164  -0.160  -0.155  -0.153  -0.143  -0.139  -0.138
 -0.137

          Ground-State Mulliken Net Atomic Charges

     Atom                 Charge (a.u.)
  ----------------------------------------
      1 O                    -0.201202
      2 C                     0.213576
      3 C                    -0.079539
      4 C                    -0.080881
      5 C                     0.214166
      6 O                    -0.175845
      7 C                    -0.047024
      8 C                    -0.048645
      9 O                    -0.172203
     10 C                     0.213282
     11 C                    -0.077948
     12 C                    -0.079953
     13 C                     0.212460
     14 O                    -0.210125
     15 O                    -0.169066
     16 O                    -0.173068
     17 O                    -0.210873
     18 C                    -0.128102
     19 C                     0.024741
     20 C                    -0.144872
     21 C                    -0.142614
     22 C                     0.024837
     23 O                    -0.188882
     24 H                     0.086712
     25 H                     0.082702
     26 H                     0.088244
     27 H                     0.077461
     28 H                     0.072843
     29 H                     0.077250
     30 H                     0.072415
     31 H                     0.090989
     32 O                    -0.217073
     33 C                    -0.128273
     34 C                     0.026023
     35 C                    -0.142688
     36 C                    -0.145099
     37 C                     0.027339
     38 O                    -0.184949
     39 H                     0.085571
     40 H                     0.083513
     41 H                     0.090661
     42 H                     0.085471
     43 H                     0.077929
     44 H                     0.073737
     45 H                     0.077621
     46 H                     0.073700
     47 H                     0.082076
     48 H                     0.091215
     49 H                     0.091620
     50 H                     0.089187
     51 H                     0.092064
     52 H                     0.087233
     53 H                     0.093793
     54 H                     0.096534
     55 H                     0.093912
     56 H                     0.078047
  ----------------------------------------
  Sum of atomic charges =    -0.000000

                    Cartesian Multipole Moments
 -----------------------------------------------------------------
    Charge (ESU x 10^10)
                 0.0000
    Dipole Moment (Debye)
         X      -1.5132      Y      -1.8173      Z      -2.0088
       Tot       3.1028
    Quadrupole Moments (Debye-Ang)
        XX    -132.7871     XY      -3.1968     YY    -147.2395
        XZ      -4.4505     YZ       3.0451     ZZ    -167.8946

 Total job time:  54.12s(wall), 2573.99s(cpu)
        *  Thank you very much for using Q-Chem.  Have a nice day.  *
