 Q-Chem 5.0, Q-Chem, Inc., Pleasanton, CA (2017)
 Q-Chem 5.0.1 for Intel X86 EM64T Linux

User input:
--------------------------------------------------------------
$molecule
0  1
O -3.94934 -3.66094 2.70899
C -3.26408 -4.56952 2.26188
C -3.36658 -6.02376 2.66595
C -4.70518 -6.49624 3.25652
C -5.84838 -5.50666 3.2128
O -6.41012 -5.50135 1.96787
C -7.58014 -4.68107 1.88152
C -7.85698 -4.31168 0.42789
O -6.68734 -3.71836 -0.15759
C -6.75224 -2.37904 -0.36044
C -5.46457 -1.80246 -0.89908
C -5.5072 -0.29834 -1.20583
C -6.67328 0.46471 -0.61026
O -7.82101 0.05229 -0.52538
O -2.09334 -4.24554 1.65372
O -6.40238 1.68793 -0.07887
O -7.76277 -2.12419 -0.99992
C -7.33578 2.50136 0.52929
C -4.18459 -1.91286 -0.08642
C -2.98532 -1.8414 -1.04921
C -2.98309 -0.36744 -1.38598
C -4.17007 0.11425 -0.55101
O -4.11513 -0.69118 0.60479
H -5.31767 -2.36257 -1.85246
H -5.53597 -0.09376 -2.29891
H -4.16454 -2.8417 0.49572
H -2.03984 -2.0739 -0.52385
H -3.06457 -2.52273 -1.92399
H -2.05305 0.08563 -0.97412
H -3.07435 -0.12304 -2.46633
H -4.0714 1.20842 -0.38608
O -6.37057 -5.03577 4.2167
C -1.40777 -3.07121 1.89553
C -3.26325 -6.98831 1.45996
C -2.76486 -8.35343 1.93314
C -3.9839 -8.85683 2.67954
C -4.97814 -7.7305 2.37448
O -4.59295 -7.27378 1.10078
H -2.50413 -6.21862 3.3431
H -4.57616 -6.77005 4.32775
H -2.04715 -2.18418 1.71918
H -2.61045 -6.60948 0.64357
H -2.62506 -8.97975 1.02271
H -1.8194 -8.34475 2.51691
H -4.31266 -9.81164 2.21244
H -3.84708 -8.99515 3.77392
H -6.02534 -8.09202 2.47385
H -0.51538 -3.02577 1.23819
H -1.0692 -3.04916 2.95301
H -6.83953 3.43355 0.8687
H -7.77373 1.98772 1.41178
H -8.14019 2.76521 -0.19011
H -8.11324 -5.2233 -0.15198
H -8.7575 -3.65493 0.43132
H -7.41345 -3.70767 2.40101
H -8.45317 -5.19569 2.33946
$end

$opt
CONSTRAINT
tors           1           2           3           4     +23.646
tors           3           4           5           6     +80.103
tors           4           5           6           7    +174.471
tors           5           6           7           8    +159.571
tors           6           7           8           9     -53.761
tors           7           8           9          10    -106.701
tors           8           9          10          11    +176.510
tors           9          10          11          12    +177.363
tors          11          12          13          14     -38.852
ENDCONSTRAINT
$end

$rem
JOBTYPE                   OPT
METHOD                    B3LYP
DFT_D                     d3_op
BASIS                     STO-3G
GEOM_OPT_MAX_CYCLES       100
GEOM_OPT_TOL_GRADIENT     300
GEOM_OPT_TOL_DISPLACEMENT 1200
GEOM_OPT_TOL_ENERGY       100
SYMMETRY                  False
THRESH                    12
SCF_CONVERGENCE           8
MAX_SUB_FILE_NUM          128
MEM_STATIC                400
MEM_TOTAL                 4000
$end
--------------------------------------------------------------

   16   -1510.0820015455      4.07E-09 Convergence criterion met
 Total energy in the final basis set = -1510.08200155
   14   -1510.1607325755      9.71E-09 Convergence criterion met
 Total energy in the final basis set = -1510.16073258
   14   -1510.2037093815      5.69E-09 Convergence criterion met
 Total energy in the final basis set = -1510.20370938
   15   -1510.2286661120      4.49E-09 Convergence criterion met
 Total energy in the final basis set = -1510.22866611
   15   -1510.2446851981      2.45E-09 Convergence criterion met
 Total energy in the final basis set = -1510.24468520
   13   -1510.2549190412      5.28E-09 Convergence criterion met
 Total energy in the final basis set = -1510.25491904
   13   -1510.2607637516      7.81E-09 Convergence criterion met
 Total energy in the final basis set = -1510.26076375
   13   -1510.2665771064      6.90E-09 Convergence criterion met
    9   -1510.2729935294      9.12E-09 Convergence criterion met
 Total energy in the final basis set = -1510.27299353
    9   -1510.2729957467      7.26E-09 Convergence criterion met
 Total energy in the final basis set = -1510.27299575
   10   -1510.2729999444      5.55E-09 Convergence criterion met
 Total energy in the final basis set = -1510.27299994
    9   -1510.2730070840      7.11E-09 Convergence criterion met
 Total energy in the final basis set = -1510.27300708
    9   -1510.2730125483      7.60E-09 Convergence criterion met
 Total energy in the final basis set = -1510.27301255
    9   -1510.2730153375      9.32E-09 Convergence criterion met
 Total energy in the final basis set = -1510.27301534

             Standard Nuclear Orientation (Angstroms)
    I     Atom           X                Y                Z
 ----------------------------------------------------------------
    1      O       1.3755169984     0.5954399812     2.0522676740
    2      C       1.9428039743     1.2470320099     1.1459346227
    3      C       3.3903300201     0.9812934047     0.5899899678
    4      C       3.9031783619    -0.5077216838     0.8119594206
    5      C       2.7578783842    -1.5345294142     1.1320858100
    6      O       2.0906787739    -1.9351399279    -0.0817254435
    7      C       1.1157385899    -2.9992889539     0.2615717563
    8      C       0.0294225051    -3.1024100019    -0.8628545271
    9      O      -0.6095110406    -1.8071277431    -1.1340265442
   10      C      -1.9478514805    -1.6732426058    -0.6525592730
   11      C      -2.2396749248    -0.1732625482    -1.0373749431
   12      C      -3.6386791097     0.5197276480    -0.7870071046
   13      C      -4.7456349163    -0.3576075745    -0.0966628309
   14      O      -4.9857370099    -1.5680567743    -0.2865071399
   15      O       1.4632800799     2.5111253287     0.6742841828
   16      O      -5.4994095037     0.4685369019     0.8018242275
   17      O      -2.5896859165    -2.5617186551    -0.0602589202
   18      C      -6.5686601296    -0.3310490902     1.4416520228
   19      C      -1.2493442292     0.8274764408    -0.3300800345
   20      C      -1.1364186351     2.1109245057    -1.2460765582
   21      C      -2.5021515950     2.8269617184    -0.9314918456
   22      C      -3.1742308112     1.7936893319     0.0555328784
   23      O      -2.0185344513     1.2968899506     0.8478391023
   24      H      -2.0359229360    -0.1451383373    -2.1237170092
   25      H      -4.0593125250     0.8489149143    -1.7558553601
   26      H      -0.2894102607     0.3724389619    -0.0218644511
   27      H      -0.2645791921     2.7181277432    -0.9579122477
   28      H      -1.0380665609     1.8385910972    -2.3083483077
   29      H      -2.3450675827     3.7910715489    -0.4213688766
   30      H      -3.1117469688     3.0009666539    -1.8325997015
   31      H      -3.9571093024     2.2019167259     0.7226538938
   32      O       2.5233453051    -2.0468999841     2.2485997186
   33      C       0.3483853822     2.9817246158     1.5471705131
   34      C       3.6235240556     1.1747817028    -0.9687137923
   35      C       5.1539928347     1.5052759806    -1.1687306158
   36      C       5.8009253145     0.1074592478    -0.8397449488
   37      C       4.5161253842    -0.7911590707    -0.6269168765
   38      O       3.5066920684    -0.1889891785    -1.5309455331
   39      H       4.0419895692     1.6827139156     1.1452564827
   40      H       4.6472063083    -0.5640359607     1.6253976370
   41      H      -0.5879951056     2.3828554278     1.4169854341
   42      H       2.9123419801     1.8673126106    -1.4591544111
   43      H       5.3491300128     1.8030107922    -2.2114837225
   44      H       5.5025020404     2.3081508217    -0.4995904488
   45      H       6.4009617113    -0.2708623750    -1.6822244636
   46      H       6.4354751627     0.1351506667     0.0604774329
   47      H       4.6505197278    -1.8644663629    -0.8618324583
   48      H       0.1646308639     4.0282923556     1.2426602447
   49      H       0.6508940487     2.9561397762     2.6125881358
   50      H      -7.0704184616     0.3466434178     2.1566439828
   51      H      -6.1547410933    -1.2056289377     1.9835543500
   52      H      -7.3062746946    -0.6964375906     0.6977148734
   53      H       0.5022386892    -3.4324611956    -1.8118410372
   54      H      -0.7337082030    -3.8504411936    -0.5513866510
   55      H       0.6427341633    -2.7785029105     1.2425011391
   56      H       1.6320506949    -3.9815092275     0.3494898603
 ----------------------------------------------------------------

    9   -1510.2730162560      8.44E-09 Convergence criterion met
 Total energy in the final basis set = -1510.27301626
 Final energy is   -1510.27301625602
 **  OPTIMIZATION CONVERGED  **

                    Orbital Energies (a.u.)
 --------------------------------------------------------------

 Alpha MOs
 -- Occupied --
-18.930 -18.928 -18.925 -18.924 -18.900 -18.886 -18.881 -18.874
-18.874 -18.865 -10.100 -10.097 -10.096 -10.090 -10.071 -10.065
-10.061 -10.061 -10.059 -10.059 -10.058 -10.042 -10.039 -10.037
-10.036 -10.035 -10.022 -10.020 -10.019 -10.017  -1.012  -1.008
 -1.006  -1.000  -0.977  -0.968  -0.939  -0.931  -0.931  -0.924
 -0.766  -0.761  -0.727  -0.720  -0.715  -0.706  -0.694  -0.659
 -0.651  -0.615  -0.596  -0.573  -0.546  -0.543  -0.539  -0.536
 -0.518  -0.507  -0.484  -0.471  -0.460  -0.458  -0.445  -0.438
 -0.434  -0.433  -0.429  -0.414  -0.411  -0.406  -0.401  -0.397
 -0.392  -0.372  -0.369  -0.366  -0.363  -0.352  -0.347  -0.343
 -0.341  -0.340  -0.335  -0.330  -0.328  -0.321  -0.316  -0.311
 -0.309  -0.308  -0.303  -0.295  -0.294  -0.287  -0.282  -0.274
 -0.271  -0.254  -0.253  -0.245  -0.239  -0.237  -0.232  -0.177
 -0.176  -0.173  -0.167  -0.164  -0.152  -0.149  -0.142  -0.139
 -0.138

          Ground-State Mulliken Net Atomic Charges

     Atom                 Charge (a.u.)
  ----------------------------------------
      1 O                    -0.208531
      2 C                     0.204216
      3 C                    -0.077898
      4 C                    -0.078824
      5 C                     0.208502
      6 O                    -0.167795
      7 C                    -0.051375
      8 C                    -0.048130
      9 O                    -0.180248
     10 C                     0.215799
     11 C                    -0.077096
     12 C                    -0.079636
     13 C                     0.209001
     14 O                    -0.201221
     15 O                    -0.176736
     16 O                    -0.173052
     17 O                    -0.199472
     18 C                    -0.128142
     19 C                     0.024590
     20 C                    -0.147289
     21 C                    -0.145123
     22 C                     0.023671
     23 O                    -0.188110
     24 H                     0.087196
     25 H                     0.084444
     26 H                     0.095358
     27 H                     0.085353
     28 H                     0.074653
     29 H                     0.076830
     30 H                     0.074065
     31 H                     0.094819
     32 O                    -0.210527
     33 C                    -0.146989
     34 C                     0.024064
     35 C                    -0.142395
     36 C                    -0.145489
     37 C                     0.026389
     38 O                    -0.185430
     39 H                     0.084633
     40 H                     0.085800
     41 H                     0.111186
     42 H                     0.087553
     43 H                     0.077309
     44 H                     0.072973
     45 H                     0.077491
     46 H                     0.073222
     47 H                     0.083491
     48 H                     0.079009
     49 H                     0.082459
     50 H                     0.089445
     51 H                     0.093092
     52 H                     0.087263
     53 H                     0.088625
     54 H                     0.096585
     55 H                     0.098118
     56 H                     0.082307
  ----------------------------------------
  Sum of atomic charges =    -0.000000

                    Cartesian Multipole Moments
 -----------------------------------------------------------------
    Charge (ESU x 10^10)
                -0.0000
    Dipole Moment (Debye)
         X       0.8709      Y       2.4689      Z      -1.7546
       Tot       3.1516
    Quadrupole Moments (Debye-Ang)
        XX    -141.1362     XY      -6.3063     YY    -154.7028
        XZ      -0.8611     YZ       2.6328     ZZ    -164.7888

 Total job time:  89.79s(wall), 4284.83s(cpu)
        *  Thank you very much for using Q-Chem.  Have a nice day.  *
