 Q-Chem 5.0, Q-Chem, Inc., Pleasanton, CA (2017)
 Q-Chem 5.0.1 for Intel X86 EM64T Linux

User input:
--------------------------------------------------------------
$molecule
0  1
O 1.3755169984 0.5954399812 2.052267674
C 1.9428039743 1.2470320099 1.1459346227
C 3.3903300201 0.9812934047 0.5899899678
C 3.9031783619 -0.5077216838 0.8119594206
C 2.7578783842 -1.5345294142 1.13208581
O 2.0906787739 -1.9351399279 -0.0817254435
C 1.1157385899 -2.9992889539 0.2615717563
C 0.0294225051 -3.1024100019 -0.8628545271
O -0.6095110406 -1.8071277431 -1.1340265442
C -1.9478514805 -1.6732426058 -0.652559273
C -2.2396749248 -0.1732625482 -1.0373749431
C -3.6386791097 0.519727648 -0.7870071046
C -4.7456349163 -0.3576075745 -0.0966628309
O -4.9857370099 -1.5680567743 -0.2865071399
O 1.4632800799 2.5111253287 0.6742841828
O -5.4994095037 0.4685369019 0.8018242275
O -2.5896859165 -2.5617186551 -0.0602589202
C -6.5686601296 -0.3310490902 1.4416520228
C -1.2493442292 0.8274764408 -0.3300800345
C -1.1364186351 2.1109245057 -1.2460765582
C -2.502151595 2.8269617184 -0.9314918456
C -3.1742308112 1.7936893319 0.0555328784
O -2.0185344513 1.2968899506 0.8478391023
H -2.035922936 -0.1451383373 -2.1237170092
H -4.059312525 0.8489149143 -1.7558553601
H -0.2894102607 0.3724389619 -0.0218644511
H -0.2645791921 2.7181277432 -0.9579122477
H -1.0380665609 1.8385910972 -2.3083483077
H -2.3450675827 3.7910715489 -0.4213688766
H -3.1117469688 3.0009666539 -1.8325997015
H -3.9571093024 2.2019167259 0.7226538938
O 2.5233453051 -2.0468999841 2.2485997186
C 0.3483853822 2.9817246158 1.5471705131
C 3.6235240556 1.1747817028 -0.9687137923
C 5.1539928347 1.5052759806 -1.1687306158
C 5.8009253145 0.1074592478 -0.8397449488
C 4.5161253842 -0.7911590707 -0.6269168765
O 3.5066920684 -0.1889891785 -1.5309455331
H 4.0419895692 1.6827139156 1.1452564827
H 4.6472063083 -0.5640359607 1.625397637
H -0.5879951056 2.3828554278 1.4169854341
H 2.9123419801 1.8673126106 -1.4591544111
H 5.3491300128 1.8030107922 -2.2114837225
H 5.5025020404 2.3081508217 -0.4995904488
H 6.4009617113 -0.270862375 -1.6822244636
H 6.4354751627 0.1351506667 0.0604774329
H 4.6505197278 -1.8644663629 -0.8618324583
H 0.1646308639 4.0282923556 1.2426602447
H 0.6508940487 2.9561397762 2.6125881358
H -7.0704184616 0.3466434178 2.1566439828
H -6.1547410933 -1.2056289377 1.98355435
H -7.3062746946 -0.6964375906 0.6977148734
H 0.5022386892 -3.4324611956 -1.8118410372
H -0.733708203 -3.8504411936 -0.551386651
H 0.6427341633 -2.7785029105 1.2425011391
H 1.6320506949 -3.9815092275 0.3494898603
$end

$rem
JOBTYPE                   OPT
METHOD                    B3LYP
DFT_D                     d3_op
BASIS                     STO-3G
GEOM_OPT_MAX_CYCLES       100
GEOM_OPT_TOL_GRADIENT     300
GEOM_OPT_TOL_DISPLACEMENT 1200
GEOM_OPT_TOL_ENERGY       100
SYMMETRY                  False
THRESH                    12
SCF_CONVERGENCE           8
MAX_SUB_FILE_NUM          128
MEM_STATIC                400
MEM_TOTAL                 4000
$end
--------------------------------------------------------------

   16   -1510.2730140157      6.04E-09 Convergence criterion met
 Total energy in the final basis set = -1510.27301402
   15   -1510.2691319596      5.44E-09 Convergence criterion met
 Total energy in the final basis set = -1510.26913196
   15   -1510.2686097067      2.80E-09 Convergence criterion met
 Total energy in the final basis set = -1510.26860971
   14   -1510.2765868030      5.64E-09 Convergence criterion met
 Total energy in the final basis set = -1510.27658680
   15   -1510.2481367674      4.21E-09 Convergence criterion met
 Total energy in the final basis set = -1510.24813677
   15   -1510.2796338051      3.44E-09 Convergence criterion met
 Total energy in the final basis set = -1510.27963381
   14   -1510.2799356611      4.78E-09 Convergence criterion met
 Total energy in the final basis set = -1510.27993566
   13   -1510.2835251955      5.35E-09 Convergence criterion met
   12   -1510.3060762646      8.12E-09 Convergence criterion met
 Total energy in the final basis set = -1510.30607626
   12   -1510.3061536899      4.12E-09 Convergence criterion met
 Total energy in the final basis set = -1510.30615369
   12   -1510.3062027438      2.76E-09 Convergence criterion met
 Total energy in the final basis set = -1510.30620274
   12   -1510.3062019086      3.53E-09 Convergence criterion met
 Total energy in the final basis set = -1510.30620191
   11   -1510.3062169984      4.96E-09 Convergence criterion met
 Total energy in the final basis set = -1510.30621700
   10   -1510.3062213147      6.57E-09 Convergence criterion met
 Total energy in the final basis set = -1510.30622131

             Standard Nuclear Orientation (Angstroms)
    I     Atom           X                Y                Z
 ----------------------------------------------------------------
    1      O       0.3511513551     0.1990726319    -1.7388346491
    2      C       1.0350359831    -0.8437758215    -1.6182301966
    3      C       2.5068842863    -0.9431808553    -1.0852441847
    4      C       3.1931350901     0.4721707269    -0.8844202019
    5      C       2.2862160492     1.6785425335    -1.3370918932
    6      O       1.5550629658     2.1709490915    -0.2062749332
    7      C       0.5372163307     3.1447039878    -0.6633485354
    8      C      -0.2884189265     3.5450806741     0.6083341176
    9      O      -0.5737757346     2.3716499987     1.4698326507
   10      C      -1.5235661947     1.5018001295     0.8551601477
   11      C      -1.7010567132     0.2495773017     1.7723805621
   12      C      -2.8748808152    -0.7030457727     1.2999877228
   13      C      -3.6534844263    -0.1798219586     0.0364151995
   14      O      -4.7069141812     0.4923950273     0.0470112328
   15      O       0.6006313488    -2.1476550374    -1.9762809254
   16      O      -3.0637254191    -0.7121645045    -1.1643638260
   17      O      -2.1069233977     1.7361998907    -0.2281184319
   18      C      -3.7575802882    -0.1557786021    -2.3457955858
   19      C      -0.4520547910    -0.7320392722     1.6845756210
   20      C      -0.5397572963    -1.7350167257     2.9021256457
   21      C      -1.7107107841    -2.6821204793     2.4435423035
   22      C      -2.0792293691    -2.0512537761     1.0433340193
   23      O      -0.7740678742    -1.5889363141     0.5211144966
   24      H      -1.8517116958     0.6000602594     2.8090753783
   25      H      -3.6193262401    -0.8221836375     2.1069128269
   26      H       0.5462176979    -0.2507606509     1.5391886634
   27      H       0.4077994807    -2.2867391842     3.0100552837
   28      H      -0.7551098702    -1.2203229846     3.8518624333
   29      H      -1.3673539924    -3.7214580803     2.3191574833
   30      H      -2.5644621178    -2.6732351177     3.1398912984
   31      H      -2.5643795209    -2.7405556664     0.3261430903
   32      O       2.2722987941     2.2054896824    -2.4709448036
   33      C      -0.7920138756    -2.1023609803    -2.4866127446
   34      C       2.5569598033    -1.5219646523     0.3917234665
   35      C       4.0443837622    -1.9317273012     0.7205992292
   36      C       4.7101772659    -0.5202417791     0.9356479017
   37      C       3.4854105362     0.4428343885     0.6738376979
   38      O       2.3452290849    -0.3217906994     1.2332524797
   39      H       3.0831489001    -1.5831062325    -1.7769933025
   40      H       4.1289517417     0.5288690619    -1.4679173943
   41      H      -1.4768708567    -1.5621462010    -1.7906312606
   42      H       1.7829654176    -2.2855918417     0.6032596829
   43      H       4.0835505026    -2.5403292848     1.6379940242
   44      H       4.5076636621    -2.5002613908    -0.1014458922
   45      H       5.0778425236    -0.4013726831     1.9673329332
   46      H       5.5428025557    -0.3310520118     0.2396198378
   47      H       3.5514866689     1.4388085201     1.1514807502
   48      H      -1.1062191470    -3.1569619672    -2.5894299608
   49      H      -0.8246599151    -1.6146025470    -3.4824639387
   50      H      -3.3196617529    -0.6583554717    -3.2271006161
   51      H      -3.5922612158     0.9382156797    -2.4218734939
   52      H      -4.8486369229    -0.3500447998    -2.3064758199
   53      H       0.2979262417     4.2310036135     1.2516088268
   54      H      -1.2277316129     4.0486454663     0.2916311019
   55      H      -0.1260007462     2.6676659198    -1.4163291168
   56      H       1.0029528085     4.0475086872    -1.1169754051
 ----------------------------------------------------------------

   10   -1510.3062213002      6.91E-09 Convergence criterion met
 Total energy in the final basis set = -1510.30622130
 Final energy is   -1510.30622130017
 **  OPTIMIZATION CONVERGED  **

                    Orbital Energies (a.u.)
 --------------------------------------------------------------

 Alpha MOs
 -- Occupied --
-18.936 -18.927 -18.925 -18.917 -18.899 -18.878 -18.878 -18.869
-18.859 -18.856 -10.100 -10.094 -10.091 -10.089 -10.073 -10.063
-10.062 -10.062 -10.054 -10.053 -10.038 -10.038 -10.035 -10.032
-10.031 -10.029 -10.023 -10.022 -10.014 -10.011  -1.014  -1.005
 -0.998  -0.994  -0.977  -0.963  -0.938  -0.928  -0.924  -0.921
 -0.763  -0.756  -0.725  -0.718  -0.711  -0.704  -0.690  -0.651
 -0.649  -0.611  -0.592  -0.573  -0.547  -0.540  -0.537  -0.529
 -0.514  -0.501  -0.483  -0.472  -0.458  -0.451  -0.441  -0.440
 -0.435  -0.433  -0.426  -0.407  -0.407  -0.401  -0.399  -0.393
 -0.386  -0.369  -0.367  -0.362  -0.360  -0.352  -0.345  -0.339
 -0.337  -0.333  -0.330  -0.329  -0.325  -0.322  -0.320  -0.311
 -0.307  -0.305  -0.298  -0.293  -0.292  -0.276  -0.273  -0.273
 -0.271  -0.257  -0.249  -0.243  -0.235  -0.233  -0.223  -0.177
 -0.170  -0.165  -0.161  -0.154  -0.152  -0.145  -0.141  -0.137
 -0.136

          Ground-State Mulliken Net Atomic Charges

     Atom                 Charge (a.u.)
  ----------------------------------------
      1 O                    -0.211471
      2 C                     0.220065
      3 C                    -0.078739
      4 C                    -0.082196
      5 C                     0.214928
      6 O                    -0.175857
      7 C                    -0.050273
      8 C                    -0.045786
      9 O                    -0.164886
     10 C                     0.218213
     11 C                    -0.079483
     12 C                    -0.082122
     13 C                     0.217655
     14 O                    -0.219574
     15 O                    -0.168258
     16 O                    -0.172174
     17 O                    -0.209066
     18 C                    -0.126118
     19 C                     0.007718
     20 C                    -0.144496
     21 C                    -0.145146
     22 C                     0.024980
     23 O                    -0.198490
     24 H                     0.085753
     25 H                     0.082667
     26 H                     0.115946
     27 H                     0.073938
     28 H                     0.071858
     29 H                     0.074539
     30 H                     0.071736
     31 H                     0.082715
     32 O                    -0.221624
     33 C                    -0.141629
     34 C                     0.025613
     35 C                    -0.143516
     36 C                    -0.143582
     37 C                     0.028146
     38 O                    -0.189153
     39 H                     0.086404
     40 H                     0.083053
     41 H                     0.121120
     42 H                     0.094026
     43 H                     0.077879
     44 H                     0.075518
     45 H                     0.078027
     46 H                     0.074733
     47 H                     0.089955
     48 H                     0.080074
     49 H                     0.075908
     50 H                     0.086556
     51 H                     0.095404
     52 H                     0.087638
     53 H                     0.089979
     54 H                     0.091276
     55 H                     0.104348
     56 H                     0.085270
  ----------------------------------------
  Sum of atomic charges =    -0.000000

                    Cartesian Multipole Moments
 -----------------------------------------------------------------
    Charge (ESU x 10^10)
                 0.0000
    Dipole Moment (Debye)
         X       1.6738      Y      -1.4129      Z       1.4582
       Tot       2.6314
    Quadrupole Moments (Debye-Ang)
        XX    -156.4723     XY       2.2568     YY    -152.1412
        XZ       3.3189     YZ       3.0385     ZZ    -158.4658

 Total job time:  175.32s(wall), 8368.78s(cpu)
        *  Thank you very much for using Q-Chem.  Have a nice day.  *
