 Q-Chem 5.0, Q-Chem, Inc., Pleasanton, CA (2017)
 Q-Chem 5.0.1 for Intel X86 EM64T Linux

User input:
--------------------------------------------------------------
$molecule
0  1
O -3.94934 -3.66094 2.70899
C -3.26408 -4.56952 2.26188
C -3.36658 -6.02376 2.66595
C -4.60951 -6.44445 3.46719
C -5.69623 -5.40369 3.62197
O -6.15251 -5.02286 2.39225
C -7.4597 -4.44068 2.43213
C -7.64053 -3.47436 1.26609
O -6.68876 -2.40336 1.36592
C -7.20342 -1.19574 1.70642
C -6.16222 -0.24258 2.2431
C -6.44464 1.24279 1.97446
C -7.85798 1.57922 1.54319
O -8.60787 0.83434 0.92889
O -2.25664 -4.25898 1.4042
O -8.2281 2.88137 1.67932
O -8.33963 -1.13345 2.17022
C -9.44507 3.39305 1.27964
C -6.05439 -0.26962 3.77718
C -4.67618 0.23041 4.2023
C -4.79721 1.70091 3.86246
C -6.26633 1.76241 3.42362
O -6.89619 0.77148 4.19825
H -5.1823 -0.54392 1.80522
H -5.73837 1.73831 1.27305
H -6.25562 -1.27305 4.21329
H -4.61829 0.12316 5.30932
H -3.81387 -0.29484 3.73764
H -4.63925 2.288 4.79447
H -4.11581 2.06327 3.06253
H -6.64923 2.79642 3.56487
O -6.16061 -5.05461 4.70047
C -1.99217 -2.98437 0.94789
C -3.52087 -6.95905 1.44276
C -3.05348 -8.3691 1.80473
C -4.18417 -8.81872 2.70719
C -5.11943 -7.61009 2.59967
O -4.90742 -7.13595 1.29276
H -2.4127 -6.27309 3.18255
H -4.33967 -6.78222 4.49277
H -1.75141 -2.31402 1.80065
H -2.97678 -6.60204 0.54133
H -3.08524 -8.97611 0.87146
H -2.03623 -8.43265 2.24741
H -4.65938 -9.71745 2.25476
H -3.89729 -9.02983 3.7601
H -6.16376 -7.89677 2.85419
H -2.87014 -2.58669 0.39484
H -1.12147 -3.01683 0.26143
H -9.47848 4.4768 1.51383
H -10.27 2.88386 1.82245
H -9.57654 3.25949 0.1846
H -7.46899 -4.01041 0.30868
H -8.70621 -3.15511 1.23775
H -7.6523 -3.84427 3.35326
H -8.21528 -5.253 2.36177
$end

$opt
CONSTRAINT
tors           1           2           3           4     +13.700
tors           3           4           5           6     +59.530
tors           4           5           6           7    +158.594
tors           5           6           7           8    +153.010
tors           6           7           8           9     -61.778
tors           7           8           9          10    -108.599
tors           8           9          10          11    +160.686
tors           9          10          11          12    +149.956
tors          11          12          13          14     -28.979
ENDCONSTRAINT
$end

$rem
JOBTYPE                   OPT
METHOD                    B3LYP
DFT_D                     d3_op
BASIS                     STO-3G
GEOM_OPT_MAX_CYCLES       100
GEOM_OPT_TOL_GRADIENT     300
GEOM_OPT_TOL_DISPLACEMENT 1200
GEOM_OPT_TOL_ENERGY       100
SYMMETRY                  False
THRESH                    12
SCF_CONVERGENCE           8
MAX_SUB_FILE_NUM          128
MEM_STATIC                400
MEM_TOTAL                 4000
$end
--------------------------------------------------------------

   15   -1510.1322886676      5.46E-09 Convergence criterion met
 Total energy in the final basis set = -1510.13228867
   14   -1510.2041020955      4.21E-09 Convergence criterion met
 Total energy in the final basis set = -1510.20410210
   14   -1510.2428001140      5.60E-09 Convergence criterion met
 Total energy in the final basis set = -1510.24280011
   14   -1510.2626180278      4.73E-09 Convergence criterion met
 Total energy in the final basis set = -1510.26261803
   14   -1510.2710085056      4.54E-09 Convergence criterion met
 Total energy in the final basis set = -1510.27100851
   13   -1510.2745488031      4.67E-09 Convergence criterion met
 Total energy in the final basis set = -1510.27454880
   13   -1510.2761179110      2.94E-09 Convergence criterion met
 Total energy in the final basis set = -1510.27611791
   12   -1510.2767057611      7.38E-09 Convergence criterion met
   10   -1510.2790829736      8.70E-09 Convergence criterion met
 Total energy in the final basis set = -1510.27908297
   11   -1510.2791046787      2.88E-09 Convergence criterion met
 Total energy in the final basis set = -1510.27910468
   10   -1510.2791187227      2.92E-09 Convergence criterion met
 Total energy in the final basis set = -1510.27911872
    9   -1510.2791269868      7.08E-09 Convergence criterion met
 Total energy in the final basis set = -1510.27912699
    9   -1510.2791307839      6.24E-09 Convergence criterion met
 Total energy in the final basis set = -1510.27913078
    9   -1510.2791321707      2.69E-09 Convergence criterion met
 Total energy in the final basis set = -1510.27913217

             Standard Nuclear Orientation (Angstroms)
    I     Atom           X                Y                Z
 ----------------------------------------------------------------
    1      O      -1.5008658067    -1.2565805211     0.3440321690
    2      C      -2.5149429608    -1.4344847529    -0.3686660571
    3      C      -3.9764510425    -0.9592457311    -0.0566605668
    4      C      -4.0335080451     0.0974154952     1.1213327309
    5      C      -2.6215979550     0.6744967798     1.5066825754
    6      O      -2.0588977647     1.3136995612     0.3483497669
    7      C      -1.0202565065     2.2877980828     0.7443649212
    8      C      -0.0347726495     2.3899537349    -0.4659402287
    9      O       0.5666125835     1.0515076405    -0.6734360142
   10      C       1.9455729278     1.0304935345    -0.2826536386
   11      C       2.3082295444    -0.4798787081    -0.0697042968
   12      C       3.8081865926    -0.8821511155    -0.3562300625
   13      C       4.6290118595     0.1808931386    -1.1694283527
   14      O       4.1920608894     0.9987534066    -2.0071288720
   15      O      -2.4928318340    -2.1023287339    -1.6312501771
   16      O       6.0160663414     0.0413100708    -0.8407312700
   17      O       2.6200526294     2.0479018138    -0.0153925934
   18      C       6.8159479765     1.0209024997    -1.6111884719
   19      C       2.2269909450    -0.7759797196     1.4930955077
   20      C       2.2963030234    -2.3377326569     1.7265308509
   21      C       3.8329773312    -2.6119185453     1.5237326866
   22      C       4.3402605503    -1.1748371542     1.1142954445
   23      O       3.5356407195    -0.2789706563     1.9765706292
   24      H       1.5897400168    -1.0938990087    -0.6395502529
   25      H       3.8316872897    -1.8155147623    -0.9503769437
   26      H       1.3928746829    -0.2623334138     2.0102392056
   27      H       1.9668181369    -2.5901010363     2.7468055276
   28      H       1.6664396790    -2.8856767794     1.0075177648
   29      H       4.3109747082    -2.9330390622     2.4629510073
   30      H       4.0360602316    -3.3662673232     0.7469934045
   31      H       5.4223939621    -0.9858102017     1.2494386527
   32      O      -2.1197964892     0.7087269282     2.6513344801
   33      C      -1.1010755436    -2.4858157613    -1.9669135580
   34      C      -4.7058206568    -0.1718534182    -1.2290718520
   35      C      -6.2591737320    -0.2636750579    -0.9591643209
   36      C      -6.4013331163     0.6934794122     0.2825618817
   37      C      -4.9194304393     1.2259268900     0.4359469146
   38      O      -4.4073511110     1.2509231756    -0.9539725963
   39      H      -4.5625524574    -1.8606973599     0.2042850693
   40      H      -4.4987984600    -0.3195361490     2.0312212418
   41      H      -0.7065654787    -3.2464002769    -1.2619848717
   42      H      -4.3745648488    -0.4569409031    -2.2464517933
   43      H      -6.8200756416     0.1187970276    -1.8269867434
   44      H      -6.5906449126    -1.2929458683    -0.7487134211
   45      H      -7.0925728017     1.5258169985     0.0764699471
   46      H      -6.7442262841     0.1657629354     1.1868925648
   47      H      -4.8260750740     2.2269111146     0.8998923223
   48      H      -0.4265091296    -1.6049826318    -1.9513276988
   49      H      -1.1388456943    -2.9117300194    -2.9863905828
   50      H       7.8698353722     0.8451712192    -1.3272278994
   51      H       6.5321174056     2.0635035582    -1.3607980191
   52      H       6.6961374175     0.8771580776    -2.7045824547
   53      H      -0.5895884417     2.6660852085    -1.3861934796
   54      H       0.7695577135     3.1317846334    -0.2657302989
   55      H      -0.4945081787     1.9451879710     1.6617808895
   56      H      -1.4841371276     3.2794554342     0.9477795893
 ----------------------------------------------------------------

    9   -1510.2791321916      2.65E-09 Convergence criterion met
 Total energy in the final basis set = -1510.27913219
 Final energy is   -1510.27913219161
 **  OPTIMIZATION CONVERGED  **

                    Orbital Energies (a.u.)
 --------------------------------------------------------------

 Alpha MOs
 -- Occupied --
-18.941 -18.930 -18.920 -18.915 -18.889 -18.882 -18.882 -18.870
-18.867 -18.862 -10.104 -10.095 -10.091 -10.090 -10.068 -10.063
-10.062 -10.061 -10.061 -10.060 -10.055 -10.054 -10.039 -10.034
-10.033 -10.031 -10.021 -10.020 -10.016 -10.015  -1.017  -1.008
 -1.003  -0.996  -0.970  -0.965  -0.940  -0.934  -0.929  -0.921
 -0.763  -0.758  -0.725  -0.718  -0.710  -0.704  -0.691  -0.665
 -0.657  -0.610  -0.595  -0.572  -0.546  -0.539  -0.537  -0.532
 -0.515  -0.506  -0.487  -0.467  -0.465  -0.455  -0.446  -0.439
 -0.434  -0.429  -0.425  -0.414  -0.411  -0.407  -0.406  -0.401
 -0.391  -0.378  -0.371  -0.362  -0.359  -0.353  -0.348  -0.347
 -0.343  -0.337  -0.333  -0.329  -0.324  -0.319  -0.315  -0.314
 -0.306  -0.304  -0.299  -0.297  -0.290  -0.286  -0.283  -0.275
 -0.267  -0.258  -0.250  -0.239  -0.235  -0.232  -0.229  -0.183
 -0.174  -0.166  -0.159  -0.157  -0.154  -0.143  -0.142  -0.141
 -0.139

          Ground-State Mulliken Net Atomic Charges

     Atom                 Charge (a.u.)
  ----------------------------------------
      1 O                    -0.205773
      2 C                     0.215470
      3 C                    -0.078674
      4 C                    -0.079858
      5 C                     0.214426
      6 O                    -0.174480
      7 C                    -0.048490
      8 C                    -0.051872
      9 O                    -0.174601
     10 C                     0.214041
     11 C                    -0.076950
     12 C                    -0.080243
     13 C                     0.212422
     14 O                    -0.211140
     15 O                    -0.168882
     16 O                    -0.171790
     17 O                    -0.211141
     18 C                    -0.127943
     19 C                     0.026855
     20 C                    -0.143399
     21 C                    -0.143351
     22 C                     0.024123
     23 O                    -0.189226
     24 H                     0.085831
     25 H                     0.082051
     26 H                     0.087818
     27 H                     0.079152
     28 H                     0.073715
     29 H                     0.077379
     30 H                     0.071590
     31 H                     0.091437
     32 O                    -0.219151
     33 C                    -0.128290
     34 C                     0.025606
     35 C                    -0.142801
     36 C                    -0.144806
     37 C                     0.026341
     38 O                    -0.185087
     39 H                     0.084007
     40 H                     0.083967
     41 H                     0.085867
     42 H                     0.089409
     43 H                     0.077947
     44 H                     0.073224
     45 H                     0.077925
     46 H                     0.073812
     47 H                     0.081721
     48 H                     0.095792
     49 H                     0.091450
     50 H                     0.089475
     51 H                     0.092274
     52 H                     0.087967
     53 H                     0.090408
     54 H                     0.099827
     55 H                     0.094956
     56 H                     0.079666
  ----------------------------------------
  Sum of atomic charges =    -0.000000

                    Cartesian Multipole Moments
 -----------------------------------------------------------------
    Charge (ESU x 10^10)
                -0.0000
    Dipole Moment (Debye)
         X      -1.6018      Y      -2.5786      Z      -1.3727
       Tot       3.3315
    Quadrupole Moments (Debye-Ang)
        XX    -139.5513     XY      -4.0594     YY    -152.3469
        XZ      -6.0687     YZ       2.6655     ZZ    -166.0043

 Total job time:  62.24s(wall), 2962.08s(cpu)
        *  Thank you very much for using Q-Chem.  Have a nice day.  *
