 Q-Chem 5.0, Q-Chem, Inc., Pleasanton, CA (2017)
 Q-Chem 5.0.1 for Intel X86 EM64T Linux

User input:
--------------------------------------------------------------
$molecule
0  1
O -1.5008658067 -1.2565805211 0.344032169
C -2.5149429608 -1.4344847529 -0.3686660571
C -3.9764510425 -0.9592457311 -0.0566605668
C -4.0335080451 0.0974154952 1.1213327309
C -2.621597955 0.6744967798 1.5066825754
O -2.0588977647 1.3136995612 0.3483497669
C -1.0202565065 2.2877980828 0.7443649212
C -0.0347726495 2.3899537349 -0.4659402287
O 0.5666125835 1.0515076405 -0.6734360142
C 1.9455729278 1.0304935345 -0.2826536386
C 2.3082295444 -0.4798787081 -0.0697042968
C 3.8081865926 -0.8821511155 -0.3562300625
C 4.6290118595 0.1808931386 -1.1694283527
O 4.1920608894 0.9987534066 -2.007128872
O -2.492831834 -2.1023287339 -1.6312501771
O 6.0160663414 0.0413100708 -0.84073127
O 2.6200526294 2.0479018138 -0.0153925934
C 6.8159479765 1.0209024997 -1.6111884719
C 2.226990945 -0.7759797196 1.4930955077
C 2.2963030234 -2.3377326569 1.7265308509
C 3.8329773312 -2.6119185453 1.5237326866
C 4.3402605503 -1.1748371542 1.1142954445
O 3.5356407195 -0.2789706563 1.9765706292
H 1.5897400168 -1.0938990087 -0.6395502529
H 3.8316872897 -1.8155147623 -0.9503769437
H 1.3928746829 -0.2623334138 2.0102392056
H 1.9668181369 -2.5901010363 2.7468055276
H 1.666439679 -2.8856767794 1.0075177648
H 4.3109747082 -2.9330390622 2.4629510073
H 4.0360602316 -3.3662673232 0.7469934045
H 5.4223939621 -0.9858102017 1.2494386527
O -2.1197964892 0.7087269282 2.6513344801
C -1.1010755436 -2.4858157613 -1.966913558
C -4.7058206568 -0.1718534182 -1.229071852
C -6.259173732 -0.2636750579 -0.9591643209
C -6.4013331163 0.6934794122 0.2825618817
C -4.9194304393 1.22592689 0.4359469146
O -4.407351111 1.2509231756 -0.9539725963
H -4.5625524574 -1.8606973599 0.2042850693
H -4.49879846 -0.319536149 2.0312212418
H -0.7065654787 -3.2464002769 -1.2619848717
H -4.3745648488 -0.4569409031 -2.2464517933
H -6.8200756416 0.1187970276 -1.8269867434
H -6.5906449126 -1.2929458683 -0.7487134211
H -7.0925728017 1.5258169985 0.0764699471
H -6.7442262841 0.1657629354 1.1868925648
H -4.826075074 2.2269111146 0.8998923223
H -0.4265091296 -1.6049826318 -1.9513276988
H -1.1388456943 -2.9117300194 -2.9863905828
H 7.8698353722 0.8451712192 -1.3272278994
H 6.5321174056 2.0635035582 -1.3607980191
H 6.6961374175 0.8771580776 -2.7045824547
H -0.5895884417 2.6660852085 -1.3861934796
H 0.7695577135 3.1317846334 -0.2657302989
H -0.4945081787 1.945187971 1.6617808895
H -1.4841371276 3.2794554342 0.9477795893
$end

$rem
JOBTYPE                   OPT
METHOD                    B3LYP
DFT_D                     d3_op
BASIS                     STO-3G
GEOM_OPT_MAX_CYCLES       100
GEOM_OPT_TOL_GRADIENT     300
GEOM_OPT_TOL_DISPLACEMENT 1200
GEOM_OPT_TOL_ENERGY       100
SYMMETRY                  False
THRESH                    12
SCF_CONVERGENCE           8
MAX_SUB_FILE_NUM          128
MEM_STATIC                400
MEM_TOTAL                 4000
$end
--------------------------------------------------------------

   16   -1510.2788931322      7.19E-09 Convergence criterion met
 Total energy in the final basis set = -1510.27889313
   14   -1510.2786214005      3.33E-09 Convergence criterion met
 Total energy in the final basis set = -1510.27862140
   14   -1510.2844916464      4.77E-09 Convergence criterion met
 Total energy in the final basis set = -1510.28449165
   14   -1510.2860254257      7.42E-09 Convergence criterion met
 Total energy in the final basis set = -1510.28602543
   13   -1510.2868857124      7.71E-09 Convergence criterion met
 Total energy in the final basis set = -1510.28688571
   13   -1510.2881296457      3.58E-09 Convergence criterion met
 Total energy in the final basis set = -1510.28812965
   13   -1510.2892399370      4.10E-09 Convergence criterion met
 Total energy in the final basis set = -1510.28923994
   13   -1510.2907501005      7.97E-09 Convergence criterion met
   13   -1510.2988810011      2.05E-09 Convergence criterion met
 Total energy in the final basis set = -1510.29888100
   12   -1510.2988784701      3.66E-09 Convergence criterion met
 Total energy in the final basis set = -1510.29887847
   12   -1510.2988528561      2.65E-09 Convergence criterion met
 Total energy in the final basis set = -1510.29885286
   11   -1510.2988902505      5.56E-09 Convergence criterion met
 Total energy in the final basis set = -1510.29889025
   11   -1510.2988939251      7.69E-09 Convergence criterion met
 Total energy in the final basis set = -1510.29889393
   10   -1510.2988947026      9.81E-09 Convergence criterion met
 Total energy in the final basis set = -1510.29889470

             Standard Nuclear Orientation (Angstroms)
    I     Atom           X                Y                Z
 ----------------------------------------------------------------
    1      O      -0.9651899231    -1.0221874210     0.4753012040
    2      C      -2.0752002115    -1.1189505249    -0.1025886312
    3      C      -3.4619964848    -0.8247831999     0.5769205518
    4      C      -3.4589491005     0.5480578481     1.3760246471
    5      C      -2.1163348302     1.3481745640     1.2698152636
    6      O      -1.8577200260     1.6192225092    -0.1163202537
    7      C      -0.6071264405     2.3984573498    -0.2656693219
    8      C       0.0430814511     2.0373575795    -1.6450607983
    9      O       0.6615527669     0.6909462771    -1.6571551633
   10      C       1.9682913184     0.7173694795    -1.0584333936
   11      C       2.5566999842    -0.7284447059    -1.0814721675
   12      C       4.0741206341    -0.8017773805    -0.6307667188
   13      C       4.6945179566     0.5863939322    -0.2194520191
   14      O       5.3856081389     1.3329638334    -0.9470893199
   15      O      -2.2640449618    -1.5262318010    -1.4478134891
   16      O       4.4358681056     0.8240917111     1.1689180745
   17      O       2.4954692932     1.7623670601    -0.6195932679
   18      C       4.9508485179     2.1566611271     1.5511000467
   19      C       1.8622083053    -1.6712004556     0.0036964481
   20      C       2.1939192303    -3.1649785946    -0.3887377836
   21      C       3.7101211879    -3.2619837997     0.0234457485
   22      C       3.9659155949    -1.8090718145     0.5907433209
   23      O       2.6743068200    -1.4477482422     1.2178978982
   24      H       2.4159418198    -1.1343458649    -2.0996326892
   25      H       4.6971681810    -1.2087280843    -1.4468810998
   26      H       0.7837763042    -1.4451014487     0.1909417496
   27      H       1.5714435203    -3.8606383176     0.1966336615
   28      H       2.0317585839    -3.3637125929    -1.4602589136
   29      H       3.8677581766    -4.0158446289     0.8110108983
   30      H       4.3686873585    -3.4989089800    -0.8276628433
   31      H       4.7908491289    -1.7263964608     1.3237013212
   32      O      -1.3889673854     1.7316421850     2.2106752092
   33      C      -0.9581310536    -1.7296334032    -2.1252865653
   34      C      -4.6445960792    -0.5815674715    -0.4494943210
   35      C      -6.0114349660    -0.6937183389     0.3331490225
   36      C      -6.0155912656     0.6607599273     1.1338839207
   37      C      -4.6564815863     1.3053936574     0.6505180558
   38      O      -4.5405537752     0.8639821244    -0.7571765192
   39      H      -3.6859980655    -1.6670606405     1.2581014128
   40      H      -3.6662612026     0.3892632034     2.4485990310
   41      H      -0.4416525962    -2.6266446915    -1.7288537930
   42      H      -4.5689834710    -1.1830435560    -1.3750287265
   43      H      -6.8547547433    -0.7477232611    -0.3736595725
   44      H      -6.0447316412    -1.5775677635     0.9900727560
   45      H      -6.8668151253     1.2985292147     0.8469663873
   46      H      -6.0388564104     0.5114803158     2.2252247653
   47      H      -4.6079165603     2.4095797588     0.7162867509
   48      H      -0.3047432914    -0.8321567322    -2.0004583369
   49      H      -1.1995300748    -1.8901755827    -3.1916335911
   50      H       4.7568353170     2.2600411430     2.6345719745
   51      H       4.4225208241     2.9615876573     1.0002683966
   52      H       6.0390321329     2.2489518733     1.3559957786
   53      H      -0.7380070210     2.0153980314    -2.4321123623
   54      H       0.8055011463     2.8069466158    -1.8925142128
   55      H       0.0860497315     2.1846368162     0.5760933103
   56      H      -0.8406011587     3.4865634345    -0.2548858268
 ----------------------------------------------------------------

    9   -1510.2988947381      7.26E-09 Convergence criterion met
 Total energy in the final basis set = -1510.29889474
 Final energy is   -1510.29889473808
 **  OPTIMIZATION CONVERGED  **

                    Orbital Energies (a.u.)
 --------------------------------------------------------------

 Alpha MOs
 -- Occupied --
-18.949 -18.944 -18.931 -18.917 -18.891 -18.889 -18.881 -18.876
-18.876 -18.853 -10.110 -10.109 -10.099 -10.084 -10.083 -10.073
-10.062 -10.059 -10.051 -10.050 -10.048 -10.041 -10.038 -10.037
-10.035 -10.027 -10.022 -10.021 -10.012 -10.011  -1.025  -1.018
 -1.008  -0.993  -0.971  -0.958  -0.949  -0.942  -0.935  -0.918
 -0.765  -0.756  -0.729  -0.720  -0.713  -0.704  -0.693  -0.660
 -0.646  -0.618  -0.598  -0.579  -0.548  -0.539  -0.536  -0.530
 -0.517  -0.506  -0.493  -0.474  -0.470  -0.456  -0.444  -0.437
 -0.435  -0.433  -0.426  -0.415  -0.411  -0.406  -0.403  -0.398
 -0.395  -0.384  -0.373  -0.370  -0.361  -0.358  -0.353  -0.352
 -0.341  -0.334  -0.333  -0.331  -0.323  -0.322  -0.315  -0.312
 -0.306  -0.305  -0.300  -0.299  -0.296  -0.292  -0.277  -0.273
 -0.271  -0.262  -0.249  -0.248  -0.237  -0.235  -0.221  -0.193
 -0.182  -0.172  -0.163  -0.161  -0.159  -0.151  -0.145  -0.136
 -0.132

          Ground-State Mulliken Net Atomic Charges

     Atom                 Charge (a.u.)
  ----------------------------------------
      1 O                    -0.218778
      2 C                     0.222584
      3 C                    -0.077262
      4 C                    -0.079070
      5 C                     0.211849
      6 O                    -0.174345
      7 C                    -0.051940
      8 C                    -0.046928
      9 O                    -0.172905
     10 C                     0.218979
     11 C                    -0.080993
     12 C                    -0.081524
     13 C                     0.212124
     14 O                    -0.223350
     15 O                    -0.165686
     16 O                    -0.167178
     17 O                    -0.204053
     18 C                    -0.126940
     19 C                     0.005968
     20 C                    -0.145662
     21 C                    -0.145018
     22 C                     0.026667
     23 O                    -0.187517
     24 H                     0.082886
     25 H                     0.081128
     26 H                     0.113124
     27 H                     0.074806
     28 H                     0.067221
     29 H                     0.075885
     30 H                     0.070716
     31 H                     0.084755
     32 O                    -0.208570
     33 C                    -0.147040
     34 C                     0.023592
     35 C                    -0.144167
     36 C                    -0.143987
     37 C                     0.026087
     38 O                    -0.187185
     39 H                     0.085538
     40 H                     0.086109
     41 H                     0.080137
     42 H                     0.092977
     43 H                     0.078016
     44 H                     0.073253
     45 H                     0.078030
     46 H                     0.074310
     47 H                     0.082608
     48 H                     0.114940
     49 H                     0.084756
     50 H                     0.088038
     51 H                     0.091052
     52 H                     0.085068
     53 H                     0.097945
     54 H                     0.097610
     55 H                     0.105894
     56 H                     0.085448
  ----------------------------------------
  Sum of atomic charges =    -0.000000

                    Cartesian Multipole Moments
 -----------------------------------------------------------------
    Charge (ESU x 10^10)
                -0.0000
    Dipole Moment (Debye)
         X      -2.6295      Y      -1.4336      Z      -1.2671
       Tot       3.2519
    Quadrupole Moments (Debye-Ang)
        XX    -155.7330     XY      -3.7951     YY    -151.6200
        XZ      -3.8449     YZ       2.8454     ZZ    -161.8411

 Total job time:  89.63s(wall), 4277.10s(cpu)
        *  Thank you very much for using Q-Chem.  Have a nice day.  *
