 Q-Chem 5.0, Q-Chem, Inc., Pleasanton, CA (2017)
 Q-Chem 5.0.1 for Intel X86 EM64T Linux

User input:
--------------------------------------------------------------
$molecule
0  1
O -2.201225111 -1.3114511912 0.5272774634
C -3.3478927942 -1.5111584618 0.0658024767
C -4.6245699089 -0.6329221799 0.3011126372
C -4.2747717502 0.7676137278 0.9538745813
C -2.7694999415 0.9153493923 1.397882597
O -2.0086564336 1.4563252699 0.3069581657
C -0.656209502 1.835794207 0.7734547692
C 0.2576423706 1.9841599076 -0.4938223868
O 0.9287618705 0.7011492486 -0.8137581014
C 2.2452051984 0.6667640112 -0.2556352715
C 2.8472993371 -0.7480730691 -0.5390410998
C 4.4130528117 -0.7346584109 -0.7947218198
C 5.0086693294 0.7198646193 -0.8857445416
O 4.7308469153 1.5741284123 -1.7559446963
O -3.6897214713 -2.6209125902 -0.7648883182
O 5.9349726417 0.9370831437 0.1810247524
O 2.7817902721 1.6152757139 0.3594413649
C 6.4334038749 2.3302008223 0.1353208884
C 2.772356444 -1.6545184042 0.7688076008
C 3.0624123721 -3.1513959119 0.3538331362
C 4.6213786477 -3.1111512001 0.1421814079
C 4.9296496297 -1.5902276858 0.4367676912
O 3.9794662231 -1.2531988229 1.5229865417
H 2.2919454022 -1.2016098188 -1.378353532
H 4.6390132949 -1.2403733813 -1.7515425031
H 1.8603014904 -1.5037206871 1.3792731828
H 2.7795766319 -3.8388745751 1.1668666802
H 2.5158681861 -3.4390991412 -0.5584171257
H 5.1428706648 -3.7556451982 0.8676228686
H 4.9211454343 -3.4093477302 -0.875306577
H 5.967215663 -1.3634106495 0.7464635727
O -2.3272699737 0.758948125 2.5570596786
C -2.4925815908 -3.46013747 -1.0071088494
C -5.2623396328 -0.1713272392 -1.0785105331
C -6.6837269615 0.4571842273 -0.7957205685
C -6.2856705175 1.8566538047 -0.1968052435
C -4.7091427168 1.7551497432 -0.2112726475
O -4.4273079669 0.9932440336 -1.4506427949
H -5.3438113724 -1.2095608151 0.91137376
H -4.8852058471 0.9273882897 1.8604405777
H -2.0995784916 -3.8911825865 -0.0636294638
H -5.2316789851 -0.9468366336 -1.868510702
H -7.2496971405 0.5636628168 -1.7348400187
H -7.2747427436 -0.1543952839 -0.0951407193
H -6.6239710208 2.6825474127 -0.8426508805
H -6.6832026149 2.0152377004 0.8182081129
H -4.1687449932 2.7207693027 -0.2202242999
H -1.6824152639 -2.8805829743 -1.4947547403
H -2.8231290057 -4.2747130031 -1.6774623713
H 7.1410893192 2.4280982084 0.978978592
H 5.6047178715 3.0571343954 0.2574273581
H 6.9574294083 2.5472271408 -0.8180788253
H -0.362526907 2.2547037231 -1.3725819221
H 1.0288082518 2.7626137211 -0.3089054183
H -0.2438700514 1.0724406325 1.4683453624
H -0.704677414 2.8045004734 1.3197736303
$end

$rem
JOBTYPE                   OPT
METHOD                    B3LYP
DFT_D                     d3_op
BASIS                     STO-3G
GEOM_OPT_MAX_CYCLES       100
GEOM_OPT_TOL_GRADIENT     300
GEOM_OPT_TOL_DISPLACEMENT 1200
GEOM_OPT_TOL_ENERGY       100
SYMMETRY                  False
THRESH                    12
SCF_CONVERGENCE           8
MAX_SUB_FILE_NUM          128
MEM_STATIC                400
MEM_TOTAL                 4000
$end
--------------------------------------------------------------

   16   -1510.2822575968      5.95E-09 Convergence criterion met
 Total energy in the final basis set = -1510.28225760
   14   -1510.2841506053      3.00E-09 Convergence criterion met
 Total energy in the final basis set = -1510.28415061
   14   -1510.2855577934      5.17E-09 Convergence criterion met
 Total energy in the final basis set = -1510.28555779
   14   -1510.2855881796      4.52E-09 Convergence criterion met
 Total energy in the final basis set = -1510.28558818
   14   -1510.2872723103      4.50E-09 Convergence criterion met
 Total energy in the final basis set = -1510.28727231
   14   -1510.2895940693      2.74E-09 Convergence criterion met
 Total energy in the final basis set = -1510.28959407
   15   -1510.2835349317      4.01E-09 Convergence criterion met
 Total energy in the final basis set = -1510.28353493
   14   -1510.2907951604      4.48E-09 Convergence criterion met
   11   -1510.2988692859      7.64E-09 Convergence criterion met
 Total energy in the final basis set = -1510.29886929
   11   -1510.2988454988      9.85E-09 Convergence criterion met
 Total energy in the final basis set = -1510.29884550
   11   -1510.2988658321      4.14E-09 Convergence criterion met
 Total energy in the final basis set = -1510.29886583
   10   -1510.2988620958      9.51E-09 Convergence criterion met
 Total energy in the final basis set = -1510.29886210
   10   -1510.2988550924      7.58E-09 Convergence criterion met
 Total energy in the final basis set = -1510.29885509
    9   -1510.2988498303      5.99E-09 Convergence criterion met
 Total energy in the final basis set = -1510.29884983

             Standard Nuclear Orientation (Angstroms)
    I     Atom           X                Y                Z
 ----------------------------------------------------------------
    1      O      -0.9767542430    -0.9318297742     0.5537490005
    2      C      -2.0911263301    -1.0755781931    -0.0056476910
    3      C      -3.4655558376    -0.6628306875     0.6353117211
    4      C      -3.4149266975     0.7926827390     1.2695694666
    5      C      -2.0531239315     1.5357918151     1.0509886359
    6      O      -1.8229522707     1.6472359019    -0.3622551106
    7      C      -0.5592349635     2.3721460293    -0.6267653109
    8      C       0.0866362865     1.7941807012    -1.9326392408
    9      O       0.6861035514     0.4540199730    -1.7348282302
   10      C       1.9957739013     0.5563704199    -1.1517263686
   11      C       2.5745365472    -0.8812124884    -0.9670281796
   12      C       4.0772883141    -0.8989642195    -0.4633931042
   13      C       4.6873761659     0.5289227376    -0.1992198808
   14      O       5.4332655365     1.1710236779    -0.9709185910
   15      O      -2.2941379318    -1.6447563932    -1.2884729845
   16      O       4.3398293172     0.9490891226     1.1252633595
   17      O       2.5355595633     1.6503556592    -0.8789172313
   18      C       4.8388986263     2.3216683304     1.3586210069
   19      C       1.8411330223    -1.6805795077     0.2033327369
   20      C       2.1719279035    -3.2119191037     0.0070660246
   21      C       3.6766427248    -3.2631497987     0.4655108716
   22      C       3.9259194255    -1.7543542086     0.8658763320
   23      O       2.6192008330    -1.3155400764     1.4058079944
   24      H       2.4655283127    -1.4128731339    -1.9298911902
   25      H       4.7251402142    -1.3996369136    -1.2044975356
   26      H       0.7607472960    -1.4250873123     0.3320550490
   27      H       1.5313983659    -3.8265722467     0.6598124618
   28      H       2.0332590204    -3.5434294508    -1.0345466856
   29      H       3.8114767650    -3.9202219854     1.3392433782
   30      H       4.3550152497    -3.5974471855    -0.3358011484
   31      H       4.7297112268    -1.5895173929     1.6084761674
   32      O      -1.2931696675     1.9985914202     1.9283077502
   33      C      -0.9944972299    -1.9649303717    -1.9327425627
   34      C      -4.6503892215    -0.5033625416    -0.4053072098
   35      C      -6.0104573157    -0.4884229711     0.3970764255
   36      C      -5.9709460998     0.9490890538     1.0360816377
   37      C      -4.5996862556     1.4956183676     0.4723937400
   38      O      -4.5111323162     0.8940740424    -0.8764788406
   39      H      -3.7119800301    -1.4132966817     1.4095928158
   40      H      -3.6091570910     0.7671758553     2.3559765475
   41      H      -0.5059938022    -2.8257289008    -1.4331815964
   42      H      -4.6017455563    -1.2075092783    -1.2575648005
   43      H      -6.8634428650    -0.6001407382    -0.2910842148
   44      H      -6.0586405894    -1.2896530367     1.1517926826
   45      H      -6.8074720634     1.5722836160     0.6820889216
   46      H      -5.9874912734     0.9277333802     2.1375274498
   47      H      -4.5205533543     2.5983086231     0.4113488285
   48      H      -0.3127593117    -1.0802220461    -1.9099810670
   49      H      -1.2402309059    -2.2406274637    -2.9742753200
   50      H       4.5648985946     2.5738556753     2.3995278755
   51      H       4.3624761401     3.0427514511     0.6632112960
   52      H       5.9396443512     2.3860432600     1.2360544297
   53      H      -0.6947229024     1.6618674412    -2.7084203733
   54      H       0.8596423047     2.5063795277    -2.2932046749
   55      H       0.1277176732     2.2775536001     0.2415983283
   56      H      -0.7758765259     3.4523289969    -0.7844138061
 ----------------------------------------------------------------

    9   -1510.2988500153      2.07E-09 Convergence criterion met
 Total energy in the final basis set = -1510.29885002
 Final energy is   -1510.29885001535
 **  OPTIMIZATION CONVERGED  **

                    Orbital Energies (a.u.)
 --------------------------------------------------------------

 Alpha MOs
 -- Occupied --
-18.949 -18.944 -18.930 -18.916 -18.891 -18.889 -18.881 -18.876
-18.876 -18.852 -10.110 -10.110 -10.099 -10.084 -10.083 -10.072
-10.062 -10.060 -10.051 -10.049 -10.048 -10.041 -10.038 -10.037
-10.035 -10.027 -10.022 -10.021 -10.012 -10.011  -1.025  -1.018
 -1.008  -0.992  -0.971  -0.958  -0.949  -0.942  -0.935  -0.918
 -0.765  -0.756  -0.729  -0.720  -0.713  -0.704  -0.692  -0.660
 -0.646  -0.617  -0.598  -0.579  -0.548  -0.539  -0.536  -0.529
 -0.517  -0.506  -0.493  -0.474  -0.470  -0.456  -0.444  -0.437
 -0.435  -0.432  -0.426  -0.415  -0.411  -0.406  -0.403  -0.397
 -0.395  -0.384  -0.374  -0.369  -0.361  -0.358  -0.353  -0.352
 -0.341  -0.333  -0.333  -0.330  -0.323  -0.322  -0.314  -0.312
 -0.306  -0.305  -0.300  -0.299  -0.295  -0.291  -0.277  -0.273
 -0.271  -0.262  -0.249  -0.248  -0.237  -0.235  -0.221  -0.193
 -0.182  -0.172  -0.163  -0.161  -0.158  -0.151  -0.145  -0.135
 -0.132

          Ground-State Mulliken Net Atomic Charges

     Atom                 Charge (a.u.)
  ----------------------------------------
      1 O                    -0.218145
      2 C                     0.222482
      3 C                    -0.077193
      4 C                    -0.078969
      5 C                     0.212100
      6 O                    -0.174623
      7 C                    -0.052456
      8 C                    -0.047090
      9 O                    -0.173068
     10 C                     0.219300
     11 C                    -0.081013
     12 C                    -0.081511
     13 C                     0.212203
     14 O                    -0.223198
     15 O                    -0.165528
     16 O                    -0.167368
     17 O                    -0.204191
     18 C                    -0.127101
     19 C                     0.005981
     20 C                    -0.145617
     21 C                    -0.145051
     22 C                     0.026680
     23 O                    -0.187289
     24 H                     0.082818
     25 H                     0.080956
     26 H                     0.113341
     27 H                     0.074732
     28 H                     0.067268
     29 H                     0.075814
     30 H                     0.070717
     31 H                     0.084269
     32 O                    -0.208371
     33 C                    -0.146782
     34 C                     0.023698
     35 C                    -0.144129
     36 C                    -0.144045
     37 C                     0.026215
     38 O                    -0.187064
     39 H                     0.085611
     40 H                     0.086192
     41 H                     0.080133
     42 H                     0.092648
     43 H                     0.077965
     44 H                     0.073245
     45 H                     0.078074
     46 H                     0.074340
     47 H                     0.082671
     48 H                     0.115011
     49 H                     0.084846
     50 H                     0.088033
     51 H                     0.090971
     52 H                     0.084821
     53 H                     0.097690
     54 H                     0.097442
     55 H                     0.106339
     56 H                     0.085194
  ----------------------------------------
  Sum of atomic charges =    -0.000000

                    Cartesian Multipole Moments
 -----------------------------------------------------------------
    Charge (ESU x 10^10)
                -0.0000
    Dipole Moment (Debye)
         X      -2.7198      Y      -1.5494      Z      -1.1194
       Tot       3.3243
    Quadrupole Moments (Debye-Ang)
        XX    -156.6508     XY      -4.5645     YY    -151.0800
        XZ      -3.4917     YZ       1.7430     ZZ    -161.7101

 Total job time:  101.54s(wall), 4846.12s(cpu)
        *  Thank you very much for using Q-Chem.  Have a nice day.  *
