 Q-Chem 5.0, Q-Chem, Inc., Pleasanton, CA (2017)
 Q-Chem 5.0.1 for Intel X86 EM64T Linux

User input:
--------------------------------------------------------------
$molecule
0  1
O -3.94934 -3.66094 2.70899
C -3.26408 -4.56952 2.26188
C -3.36658 -6.02376 2.66595
C -4.59748 -6.43949 3.48808
C -5.67633 -5.39373 3.66287
O -6.58498 -5.49031 2.64775
C -7.75768 -4.69844 2.86446
C -8.51026 -4.50364 1.55228
O -8.05656 -3.30666 0.90091
C -8.809 -2.2006 1.12361
C -8.22652 -0.95659 0.49605
C -9.26166 0.05484 -0.01753
C -10.68029 -0.14226 0.47781
O -11.38358 -1.1148 0.24521
O -2.25893 -4.26196 1.4003
O -11.2138 0.83843 1.25902
O -9.62378 -2.1323 2.03825
C -12.48148 0.80638 1.80199
C -7.4396 -0.0716 1.48743
C -6.40204 0.74386 0.71969
C -7.3037 1.69103 -0.04711
C -8.66155 1.34558 0.58211
O -8.34387 0.92885 1.88741
H -7.52113 -1.28035 -0.3046
H -9.31233 0.07313 -1.12803
H -6.95274 -0.64763 2.30479
H -5.83488 1.32693 1.48086
H -5.68396 0.16741 0.09758
H -6.99419 2.7337 0.18653
H -7.32992 1.53461 -1.14741
H -9.34796 2.21621 0.49704
O -5.90053 -4.85195 4.73949
C -1.9911 -2.98925 0.94122
C -3.52719 -6.96876 1.45168
C -3.01234 -8.36131 1.81204
C -4.09402 -8.82333 2.76593
C -5.07614 -7.65074 2.65679
O -4.91122 -7.18906 1.33882
H -2.40727 -6.26743 3.17589
H -4.30012 -6.75256 4.51413
H -1.74438 -2.31886 1.79213
H -3.01727 -6.60425 0.53342
H -3.07113 -8.97714 0.88574
H -1.97624 -8.40326 2.21147
H -4.54448 -9.75647 2.36054
H -3.76523 -8.98358 3.81554
H -6.10061 -7.97725 2.94185
H -2.86897 -2.58913 0.38993
H -1.1227 -3.02634 0.25205
H -12.64827 1.73164 2.39062
H -12.58642 -0.07046 2.47615
H -13.24259 0.75366 0.99443
H -8.43188 -5.38928 0.88658
H -9.59627 -4.43783 1.79427
H -7.57093 -3.70613 3.33739
H -8.4047 -5.29325 3.54731
$end

$opt
CONSTRAINT
tors           1           2           3           4     +12.669
tors           3           4           5           6     +90.193
tors           4           5           6           7    +169.623
tors           5           6           7           8    +162.502
tors           6           7           8           9     -91.048
tors           7           8           9          10     -96.097
tors           8           9          10          11    +175.808
tors           9          10          11          12    +145.956
tors          11          12          13          14     -63.660
ENDCONSTRAINT
$end

$rem
JOBTYPE                   OPT
METHOD                    B3LYP
DFT_D                     d3_op
BASIS                     STO-3G
GEOM_OPT_MAX_CYCLES       100
GEOM_OPT_TOL_GRADIENT     300
GEOM_OPT_TOL_DISPLACEMENT 1200
GEOM_OPT_TOL_ENERGY       100
SYMMETRY                  False
THRESH                    12
SCF_CONVERGENCE           8
MAX_SUB_FILE_NUM          128
MEM_STATIC                400
MEM_TOTAL                 4000
$end
--------------------------------------------------------------

   15   -1510.1450571905      5.57E-09 Convergence criterion met
 Total energy in the final basis set = -1510.14505719
   13   -1510.2146884286      7.88E-09 Convergence criterion met
 Total energy in the final basis set = -1510.21468843
   14   -1510.2522996905      1.44E-09 Convergence criterion met
 Total energy in the final basis set = -1510.25229969
   14   -1510.2691822698      1.71E-09 Convergence criterion met
 Total energy in the final basis set = -1510.26918227
   13   -1510.2751740836      6.37E-09 Convergence criterion met
 Total energy in the final basis set = -1510.27517408
   13   -1510.2776724786      3.46E-09 Convergence criterion met
 Total energy in the final basis set = -1510.27767248
   13   -1510.2790870046      2.85E-09 Convergence criterion met
 Total energy in the final basis set = -1510.27908700
   13   -1510.2799664995      1.76E-09 Convergence criterion met
    9   -1510.2821698678      7.59E-09 Convergence criterion met
 Total energy in the final basis set = -1510.28216987
    9   -1510.2821651982      4.43E-09 Convergence criterion met
 Total energy in the final basis set = -1510.28216520
    9   -1510.2821734118      3.61E-09 Convergence criterion met
 Total energy in the final basis set = -1510.28217341
    9   -1510.2821744791      2.91E-09 Convergence criterion met
 Total energy in the final basis set = -1510.28217448
    9   -1510.2821759266      2.27E-09 Convergence criterion met
 Total energy in the final basis set = -1510.28217593
    9   -1510.2821769584      2.45E-09 Convergence criterion met
 Total energy in the final basis set = -1510.28217696

             Standard Nuclear Orientation (Angstroms)
    I     Atom           X                Y                Z
 ----------------------------------------------------------------
    1      O      -2.2012251110    -1.3114511912     0.5272774634
    2      C      -3.3478927942    -1.5111584618     0.0658024767
    3      C      -4.6245699089    -0.6329221799     0.3011126372
    4      C      -4.2747717502     0.7676137278     0.9538745813
    5      C      -2.7694999415     0.9153493923     1.3978825970
    6      O      -2.0086564336     1.4563252699     0.3069581657
    7      C      -0.6562095020     1.8357942070     0.7734547692
    8      C       0.2576423706     1.9841599076    -0.4938223868
    9      O       0.9287618705     0.7011492486    -0.8137581014
   10      C       2.2452051984     0.6667640112    -0.2556352715
   11      C       2.8472993371    -0.7480730691    -0.5390410998
   12      C       4.4130528117    -0.7346584109    -0.7947218198
   13      C       5.0086693294     0.7198646193    -0.8857445416
   14      O       4.7308469153     1.5741284123    -1.7559446963
   15      O      -3.6897214713    -2.6209125902    -0.7648883182
   16      O       5.9349726417     0.9370831437     0.1810247524
   17      O       2.7817902721     1.6152757139     0.3594413649
   18      C       6.4334038749     2.3302008223     0.1353208884
   19      C       2.7723564440    -1.6545184042     0.7688076008
   20      C       3.0624123721    -3.1513959119     0.3538331362
   21      C       4.6213786477    -3.1111512001     0.1421814079
   22      C       4.9296496297    -1.5902276858     0.4367676912
   23      O       3.9794662231    -1.2531988229     1.5229865417
   24      H       2.2919454022    -1.2016098188    -1.3783535320
   25      H       4.6390132949    -1.2403733813    -1.7515425031
   26      H       1.8603014904    -1.5037206871     1.3792731828
   27      H       2.7795766319    -3.8388745751     1.1668666802
   28      H       2.5158681861    -3.4390991412    -0.5584171257
   29      H       5.1428706648    -3.7556451982     0.8676228686
   30      H       4.9211454343    -3.4093477302    -0.8753065770
   31      H       5.9672156630    -1.3634106495     0.7464635727
   32      O      -2.3272699737     0.7589481250     2.5570596786
   33      C      -2.4925815908    -3.4601374700    -1.0071088494
   34      C      -5.2623396328    -0.1713272392    -1.0785105331
   35      C      -6.6837269615     0.4571842273    -0.7957205685
   36      C      -6.2856705175     1.8566538047    -0.1968052435
   37      C      -4.7091427168     1.7551497432    -0.2112726475
   38      O      -4.4273079669     0.9932440336    -1.4506427949
   39      H      -5.3438113724    -1.2095608151     0.9113737600
   40      H      -4.8852058471     0.9273882897     1.8604405777
   41      H      -2.0995784916    -3.8911825865    -0.0636294638
   42      H      -5.2316789851    -0.9468366336    -1.8685107020
   43      H      -7.2496971405     0.5636628168    -1.7348400187
   44      H      -7.2747427436    -0.1543952839    -0.0951407193
   45      H      -6.6239710208     2.6825474127    -0.8426508805
   46      H      -6.6832026149     2.0152377004     0.8182081129
   47      H      -4.1687449932     2.7207693027    -0.2202242999
   48      H      -1.6824152639    -2.8805829743    -1.4947547403
   49      H      -2.8231290057    -4.2747130031    -1.6774623713
   50      H       7.1410893192     2.4280982084     0.9789785920
   51      H       5.6047178715     3.0571343954     0.2574273581
   52      H       6.9574294083     2.5472271408    -0.8180788253
   53      H      -0.3625269070     2.2547037231    -1.3725819221
   54      H       1.0288082518     2.7626137211    -0.3089054183
   55      H      -0.2438700514     1.0724406325     1.4683453624
   56      H      -0.7046774140     2.8045004734     1.3197736303
 ----------------------------------------------------------------

    8   -1510.2821774843      9.34E-09 Convergence criterion met
 Total energy in the final basis set = -1510.28217748
 Final energy is   -1510.28217748429
 **  OPTIMIZATION CONVERGED  **

                    Orbital Energies (a.u.)
 --------------------------------------------------------------

 Alpha MOs
 -- Occupied --
-18.944 -18.930 -18.928 -18.918 -18.887 -18.887 -18.884 -18.872
-18.861 -18.856 -10.107 -10.096 -10.091 -10.089 -10.070 -10.066
-10.063 -10.060 -10.058 -10.058 -10.056 -10.054 -10.040 -10.034
-10.032 -10.032 -10.021 -10.019 -10.018 -10.017  -1.020  -1.010
 -1.001  -0.997  -0.969  -0.966  -0.944  -0.935  -0.926  -0.922
 -0.763  -0.759  -0.724  -0.721  -0.712  -0.704  -0.691  -0.667
 -0.653  -0.612  -0.595  -0.574  -0.545  -0.541  -0.537  -0.534
 -0.515  -0.507  -0.485  -0.473  -0.466  -0.457  -0.446  -0.442
 -0.433  -0.430  -0.417  -0.414  -0.412  -0.408  -0.404  -0.401
 -0.393  -0.379  -0.371  -0.366  -0.359  -0.356  -0.351  -0.344
 -0.339  -0.337  -0.331  -0.328  -0.326  -0.325  -0.319  -0.314
 -0.306  -0.305  -0.300  -0.299  -0.292  -0.282  -0.280  -0.275
 -0.271  -0.261  -0.248  -0.242  -0.240  -0.234  -0.230  -0.186
 -0.175  -0.167  -0.161  -0.159  -0.153  -0.145  -0.144  -0.138
 -0.138

          Ground-State Mulliken Net Atomic Charges

     Atom                 Charge (a.u.)
  ----------------------------------------
      1 O                    -0.203895
      2 C                     0.215931
      3 C                    -0.077864
      4 C                    -0.081965
      5 C                     0.213714
      6 O                    -0.175378
      7 C                    -0.047979
      8 C                    -0.051838
      9 O                    -0.169898
     10 C                     0.210987
     11 C                    -0.078378
     12 C                    -0.079678
     13 C                     0.212643
     14 O                    -0.220025
     15 O                    -0.168535
     16 O                    -0.167083
     17 O                    -0.213863
     18 C                    -0.126759
     19 C                     0.025562
     20 C                    -0.143745
     21 C                    -0.144150
     22 C                     0.024494
     23 O                    -0.187404
     24 H                     0.086755
     25 H                     0.082390
     26 H                     0.085129
     27 H                     0.077628
     28 H                     0.072712
     29 H                     0.077305
     30 H                     0.072284
     31 H                     0.091748
     32 O                    -0.222148
     33 C                    -0.127860
     34 C                     0.024318
     35 C                    -0.144215
     36 C                    -0.143978
     37 C                     0.025861
     38 O                    -0.189241
     39 H                     0.086651
     40 H                     0.083073
     41 H                     0.090085
     42 H                     0.087865
     43 H                     0.077964
     44 H                     0.073379
     45 H                     0.077545
     46 H                     0.073535
     47 H                     0.086544
     48 H                     0.092912
     49 H                     0.092021
     50 H                     0.089348
     51 H                     0.093977
     52 H                     0.086647
     53 H                     0.096542
     54 H                     0.098759
     55 H                     0.097814
     56 H                     0.081757
  ----------------------------------------
  Sum of atomic charges =     0.000000

                    Cartesian Multipole Moments
 -----------------------------------------------------------------
    Charge (ESU x 10^10)
                 0.0000
    Dipole Moment (Debye)
         X      -1.8413      Y      -1.9123      Z      -1.2001
       Tot       2.9133
    Quadrupole Moments (Debye-Ang)
        XX    -139.7414     XY      -3.4358     YY    -146.5697
        XZ      -3.5782     YZ       5.5814     ZZ    -169.9738

 Total job time:  62.65s(wall), 2981.21s(cpu)
        *  Thank you very much for using Q-Chem.  Have a nice day.  *
