 Q-Chem 5.0, Q-Chem, Inc., Pleasanton, CA (2017)
 Q-Chem 5.0.1 for Intel X86 EM64T Linux

User input:
--------------------------------------------------------------
$molecule
0  1
O -3.94934 -3.66094 2.70899
C -3.26408 -4.56952 2.26188
C -3.36658 -6.02376 2.66595
C -4.44917 -6.3929 3.69337
C -5.42397 -5.29879 4.06856
O -6.39236 -5.19184 3.11137
C -7.44839 -4.29691 3.47624
C -8.38683 -4.08128 2.29346
O -7.6997 -3.38024 1.245
C -7.73702 -2.02706 1.32654
C -6.83533 -1.35192 0.32065
C -7.18891 0.11057 0.01345
C -8.13492 0.78072 0.9895
O -9.00651 0.21506 1.63365
O -2.24927 -4.31135 1.39901
O -8.15376 2.14147 0.96505
O -7.80963 -1.55135 2.45478
C -8.99962 2.92547 1.7218
C -5.36528 -1.19368 0.74234
C -4.47898 -1.00261 -0.49236
C -4.87186 0.38296 -0.93097
C -5.80562 0.7597 0.21637
O -5.30222 0.07504 1.33679
H -6.87941 -1.9631 -0.6099
H -7.58358 0.29116 -1.01063
H -5.00738 -2.03551 1.3546
H -3.43285 -0.92776 -0.12734
H -4.55469 -1.78733 -1.27544
H -3.96448 1.02818 -0.93798
H -5.38635 0.44421 -1.91461
H -5.84057 1.86723 0.30473
O -5.50046 -4.82139 5.19483
C -2.04998 -3.13616 0.72643
C -3.76258 -6.95239 1.50031
C -3.27244 -8.37217 1.78214
C -4.22221 -8.78637 2.88879
C -5.13523 -7.55639 2.94703
O -5.15792 -7.09317 1.61712
H -2.35491 -6.30341 3.0391
H -3.98325 -6.73184 4.64609
H -2.00739 -2.27957 1.43275
H -3.3867 -6.60442 0.5134
H -3.49678 -8.98196 0.87762
H -2.19167 -8.46178 2.02454
H -4.79305 -9.67787 2.54599
H -3.74568 -8.995 3.87103
H -6.11853 -7.81967 3.39533
H -2.86225 -3.02829 -0.01168
H -1.09293 -3.19573 0.16909
H -8.79476 3.99416 1.50644
H -8.8272 2.73876 2.80339
H -10.05816 2.70561 1.46614
H -8.72242 -5.06993 1.9146
H -9.3037 -3.53316 2.61287
H -7.04503 -3.32415 3.82924
H -8.03046 -4.75324 4.30795
$end

$opt
CONSTRAINT
tors           1           2           3           4      +1.864
tors           3           4           5           6     +80.472
tors           4           5           6           7    +172.435
tors           5           6           7           8    +172.294
tors           6           7           8           9     -66.545
tors           7           8           9          10     -87.627
tors           8           9          10          11    +171.588
tors           9          10          11          12    +159.126
tors          11          12          13          14     -30.048
ENDCONSTRAINT
$end

$rem
JOBTYPE                   OPT
METHOD                    B3LYP
DFT_D                     d3_op
BASIS                     STO-3G
GEOM_OPT_MAX_CYCLES       100
GEOM_OPT_TOL_GRADIENT     300
GEOM_OPT_TOL_DISPLACEMENT 1200
GEOM_OPT_TOL_ENERGY       100
SYMMETRY                  False
THRESH                    12
SCF_CONVERGENCE           8
MAX_SUB_FILE_NUM          128
MEM_STATIC                400
MEM_TOTAL                 4000
$end
--------------------------------------------------------------

   16   -1510.1211961367      2.56E-09 Convergence criterion met
 Total energy in the final basis set = -1510.12119614
   13   -1510.1958073329      9.70E-09 Convergence criterion met
 Total energy in the final basis set = -1510.19580733
   14   -1510.2357503848      5.98E-09 Convergence criterion met
 Total energy in the final basis set = -1510.23575038
   14   -1510.2546114325      6.48E-09 Convergence criterion met
 Total energy in the final basis set = -1510.25461143
   14   -1510.2668636933      2.59E-09 Convergence criterion met
 Total energy in the final basis set = -1510.26686369
   13   -1510.2732169593      5.19E-09 Convergence criterion met
 Total energy in the final basis set = -1510.27321696
   13   -1510.2767961944      3.15E-09 Convergence criterion met
 Total energy in the final basis set = -1510.27679619
   13   -1510.2788941480      2.76E-09 Convergence criterion met
   11   -1510.2852214687      8.73E-09 Convergence criterion met
 Total energy in the final basis set = -1510.28522147
   11   -1510.2852769086      5.78E-09 Convergence criterion met
 Total energy in the final basis set = -1510.28527691
   10   -1510.2853240541      8.11E-09 Convergence criterion met
 Total energy in the final basis set = -1510.28532405
   10   -1510.2853562427      8.72E-09 Convergence criterion met
 Total energy in the final basis set = -1510.28535624
   10   -1510.2853620435      7.43E-09 Convergence criterion met
 Total energy in the final basis set = -1510.28536204
    9   -1510.2853673632      5.02E-09 Convergence criterion met
 Total energy in the final basis set = -1510.28536736

             Standard Nuclear Orientation (Angstroms)
    I     Atom           X                Y                Z
 ----------------------------------------------------------------
    1      O      -1.4151763060    -1.0204529865     0.7786494449
    2      C      -2.4873085119    -1.5335192460     0.3850056360
    3      C      -3.9280511270    -0.9154463108     0.3691869904
    4      C      -4.0224694040     0.5764099190     0.8869833533
    5      C      -2.6644964894     1.2017163706     1.3714422482
    6      O      -1.9160189000     1.6411517531     0.2345710006
    7      C      -0.7221355815     2.3937007563     0.6835281309
    8      C       0.1481000421     2.6696825952    -0.5857740223
    9      O       0.6816451751     1.3956099996    -1.1254583532
   10      C       1.9238925419     1.0867963895    -0.4781370916
   11      C       2.3584384763    -0.3579734773    -0.9016578184
   12      C       3.9035023303    -0.6146216209    -0.7007525890
   13      C       4.8012788795     0.6738175474    -0.7129860725
   14      O       4.5973684102     1.7394086311    -1.3330291160
   15      O      -2.6073621088    -2.8568140204    -0.1431891493
   16      O       5.9661693335     0.4261997818     0.0836612218
   17      O       2.4733877191     1.8257619371     0.3673236350
   18      C       6.8415538414     1.6203916706     0.0773256462
   19      C       1.7699017691    -1.3558115422     0.1945779896
   20      C       2.1174431953    -2.8498522021    -0.2037703673
   21      C       3.6242883139    -2.9584711004     0.2354031090
   22      C       3.9091268340    -1.4646428084     0.6455332339
   23      O       2.6619031898    -1.0773192305     1.3459159830
   24      H       2.0065660953    -0.5773676335    -1.9245238779
   25      H       4.2746945737    -1.2494170936    -1.5280503394
   26      H       0.7028432778    -1.1752474628     0.4575934099
   27      H       1.4880216453    -3.5568987239     0.3567606164
   28      H       1.9778792909    -3.0313518924    -1.2817317829
   29      H       3.7402436269    -3.6248995243     1.1051144048
   30      H       4.2851135591    -3.3094783439    -0.5730544418
   31      H       4.7934586482    -1.2953340858     1.2891606376
   32      O      -2.3158847516     1.3803760966     2.5589623175
   33      C      -1.2893319026    -3.5249888329    -0.1878735341
   34      C      -4.4702247044    -0.7557476098    -1.1199732539
   35      C      -6.0351509070    -0.5523222977    -1.0570360106
   36      C      -6.1264372544     0.9341984789    -0.5495790652
   37      C      -4.5964859551     1.3018481727    -0.4056299710
   38      O      -3.9594662123     0.5712384518    -1.5258198312
   39      H      -4.5851447897    -1.5855386524     0.9532607110
   40      H      -4.7258905499     0.6426041084     1.7355057742
   41      H      -0.7821793318    -3.4911559715     0.7972363351
   42      H      -4.1200401313    -1.5441085048    -1.8143508964
   43      H      -6.4781067977    -0.6676383779    -2.0591029802
   44      H      -6.5190989523    -1.2674010824    -0.3728239305
   45      H      -6.6087655684     1.5861378856    -1.2951024499
   46      H      -6.6691980717     1.0263953530     0.4048442513
   47      H      -4.3621917147     2.3817679180    -0.4665964420
   48      H      -0.6268749269    -3.0582320282    -0.9442279300
   49      H      -1.4858452177    -4.5756865812    -0.4699418983
   50      H       7.7072980002     1.3685059215     0.7170238548
   51      H       6.3200160512     2.5083105316     0.4892580564
   52      H       7.1943782638     1.8637096750    -0.9459337622
   53      H      -0.4744653657     3.1150075442    -1.3875827025
   54      H       0.9806930035     3.3539694786    -0.3157130865
   55      H      -0.1400493918     1.8105489878     1.4296647337
   56      H      -1.0215597184     3.3559342025     1.1562464502
 ----------------------------------------------------------------

    9   -1510.2853681294      4.35E-09 Convergence criterion met
 Total energy in the final basis set = -1510.28536813
 Final energy is   -1510.28536812941
 **  OPTIMIZATION CONVERGED  **

                    Orbital Energies (a.u.)
 --------------------------------------------------------------

 Alpha MOs
 -- Occupied --
-18.943 -18.928 -18.923 -18.921 -18.890 -18.889 -18.879 -18.866
-18.864 -18.861 -10.109 -10.093 -10.090 -10.089 -10.071 -10.064
-10.062 -10.061 -10.059 -10.059 -10.052 -10.049 -10.041 -10.034
-10.031 -10.030 -10.021 -10.020 -10.017 -10.015  -1.021  -1.007
 -1.003  -0.997  -0.971  -0.962  -0.946  -0.932  -0.927  -0.921
 -0.764  -0.757  -0.725  -0.719  -0.713  -0.702  -0.691  -0.669
 -0.655  -0.610  -0.597  -0.572  -0.546  -0.538  -0.538  -0.532
 -0.517  -0.504  -0.487  -0.467  -0.461  -0.453  -0.447  -0.441
 -0.434  -0.431  -0.424  -0.418  -0.414  -0.408  -0.404  -0.402
 -0.388  -0.382  -0.369  -0.365  -0.360  -0.354  -0.350  -0.342
 -0.340  -0.336  -0.332  -0.328  -0.327  -0.320  -0.315  -0.314
 -0.308  -0.306  -0.302  -0.297  -0.286  -0.283  -0.281  -0.275
 -0.267  -0.260  -0.249  -0.244  -0.237  -0.234  -0.226  -0.187
 -0.172  -0.167  -0.164  -0.161  -0.151  -0.145  -0.141  -0.139
 -0.136

          Ground-State Mulliken Net Atomic Charges

     Atom                 Charge (a.u.)
  ----------------------------------------
      1 O                    -0.206568
      2 C                     0.217606
      3 C                    -0.077634
      4 C                    -0.081773
      5 C                     0.212223
      6 O                    -0.170213
      7 C                    -0.047086
      8 C                    -0.048919
      9 O                    -0.169442
     10 C                     0.213613
     11 C                    -0.077627
     12 C                    -0.079954
     13 C                     0.213578
     14 O                    -0.214119
     15 O                    -0.170187
     16 O                    -0.172141
     17 O                    -0.213512
     18 C                    -0.127875
     19 C                     0.015599
     20 C                    -0.146465
     21 C                    -0.142521
     22 C                     0.024235
     23 O                    -0.190103
     24 H                     0.085170
     25 H                     0.081287
     26 H                     0.099675
     27 H                     0.073405
     28 H                     0.069736
     29 H                     0.076249
     30 H                     0.071841
     31 H                     0.091514
     32 O                    -0.217696
     33 C                    -0.129139
     34 C                     0.025646
     35 C                    -0.143736
     36 C                    -0.144407
     37 C                     0.027037
     38 O                    -0.186502
     39 H                     0.087003
     40 H                     0.083735
     41 H                     0.091752
     42 H                     0.086519
     43 H                     0.078097
     44 H                     0.073685
     45 H                     0.077862
     46 H                     0.073772
     47 H                     0.084981
     48 H                     0.089916
     49 H                     0.092129
     50 H                     0.088935
     51 H                     0.092345
     52 H                     0.086958
     53 H                     0.091987
     54 H                     0.098630
     55 H                     0.098187
     56 H                     0.082714
  ----------------------------------------
  Sum of atomic charges =    -0.000000

                    Cartesian Multipole Moments
 -----------------------------------------------------------------
    Charge (ESU x 10^10)
                -0.0000
    Dipole Moment (Debye)
         X      -1.4397      Y      -2.3876      Z      -1.4652
       Tot       3.1496
    Quadrupole Moments (Debye-Ang)
        XX    -137.4114     XY      -2.7533     YY    -148.4599
        XZ      -2.5044     YZ       2.1930     ZZ    -169.0642

 Total job time:  62.73s(wall), 2989.80s(cpu)
        *  Thank you very much for using Q-Chem.  Have a nice day.  *
