 Q-Chem 5.0, Q-Chem, Inc., Pleasanton, CA (2017)
 Q-Chem 5.0.1 for Intel X86 EM64T Linux

User input:
--------------------------------------------------------------
$molecule
0  1
O -1.415176306 -1.0204529865 0.7786494449
C -2.4873085119 -1.533519246 0.385005636
C -3.928051127 -0.9154463108 0.3691869904
C -4.022469404 0.576409919 0.8869833533
C -2.6644964894 1.2017163706 1.3714422482
O -1.9160189 1.6411517531 0.2345710006
C -0.7221355815 2.3937007563 0.6835281309
C 0.1481000421 2.6696825952 -0.5857740223
O 0.6816451751 1.3956099996 -1.1254583532
C 1.9238925419 1.0867963895 -0.4781370916
C 2.3584384763 -0.3579734773 -0.9016578184
C 3.9035023303 -0.6146216209 -0.700752589
C 4.8012788795 0.6738175474 -0.7129860725
O 4.5973684102 1.7394086311 -1.333029116
O -2.6073621088 -2.8568140204 -0.1431891493
O 5.9661693335 0.4261997818 0.0836612218
O 2.4733877191 1.8257619371 0.367323635
C 6.8415538414 1.6203916706 0.0773256462
C 1.7699017691 -1.3558115422 0.1945779896
C 2.1174431953 -2.8498522021 -0.2037703673
C 3.6242883139 -2.9584711004 0.235403109
C 3.909126834 -1.4646428084 0.6455332339
O 2.6619031898 -1.0773192305 1.345915983
H 2.0065660953 -0.5773676335 -1.9245238779
H 4.2746945737 -1.2494170936 -1.5280503394
H 0.7028432778 -1.1752474628 0.4575934099
H 1.4880216453 -3.5568987239 0.3567606164
H 1.9778792909 -3.0313518924 -1.2817317829
H 3.7402436269 -3.6248995243 1.1051144048
H 4.2851135591 -3.3094783439 -0.5730544418
H 4.7934586482 -1.2953340858 1.2891606376
O -2.3158847516 1.3803760966 2.5589623175
C -1.2893319026 -3.5249888329 -0.1878735341
C -4.4702247044 -0.7557476098 -1.1199732539
C -6.035150907 -0.5523222977 -1.0570360106
C -6.1264372544 0.9341984789 -0.5495790652
C -4.5964859551 1.3018481727 -0.405629971
O -3.9594662123 0.5712384518 -1.5258198312
H -4.5851447897 -1.5855386524 0.953260711
H -4.7258905499 0.6426041084 1.7355057742
H -0.7821793318 -3.4911559715 0.7972363351
H -4.1200401313 -1.5441085048 -1.8143508964
H -6.4781067977 -0.6676383779 -2.0591029802
H -6.5190989523 -1.2674010824 -0.3728239305
H -6.6087655684 1.5861378856 -1.2951024499
H -6.6691980717 1.026395353 0.4048442513
H -4.3621917147 2.381767918 -0.466596442
H -0.6268749269 -3.0582320282 -0.94422793
H -1.4858452177 -4.5756865812 -0.4699418983
H 7.7072980002 1.3685059215 0.7170238548
H 6.3200160512 2.5083105316 0.4892580564
H 7.1943782638 1.863709675 -0.9459337622
H -0.4744653657 3.1150075442 -1.3875827025
H 0.9806930035 3.3539694786 -0.3157130865
H -0.1400493918 1.8105489878 1.4296647337
H -1.0215597184 3.3559342025 1.1562464502
$end

$rem
JOBTYPE                   OPT
METHOD                    B3LYP
DFT_D                     d3_op
BASIS                     STO-3G
GEOM_OPT_MAX_CYCLES       100
GEOM_OPT_TOL_GRADIENT     300
GEOM_OPT_TOL_DISPLACEMENT 1200
GEOM_OPT_TOL_ENERGY       100
SYMMETRY                  False
THRESH                    12
SCF_CONVERGENCE           8
MAX_SUB_FILE_NUM          128
MEM_STATIC                400
MEM_TOTAL                 4000
$end
--------------------------------------------------------------

   16   -1510.2853950515      6.81E-09 Convergence criterion met
 Total energy in the final basis set = -1510.28539505
   13   -1510.2839466207      7.90E-09 Convergence criterion met
 Total energy in the final basis set = -1510.28394662
   13   -1510.2853818313      4.95E-09 Convergence criterion met
 Total energy in the final basis set = -1510.28538183
   13   -1510.2865302495      7.53E-09 Convergence criterion met
 Total energy in the final basis set = -1510.28653025
   13   -1510.2871358517      3.51E-09 Convergence criterion met
 Total energy in the final basis set = -1510.28713585
   13   -1510.2879925977      6.82E-09 Convergence criterion met
 Total energy in the final basis set = -1510.28799260
   13   -1510.2880697514      5.98E-09 Convergence criterion met
 Total energy in the final basis set = -1510.28806975
   14   -1510.2888851639      3.65E-09 Convergence criterion met
   12   -1510.2988145385      3.94E-09 Convergence criterion met
 Total energy in the final basis set = -1510.29881454
   11   -1510.2988189865      5.48E-09 Convergence criterion met
 Total energy in the final basis set = -1510.29881899
   10   -1510.2988237698      7.47E-09 Convergence criterion met
 Total energy in the final basis set = -1510.29882377
   10   -1510.2988289425      8.32E-09 Convergence criterion met
 Total energy in the final basis set = -1510.29882894
    9   -1510.2988298343      4.43E-09 Convergence criterion met
 Total energy in the final basis set = -1510.29882983
   10   -1510.2988264665      4.59E-09 Convergence criterion met
 Total energy in the final basis set = -1510.29882647

             Standard Nuclear Orientation (Angstroms)
    I     Atom           X                Y                Z
 ----------------------------------------------------------------
    1      O      -0.9934606782    -0.9535384461     0.5245243570
    2      C      -2.0988385636    -1.0914512470    -0.0539424657
    3      C      -3.4785355567    -0.6489249844     0.5545623091
    4      C      -3.4176489012     0.8152439586     1.1677320777
    5      C      -2.0393465222     1.5329086701     0.9677711817
    6      O      -1.7755795014     1.6208995839    -0.4412926038
    7      C      -0.4904473540     2.3153437043    -0.6851412774
    8      C       0.1736071776     1.7078170076    -1.9682325478
    9      O       0.7409145350     0.3589331767    -1.7377185684
   10      C       2.0502120490     0.4437548808    -1.1505344989
   11      C       2.5912802792    -1.0029852011    -0.9248526944
   12      C       4.0817042138    -1.0464472450    -0.3866434935
   13      C       4.7211139758     0.3712833276    -0.1383709453
   14      O       5.5070319705     0.9742281854    -0.9017923635
   15      O      -2.2860311028    -1.6786403139    -1.3308901234
   16      O       4.3435819245     0.8337826496     1.1636897981
   17      O       2.6161923558     1.5306418019    -0.9037371135
   18      C       4.8684241601     2.1998129280     1.3780294449
   19      C       1.8117191118    -1.7590842974     0.2441129681
   20      C       2.1079113451    -3.3020581902     0.0875285689
   21      C       3.6005847636    -3.3801452649     0.5806185524
   22      C       3.8782908697    -1.8699057559     0.9561786352
   23      O       2.5713975227    -1.3876944332     1.4562731093
   24      H       2.4912270072    -1.5514512196    -1.8792586796
   25      H       4.7334874172    -1.5788723530    -1.1017610703
   26      H       0.7351985537    -1.4747805446     0.3423954971
   27      H       1.4379606746    -3.8866387308     0.7382465136
   28      H       1.9839054282    -3.6517022276    -0.9499459939
   29      H       3.6998688679    -4.0220639995     1.4702035481
   30      H       4.2876920208    -3.7473410891    -0.1984125995
   31      H       4.6687521755    -1.7097654384     1.7140132150
   32      O      -1.2911506947     1.9950023844     1.8555724159
   33      C      -0.9797614840    -2.0299026640    -1.9449238899
   34      C      -4.6411958580    -0.4875692477    -0.5103338651
   35      C      -6.0155070986    -0.4388399228     0.2662172002
   36      C      -5.9655486573     1.0084876105     0.8821085108
   37      C      -4.5750316103     1.5239707388     0.3365181406
   38      O      -4.4705054931     0.8996393930    -1.0007914458
   39      H      -3.7503017638    -1.3837305829     1.3354104745
   40      H      -3.6342561597     0.8092319707     2.2501441045
   41      H      -0.5169578232    -2.8925946216    -1.4246409818
   42      H      -4.5879480644    -1.2058817212    -1.3504374705
   43      H      -6.8574773462    -0.5495442981    -0.4355155855
   44      H      -6.0890299353    -1.2267313563     1.0327623954
   45      H      -6.7850150670     1.6385057697     0.5013340415
   46      H      -6.0039788252     1.0057137474     1.9832559542
   47      H      -4.4770957833     2.6241778717     0.2597302679
   48      H      -0.2824548115    -1.1574751920    -1.9196858691
   49      H      -1.2096852714    -2.3149201967    -2.9875554515
   50      H       4.5717390885     2.4838232903     2.4044696908
   51      H       4.4284323227     2.9142346438     0.6523257438
   52      H       5.9733186032     2.2359880303     1.2850672301
   53      H      -0.5918046550     1.5817959244    -2.7607676918
   54      H       0.9702255173     2.3989552745    -2.3179925847
   55      H       0.1729754919     2.2166584568     0.2009559457
   56      H      -0.6800567504     3.3979340808    -0.8602907870
 ----------------------------------------------------------------

    9   -1510.2988271856      8.01E-09 Convergence criterion met
 Total energy in the final basis set = -1510.29882719
 Final energy is   -1510.29882718556
 **  OPTIMIZATION CONVERGED  **

                    Orbital Energies (a.u.)
 --------------------------------------------------------------

 Alpha MOs
 -- Occupied --
-18.949 -18.944 -18.930 -18.916 -18.891 -18.889 -18.882 -18.876
-18.875 -18.852 -10.110 -10.110 -10.099 -10.084 -10.082 -10.072
-10.062 -10.060 -10.051 -10.049 -10.048 -10.041 -10.038 -10.037
-10.035 -10.027 -10.022 -10.021 -10.012 -10.011  -1.025  -1.019
 -1.008  -0.992  -0.972  -0.958  -0.949  -0.942  -0.935  -0.918
 -0.765  -0.756  -0.729  -0.720  -0.713  -0.704  -0.692  -0.660
 -0.646  -0.617  -0.598  -0.579  -0.548  -0.539  -0.536  -0.529
 -0.517  -0.506  -0.494  -0.474  -0.470  -0.456  -0.444  -0.437
 -0.435  -0.432  -0.426  -0.415  -0.411  -0.406  -0.403  -0.397
 -0.395  -0.384  -0.373  -0.370  -0.361  -0.358  -0.353  -0.351
 -0.341  -0.333  -0.333  -0.330  -0.323  -0.322  -0.314  -0.312
 -0.306  -0.306  -0.300  -0.299  -0.295  -0.291  -0.277  -0.272
 -0.271  -0.262  -0.249  -0.248  -0.237  -0.235  -0.221  -0.193
 -0.183  -0.172  -0.163  -0.161  -0.158  -0.151  -0.145  -0.135
 -0.132

          Ground-State Mulliken Net Atomic Charges

     Atom                 Charge (a.u.)
  ----------------------------------------
      1 O                    -0.217946
      2 C                     0.222681
      3 C                    -0.077196
      4 C                    -0.078992
      5 C                     0.212085
      6 O                    -0.174579
      7 C                    -0.052387
      8 C                    -0.047331
      9 O                    -0.173121
     10 C                     0.219321
     11 C                    -0.080983
     12 C                    -0.081519
     13 C                     0.212195
     14 O                    -0.223000
     15 O                    -0.165436
     16 O                    -0.167448
     17 O                    -0.204262
     18 C                    -0.127140
     19 C                     0.005697
     20 C                    -0.145673
     21 C                    -0.145077
     22 C                     0.026755
     23 O                    -0.187450
     24 H                     0.082800
     25 H                     0.080945
     26 H                     0.113640
     27 H                     0.074704
     28 H                     0.067175
     29 H                     0.075789
     30 H                     0.070721
     31 H                     0.084124
     32 O                    -0.208480
     33 C                    -0.146830
     34 C                     0.023716
     35 C                    -0.144154
     36 C                    -0.144018
     37 C                     0.026193
     38 O                    -0.187077
     39 H                     0.085638
     40 H                     0.086212
     41 H                     0.080148
     42 H                     0.092604
     43 H                     0.077978
     44 H                     0.073258
     45 H                     0.078095
     46 H                     0.074355
     47 H                     0.082700
     48 H                     0.115155
     49 H                     0.084874
     50 H                     0.087997
     51 H                     0.090902
     52 H                     0.084908
     53 H                     0.097573
     54 H                     0.097852
     55 H                     0.106134
     56 H                     0.085176
  ----------------------------------------
  Sum of atomic charges =    -0.000000

                    Cartesian Multipole Moments
 -----------------------------------------------------------------
    Charge (ESU x 10^10)
                -0.0000
    Dipole Moment (Debye)
         X      -2.7479      Y      -1.5186      Z      -1.1342
       Tot       3.3382
    Quadrupole Moments (Debye-Ang)
        XX    -157.0253     XY      -4.3197     YY    -150.6131
        XZ      -3.1720     YZ       1.6146     ZZ    -161.8784

 Total job time:  128.18s(wall), 6112.35s(cpu)
        *  Thank you very much for using Q-Chem.  Have a nice day.  *
