 Q-Chem 5.0, Q-Chem, Inc., Pleasanton, CA (2017)
 Q-Chem 5.0.1 for Intel X86 EM64T Linux

User input:
--------------------------------------------------------------
$molecule
0  1
O -3.94934 -3.66094 2.70899
C -3.26408 -4.56952 2.26188
C -3.36658 -6.02376 2.66595
C -4.29903 -6.36261 3.8405
C -5.16027 -5.23505 4.36488
O -6.16072 -4.96321 3.4757
C -7.0586 -3.94592 3.93197
C -7.98377 -3.51458 2.79878
O -7.27746 -2.65463 1.89076
C -7.15166 -1.36421 2.2884
C -6.24762 -0.55651 1.38784
C -6.55693 0.94694 1.34025
C -7.45974 1.47092 2.43891
O -8.38811 0.85812 2.94602
O -2.35715 -4.31721 1.2838
O -7.3714 2.8031 2.70508
O -7.22464 -1.09282 3.48176
C -8.16363 3.47424 3.61336
C -4.76885 -0.51112 1.81825
C -3.89249 -0.17408 0.60768
C -4.22411 1.28287 0.41003
C -5.1437 1.50991 1.60815
O -4.65267 0.64708 2.59987
H -6.30708 -1.01032 0.37182
H -6.96596 1.30453 0.37002
H -4.43097 -1.43741 2.29951
H -2.83129 -0.24439 0.9342
H -4.0537 -0.80286 -0.29274
H -3.28831 1.87596 0.51745
H -4.72683 1.53323 -0.54935
H -5.13406 2.59097 1.86574
O -5.09546 -4.80106 5.50908
C -2.14845 -3.09246 0.70067
C -3.95915 -6.92531 1.56697
C -3.50025 -8.36803 1.77798
C -4.31376 -8.7504 2.99948
C -5.14467 -7.47718 3.19226
O -5.32986 -7.00043 1.87902
H -2.32441 -6.33946 2.90039
H -3.71347 -6.73644 4.71061
H -1.85177 -2.34967 1.47073
H -3.70751 -6.58546 0.53864
H -3.8662 -8.9623 0.9102
H -2.40158 -8.50219 1.87704
H -4.97563 -9.60263 2.72763
H -3.7215 -9.00422 3.90511
H -6.06793 -7.69436 3.7732
H -3.07197 -2.77952 0.17838
H -1.33388 -3.17951 -0.04699
H -7.8713 4.54415 3.63
H -8.02262 3.04878 4.63
H -9.23236 3.39995 3.31931
H -8.35747 -4.41527 2.26687
H -8.8777 -2.98464 3.20217
H -6.51967 -3.08844 4.38283
H -7.68863 -4.39878 4.72974
$end

$opt
CONSTRAINT
tors           1           2           3           4      -7.043
tors           3           4           5           6     +72.837
tors           4           5           6           7    +177.235
tors           5           6           7           8    +169.559
tors           6           7           8           9     -76.776
tors           7           8           9          10     -79.716
tors           8           9          10          11    +172.343
tors           9          10          11          12    +152.318
tors          11          12          13          14     -34.615
ENDCONSTRAINT
$end

$rem
JOBTYPE                   OPT
METHOD                    B3LYP
DFT_D                     d3_op
BASIS                     STO-3G
GEOM_OPT_MAX_CYCLES       100
GEOM_OPT_TOL_GRADIENT     300
GEOM_OPT_TOL_DISPLACEMENT 1200
GEOM_OPT_TOL_ENERGY       100
SYMMETRY                  False
THRESH                    12
SCF_CONVERGENCE           8
MAX_SUB_FILE_NUM          128
MEM_STATIC                400
MEM_TOTAL                 4000
$end
--------------------------------------------------------------

   15   -1510.1373303750      9.37E-09 Convergence criterion met
 Total energy in the final basis set = -1510.13733038
   13   -1510.2099197732      8.69E-09 Convergence criterion met
 Total energy in the final basis set = -1510.20991977
   14   -1510.2485709987      7.55E-09 Convergence criterion met
 Total energy in the final basis set = -1510.24857100
   14   -1510.2660458550      9.17E-09 Convergence criterion met
 Total energy in the final basis set = -1510.26604585
   14   -1510.2742701526      5.91E-09 Convergence criterion met
 Total energy in the final basis set = -1510.27427015
   14   -1510.2784604925      4.52E-09 Convergence criterion met
 Total energy in the final basis set = -1510.27846049
   13   -1510.2810600769      2.95E-09 Convergence criterion met
 Total energy in the final basis set = -1510.28106008
   13   -1510.2827038006      2.51E-09 Convergence criterion met
   12   -1510.2856944402      3.31E-09 Convergence criterion met
 Total energy in the final basis set = -1510.28569444
   11   -1510.2857833993      7.54E-09 Convergence criterion met
 Total energy in the final basis set = -1510.28578340
   11   -1510.2858289857      4.79E-09 Convergence criterion met
 Total energy in the final basis set = -1510.28582899
   10   -1510.2858663734      7.21E-09 Convergence criterion met
 Total energy in the final basis set = -1510.28586637
   10   -1510.2858847803      5.10E-09 Convergence criterion met
 Total energy in the final basis set = -1510.28588478
    9   -1510.2858938759      9.03E-09 Convergence criterion met
 Total energy in the final basis set = -1510.28589388

             Standard Nuclear Orientation (Angstroms)
    I     Atom           X                Y                Z
 ----------------------------------------------------------------
    1      O      -1.3649974256    -0.9518814853     0.7068664996
    2      C      -2.4480452078    -1.4895534803     0.3823836172
    3      C      -3.8959960300    -0.8874078370     0.3896366586
    4      C      -4.0287308488     0.5506135865     1.0384549773
    5      C      -2.6537230042     1.2192555617     1.3985858195
    6      O      -2.0061969761     1.6309481747     0.1911439975
    7      C      -0.7403972848     2.3221296115     0.5206561505
    8      C       0.0508148440     2.5089711874    -0.8183216005
    9      O       0.6826582450     1.2335426774    -1.2336522622
   10      C       1.8881751170     1.0131928761    -0.4938757958
   11      C       2.3902960587    -0.4308141411    -0.8381630258
   12      C       3.9544274427    -0.6120182210    -0.7092719935
   13      C       4.7738354866     0.7284642372    -0.7199687210
   14      O       4.5145087647     1.7675393850    -1.3643072232
   15      O      -2.5639981378    -2.8306884516    -0.1028199759
   16      O       5.9343045230     0.5718566262     0.1046057901
   17      O       2.3569144256     1.8129687543     0.3443099710
   18      C       6.7277635267     1.8221769958     0.0970556440
   19      C       1.8886387212    -1.4028615891     0.3181216662
   20      C       2.2233880954    -2.8993164574    -0.0752767566
   21      C       3.7635370066    -2.9719352777     0.2363268513
   22      C       4.0526449738    -1.4717914267     0.6273765699
   23      O       2.8482850540    -1.0959901440     1.4045927790
   24      H       2.0061932950    -0.7200483338    -1.8318753528
   25      H       4.3276190009    -1.2109832157    -1.5617438348
   26      H       0.8378796394    -1.2226829852     0.6357913965
   27      H       1.6530314693    -3.6019746481     0.5516204742
   28      H       1.9955817747    -3.1068864282    -1.1331671662
   29      H       3.9688981145    -3.6375210517     1.0900181699
   30      H       4.3615097526    -3.3062330522    -0.6262148352
   31      H       4.9723925180    -1.2927437838     1.2162153214
   32      O      -2.2076604510     1.4275666797     2.5479795538
   33      C      -1.2314668199    -3.4681231827    -0.1841000920
   34      C      -4.4732932318    -0.6254230638    -1.0734545779
   35      C      -6.0478916095    -0.5745204267    -0.9621497510
   36      C      -6.2498902651     0.8115669384    -0.2448505880
   37      C      -4.7586016893     1.3268627365    -0.1399362864
   38      O      -4.1091393455     0.7793473392    -1.3541517053
   39      H      -4.5397815708    -1.6135950315     0.9188606797
   40      H      -4.6370195720     0.5164625116     1.9589714567
   41      H      -0.7209126901    -3.4729984019     0.8000272129
   42      H      -4.0722753147    -1.3018703973    -1.8530287605
   43      H      -6.5017833931    -0.5799988644    -1.9661047710
   44      H      -6.4553219806    -1.4195743588    -0.3848324597
   45      H      -6.8560135047     1.4998424274    -0.8548960020
   46      H      -6.7202818851     0.7098602775     0.7461191138
   47      H      -4.6429689771     2.4271018756    -0.1039721753
   48      H      -0.5792214092    -2.9528146641    -0.9176433479
   49      H      -1.4087041125    -4.5079972952    -0.5146495569
   50      H       7.5957848886     1.6373558436     0.7562372350
   51      H       6.1396176478     2.6779694698     0.4865556899
   52      H       7.0830174067     2.0750947865    -0.9230110564
   53      H      -0.6442491966     2.7901289791    -1.6347318958
   54      H       0.8193388391     3.2999619657    -0.6821821975
   55      H      -0.1391653422     1.7332227316     1.2460705728
   56      H      -0.9490879062     3.3158001750     0.9770741637
 ----------------------------------------------------------------

    9   -1510.2858943431      4.95E-09 Convergence criterion met
 Total energy in the final basis set = -1510.28589434
 Final energy is   -1510.28589434305
 **  OPTIMIZATION CONVERGED  **

                    Orbital Energies (a.u.)
 --------------------------------------------------------------

 Alpha MOs
 -- Occupied --
-18.942 -18.929 -18.923 -18.921 -18.890 -18.888 -18.880 -18.867
-18.864 -18.861 -10.108 -10.093 -10.090 -10.089 -10.071 -10.065
-10.062 -10.061 -10.060 -10.059 -10.052 -10.050 -10.041 -10.035
-10.031 -10.030 -10.022 -10.021 -10.017 -10.016  -1.020  -1.007
 -1.003  -0.998  -0.971  -0.963  -0.944  -0.932  -0.927  -0.922
 -0.764  -0.757  -0.725  -0.719  -0.713  -0.703  -0.690  -0.669
 -0.656  -0.610  -0.597  -0.573  -0.547  -0.539  -0.538  -0.532
 -0.516  -0.505  -0.487  -0.467  -0.462  -0.453  -0.445  -0.440
 -0.435  -0.431  -0.419  -0.417  -0.414  -0.409  -0.405  -0.403
 -0.390  -0.381  -0.370  -0.365  -0.359  -0.354  -0.349  -0.343
 -0.341  -0.336  -0.332  -0.329  -0.328  -0.321  -0.315  -0.315
 -0.307  -0.306  -0.302  -0.297  -0.287  -0.284  -0.282  -0.275
 -0.267  -0.260  -0.249  -0.244  -0.237  -0.235  -0.227  -0.186
 -0.173  -0.167  -0.164  -0.159  -0.151  -0.145  -0.141  -0.140
 -0.137

          Ground-State Mulliken Net Atomic Charges

     Atom                 Charge (a.u.)
  ----------------------------------------
      1 O                    -0.208193
      2 C                     0.215342
      3 C                    -0.078351
      4 C                    -0.081148
      5 C                     0.211864
      6 O                    -0.169446
      7 C                    -0.047012
      8 C                    -0.047709
      9 O                    -0.171178
     10 C                     0.213545
     11 C                    -0.078076
     12 C                    -0.080036
     13 C                     0.213379
     14 O                    -0.214135
     15 O                    -0.170281
     16 O                    -0.171244
     17 O                    -0.213837
     18 C                    -0.127775
     19 C                     0.017201
     20 C                    -0.145604
     21 C                    -0.143097
     22 C                     0.024035
     23 O                    -0.189312
     24 H                     0.084398
     25 H                     0.081759
     26 H                     0.097836
     27 H                     0.073437
     28 H                     0.069825
     29 H                     0.076558
     30 H                     0.071815
     31 H                     0.091928
     32 O                    -0.217318
     33 C                    -0.128868
     34 C                     0.026408
     35 C                    -0.142849
     36 C                    -0.144913
     37 C                     0.027009
     38 O                    -0.184799
     39 H                     0.086397
     40 H                     0.084197
     41 H                     0.090333
     42 H                     0.085710
     43 H                     0.078194
     44 H                     0.073994
     45 H                     0.077996
     46 H                     0.073906
     47 H                     0.084043
     48 H                     0.089800
     49 H                     0.091801
     50 H                     0.089253
     51 H                     0.092864
     52 H                     0.087193
     53 H                     0.095353
     54 H                     0.095191
     55 H                     0.099928
     56 H                     0.082691
  ----------------------------------------
  Sum of atomic charges =    -0.000000

                    Cartesian Multipole Moments
 -----------------------------------------------------------------
    Charge (ESU x 10^10)
                -0.0000
    Dipole Moment (Debye)
         X      -1.4191      Y      -2.5502      Z      -1.5262
       Tot       3.2934
    Quadrupole Moments (Debye-Ang)
        XX    -137.0222     XY      -2.1295     YY    -149.4608
        XZ      -3.4896     YZ       1.8239     ZZ    -168.6738

 Total job time:  54.83s(wall), 2611.67s(cpu)
        *  Thank you very much for using Q-Chem.  Have a nice day.  *
