 Q-Chem 5.0, Q-Chem, Inc., Pleasanton, CA (2017)
 Q-Chem 5.0.1 for Intel X86 EM64T Linux

User input:
--------------------------------------------------------------
$molecule
0  1
O -1.3649974256 -0.9518814853 0.7068664996
C -2.4480452078 -1.4895534803 0.3823836172
C -3.89599603 -0.887407837 0.3896366586
C -4.0287308488 0.5506135865 1.0384549773
C -2.6537230042 1.2192555617 1.3985858195
O -2.0061969761 1.6309481747 0.1911439975
C -0.7403972848 2.3221296115 0.5206561505
C 0.050814844 2.5089711874 -0.8183216005
O 0.682658245 1.2335426774 -1.2336522622
C 1.888175117 1.0131928761 -0.4938757958
C 2.3902960587 -0.4308141411 -0.8381630258
C 3.9544274427 -0.612018221 -0.7092719935
C 4.7738354866 0.7284642372 -0.719968721
O 4.5145087647 1.767539385 -1.3643072232
O -2.5639981378 -2.8306884516 -0.1028199759
O 5.934304523 0.5718566262 0.1046057901
O 2.3569144256 1.8129687543 0.344309971
C 6.7277635267 1.8221769958 0.097055644
C 1.8886387212 -1.4028615891 0.3181216662
C 2.2233880954 -2.8993164574 -0.0752767566
C 3.7635370066 -2.9719352777 0.2363268513
C 4.0526449738 -1.4717914267 0.6273765699
O 2.848285054 -1.095990144 1.404592779
H 2.006193295 -0.7200483338 -1.8318753528
H 4.3276190009 -1.2109832157 -1.5617438348
H 0.8378796394 -1.2226829852 0.6357913965
H 1.6530314693 -3.6019746481 0.5516204742
H 1.9955817747 -3.1068864282 -1.1331671662
H 3.9688981145 -3.6375210517 1.0900181699
H 4.3615097526 -3.3062330522 -0.6262148352
H 4.972392518 -1.2927437838 1.2162153214
O -2.207660451 1.4275666797 2.5479795538
C -1.2314668199 -3.4681231827 -0.184100092
C -4.4732932318 -0.6254230638 -1.0734545779
C -6.0478916095 -0.5745204267 -0.962149751
C -6.2498902651 0.8115669384 -0.244850588
C -4.7586016893 1.3268627365 -0.1399362864
O -4.1091393455 0.7793473392 -1.3541517053
H -4.5397815708 -1.6135950315 0.9188606797
H -4.637019572 0.5164625116 1.9589714567
H -0.7209126901 -3.4729984019 0.8000272129
H -4.0722753147 -1.3018703973 -1.8530287605
H -6.5017833931 -0.5799988644 -1.966104771
H -6.4553219806 -1.4195743588 -0.3848324597
H -6.8560135047 1.4998424274 -0.854896002
H -6.7202818851 0.7098602775 0.7461191138
H -4.6429689771 2.4271018756 -0.1039721753
H -0.5792214092 -2.9528146641 -0.9176433479
H -1.4087041125 -4.5079972952 -0.5146495569
H 7.5957848886 1.6373558436 0.756237235
H 6.1396176478 2.6779694698 0.4865556899
H 7.0830174067 2.0750947865 -0.9230110564
H -0.6442491966 2.7901289791 -1.6347318958
H 0.8193388391 3.2999619657 -0.6821821975
H -0.1391653422 1.7332227316 1.2460705728
H -0.9490879062 3.315800175 0.9770741637
$end

$rem
JOBTYPE                   OPT
METHOD                    B3LYP
DFT_D                     d3_op
BASIS                     STO-3G
GEOM_OPT_MAX_CYCLES       100
GEOM_OPT_TOL_GRADIENT     300
GEOM_OPT_TOL_DISPLACEMENT 1200
GEOM_OPT_TOL_ENERGY       100
SYMMETRY                  False
THRESH                    12
SCF_CONVERGENCE           8
MAX_SUB_FILE_NUM          128
MEM_STATIC                400
MEM_TOTAL                 4000
$end
--------------------------------------------------------------

   16   -1510.2859549620      5.11E-09 Convergence criterion met
 Total energy in the final basis set = -1510.28595496
   14   -1510.2194085665      4.27E-09 Convergence criterion met
 Total energy in the final basis set = -1510.21940857
   15   -1510.2859457395      1.78E-09 Convergence criterion met
 Total energy in the final basis set = -1510.28594574
   14   -1510.2856365640      4.00E-09 Convergence criterion met
 Total energy in the final basis set = -1510.28563656
   13   -1510.2869777442      5.40E-09 Convergence criterion met
 Total energy in the final basis set = -1510.28697774
   14   -1510.2874127079      3.41E-09 Convergence criterion met
 Total energy in the final basis set = -1510.28741271
   13   -1510.2875174461      6.98E-09 Convergence criterion met
 Total energy in the final basis set = -1510.28751745
   13   -1510.2881695770      9.24E-09 Convergence criterion met
   12   -1510.2987386310      6.05E-09 Convergence criterion met
 Total energy in the final basis set = -1510.29873863
   13   -1510.2988072338      3.45E-09 Convergence criterion met
 Total energy in the final basis set = -1510.29880723
   12   -1510.2988314112      5.39E-09 Convergence criterion met
 Total energy in the final basis set = -1510.29883141
   12   -1510.2988177801      3.14E-09 Convergence criterion met
 Total energy in the final basis set = -1510.29881778
   11   -1510.2988333048      5.57E-09 Convergence criterion met
 Total energy in the final basis set = -1510.29883330
    9   -1510.2988343666      7.53E-09 Convergence criterion met
 Total energy in the final basis set = -1510.29883437

             Standard Nuclear Orientation (Angstroms)
    I     Atom           X                Y                Z
 ----------------------------------------------------------------
    1      O      -0.9659949472    -0.9987225784     0.5270261251
    2      C      -2.0735820222    -1.1529833387    -0.0430145067
    3      C      -3.4567319377    -0.7445517104     0.5816224517
    4      C      -3.4201416451     0.7145879294     1.2084506321
    5      C      -2.0613069013     1.4649499364     0.9965716168
    6      O      -1.8184693806     1.5674563638    -0.4152605574
    7      C      -0.5572466487     2.2992454623    -0.6727544802
    8      C       0.1063936744     1.7158357205    -1.9672419465
    9      O       0.7134650566     0.3815766821    -1.7533455682
   10      C       2.0142109643     0.4971382090    -1.1528763441
   11      C       2.6009294786    -0.9350971046    -0.9526050835
   12      C       4.0975504455    -0.9397740406    -0.4304296475
   13      C       4.6937441779     0.4939622740    -0.1664604611
   14      O       5.4444637050     1.1373115449    -0.9324348749
   15      O      -2.2597834151    -1.7310180590    -1.3243902716
   16      O       4.3259573424     0.9190152572     1.1509442903
   17      O       2.5415736751     1.5966535757    -0.8781117196
   18      C       4.8097996574     2.2974536872     1.3818954382
   19      C       1.8585118725    -1.7327297785     0.2132674788
   20      C       2.2015064503    -3.2628397057     0.0285518616
   21      C       3.7008098004    -3.3020622782     0.5054222320
   22      C       3.9356446947    -1.7897048539     0.9011373351
   23      O       2.6197979367    -1.3565978009     1.4230529805
   24      H       2.5078620803    -1.4731737402    -1.9135229036
   25      H       4.7579469699    -1.4395066051    -1.1610391422
   26      H       0.7750501085    -1.4833358123     0.3276443267
   27      H       1.5570718781    -3.8785774625     0.6764235222
   28      H       2.0773295906    -3.5997669351    -1.0131251219
   29      H       3.8291044419    -3.9537768280     1.3841364370
   30      H       4.3909009808    -3.6361807780    -0.2858972658
   31      H       4.7292784350    -1.6160303244     1.6526200533
   32      O      -1.3126730539     1.9392577881     1.8774754173
   33      C      -0.9514342233    -2.0477386735    -1.9527105539
   34      C      -4.6326064937    -0.5973603031    -0.4709388684
   35      C      -5.9999442368    -0.5873562140     0.3188566537
   36      C      -5.9751185698     0.8531854154     0.9518567626
   37      C      -4.6024419018     1.4060205612     0.3977908390
   38      O      -4.4979525334     0.7986961588    -0.9474271056
   39      H      -3.7067696639    -1.4920232100     1.3576413622
   40      H      -3.6227131049     0.6940013629     2.2934233836
   41      H      -0.4636798147    -2.9029768136    -1.4429611173
   42      H      -4.5716607542    -1.3052321689    -1.3193047736
   43      H      -6.8458744006    -0.7072495357    -0.3765958062
   44      H      -6.0501650846    -1.3856373192     1.0765512003
   45      H      -6.8124486948     1.4695135943     0.5879244659
   46      H      -6.0010554552     0.8363702579     2.0532128343
   47      H      -4.5299086927     2.5089081262     0.3322025105
   48      H      -0.2748004234    -1.1591629160    -1.9275406566
   49      H      -1.1843590671    -2.3306814877    -2.9952217054
   50      H       4.5241558595     2.5522070030     2.4190476090
   51      H       4.3323519389     3.0102430259     0.6786348088
   52      H       5.9108867418     2.3719542096     1.2686061701
   53      H      -0.6658413822     1.5717950156    -2.7500210952
   54      H       0.8776807486     2.4310917228    -2.3254278679
   55      H       0.1210842139     2.2165605316     0.2035645227
   56      H      -0.7800228125     3.3765126042    -0.8413476488
 ----------------------------------------------------------------

    9   -1510.2988345923      6.09E-09 Convergence criterion met
 Total energy in the final basis set = -1510.29883459
 Final energy is   -1510.29883459227
 **  OPTIMIZATION CONVERGED  **

                    Orbital Energies (a.u.)
 --------------------------------------------------------------

 Alpha MOs
 -- Occupied --
-18.949 -18.944 -18.930 -18.916 -18.891 -18.889 -18.881 -18.876
-18.876 -18.852 -10.110 -10.110 -10.099 -10.084 -10.083 -10.072
-10.062 -10.060 -10.051 -10.049 -10.048 -10.041 -10.038 -10.037
-10.034 -10.027 -10.022 -10.021 -10.012 -10.011  -1.025  -1.018
 -1.008  -0.992  -0.971  -0.958  -0.949  -0.942  -0.935  -0.918
 -0.765  -0.756  -0.729  -0.720  -0.713  -0.704  -0.692  -0.660
 -0.646  -0.617  -0.598  -0.579  -0.548  -0.539  -0.536  -0.529
 -0.517  -0.506  -0.493  -0.474  -0.470  -0.456  -0.444  -0.437
 -0.435  -0.432  -0.426  -0.415  -0.411  -0.406  -0.403  -0.397
 -0.395  -0.384  -0.374  -0.369  -0.361  -0.358  -0.353  -0.352
 -0.341  -0.333  -0.333  -0.330  -0.323  -0.322  -0.314  -0.312
 -0.306  -0.305  -0.300  -0.299  -0.295  -0.291  -0.277  -0.273
 -0.271  -0.262  -0.249  -0.248  -0.236  -0.235  -0.221  -0.193
 -0.182  -0.172  -0.162  -0.161  -0.158  -0.151  -0.145  -0.135
 -0.132

          Ground-State Mulliken Net Atomic Charges

     Atom                 Charge (a.u.)
  ----------------------------------------
      1 O                    -0.218158
      2 C                     0.222520
      3 C                    -0.077197
      4 C                    -0.078956
      5 C                     0.212099
      6 O                    -0.174618
      7 C                    -0.052509
      8 C                    -0.047075
      9 O                    -0.173097
     10 C                     0.219304
     11 C                    -0.081036
     12 C                    -0.081504
     13 C                     0.212187
     14 O                    -0.223192
     15 O                    -0.165483
     16 O                    -0.167328
     17 O                    -0.204211
     18 C                    -0.127107
     19 C                     0.005909
     20 C                    -0.145618
     21 C                    -0.145054
     22 C                     0.026698
     23 O                    -0.187285
     24 H                     0.082802
     25 H                     0.080943
     26 H                     0.113393
     27 H                     0.074691
     28 H                     0.067260
     29 H                     0.075819
     30 H                     0.070724
     31 H                     0.084246
     32 O                    -0.208381
     33 C                    -0.146814
     34 C                     0.023709
     35 C                    -0.144117
     36 C                    -0.144047
     37 C                     0.026197
     38 O                    -0.187053
     39 H                     0.085613
     40 H                     0.086224
     41 H                     0.080140
     42 H                     0.092624
     43 H                     0.077967
     44 H                     0.073248
     45 H                     0.078088
     46 H                     0.074346
     47 H                     0.082675
     48 H                     0.115043
     49 H                     0.084854
     50 H                     0.088021
     51 H                     0.090959
     52 H                     0.084885
     53 H                     0.097692
     54 H                     0.097358
     55 H                     0.106414
     56 H                     0.085188
  ----------------------------------------
  Sum of atomic charges =    -0.000000

                    Cartesian Multipole Moments
 -----------------------------------------------------------------
    Charge (ESU x 10^10)
                -0.0000
    Dipole Moment (Debye)
         X      -2.7006      Y      -1.5756      Z      -1.1417
       Tot       3.3285
    Quadrupole Moments (Debye-Ang)
        XX    -156.5977     XY      -4.4850     YY    -150.9374
        XZ      -3.4115     YZ       1.7070     ZZ    -161.7079

 Total job time:  117.20s(wall), 5594.86s(cpu)
        *  Thank you very much for using Q-Chem.  Have a nice day.  *
