 Q-Chem 5.0, Q-Chem, Inc., Pleasanton, CA (2017)
 Q-Chem 5.0.1 for Intel X86 EM64T Linux

User input:
--------------------------------------------------------------
$molecule
0  1
O -1.4118709402 -0.9069560927 0.8006760908
C -2.4589990435 -1.4754430863 0.4183786188
C -3.9197708652 -0.9132697119 0.3199242523
C -4.1405448335 0.5314862649 0.9281353075
C -2.8214080051 1.2497946169 1.3871668019
O -2.0879178166 1.6613469551 0.2308022935
C -0.8487859752 2.3528937113 0.6509307365
C 0.0357881299 2.5387574939 -0.6270095174
O 0.6279637481 1.2403721682 -1.0279294905
C 1.8575323936 1.0213132569 -0.3262818814
C 2.3742774765 -0.403319179 -0.7295885545
C 3.9438575836 -0.5642444236 -0.6899271347
C 4.7587613479 0.7747137036 -0.7713699062
O 4.3852541081 1.8752812712 -1.2296739066
O -2.5108862416 -2.8274996487 -0.0504967261
O 6.0721448593 0.5312784816 -0.2527211713
O 2.3287006877 1.8043763072 0.5255910116
C 6.8785907519 1.7712476404 -0.3220577473
C 1.9577370675 -1.3961242888 0.4425375762
C 2.3111133075 -2.8831489989 0.0306035499
C 3.8640291529 -2.9196365696 0.2811108904
C 4.1339781677 -1.4097657307 0.6484023762
O 2.9599242159 -1.0634283274 1.4825844754
H 1.9385609302 -0.6852737648 -1.7035843016
H 4.2711204489 -1.1747166583 -1.5531944604
H 0.9219719235 -1.2410459075 0.8133271471
H 1.7811831222 -3.6013890295 0.6752069226
H 2.0475018697 -3.0913490257 -1.0188098869
H 4.1170378331 -3.5718227685 1.1324745443
H 4.4350139128 -3.2497496561 -0.6010785328
H 5.0779581501 -1.203646783 1.1884517494
O -2.4746016555 1.4834893889 2.5656631502
C -1.1585219373 -3.4269232615 -0.0466131891
C -4.4028835248 -0.6955149215 -1.183571879
C -5.9818325469 -0.682155951 -1.1797935425
C -6.2663288335 0.7189575443 -0.5213303669
C -4.7974153698 1.2683549658 -0.3174650611
O -4.0519060648 0.7112345171 -1.4702958993
H -4.5784041486 -1.6478594777 0.8181422716
H -4.8196668071 0.4946138533 1.7976826354
H -0.7015983742 -3.4015851939 0.9634662389
H -3.9344440193 -1.3778873115 -1.9191183269
H -6.3659163075 -0.7287314171 -2.2114781971
H -6.4068861852 -1.5210212129 -0.60606308
H -6.8341432157 1.376822635 -1.1982401133
H -6.8124014306 0.6377765903 0.4321194131
H -4.706668064 2.371336313 -0.2963326027
H -0.4824064261 -2.9045092018 -0.7529061216
H -1.2871716255 -4.4767892616 -0.3679994029
H 7.8668105906 1.5167825567 0.1032706403
H 6.4184847241 2.5895881339 0.2685871882
H 7.0030566681 2.1202222328 -1.3676775271
H -0.5889046026 2.8766425241 -1.4782363093
H 0.8342627345 3.2813012201 -0.4141672214
H -0.3005471073 1.7601665621 1.4144501374
H -1.0887164737 3.3454459476 1.0944453103
$end

$rem
JOBTYPE                   OPT
METHOD                    B3LYP
DFT_D                     d3_op
BASIS                     STO-3G
GEOM_OPT_MAX_CYCLES       100
GEOM_OPT_TOL_GRADIENT     300
GEOM_OPT_TOL_DISPLACEMENT 1200
GEOM_OPT_TOL_ENERGY       100
SYMMETRY                  False
THRESH                    12
SCF_CONVERGENCE           8
MAX_SUB_FILE_NUM          128
MEM_STATIC                400
MEM_TOTAL                 4000
$end
--------------------------------------------------------------

   16   -1510.2845937141      5.86E-09 Convergence criterion met
 Total energy in the final basis set = -1510.28459371
   14   -1510.2421586860      3.24E-09 Convergence criterion met
 Total energy in the final basis set = -1510.24215869
   14   -1510.2854067007      4.62E-09 Convergence criterion met
 Total energy in the final basis set = -1510.28540670
   14   -1510.2856670964      2.21E-09 Convergence criterion met
 Total energy in the final basis set = -1510.28566710
   13   -1510.2866788064      5.85E-09 Convergence criterion met
 Total energy in the final basis set = -1510.28667881
   13   -1510.2865555668      6.59E-09 Convergence criterion met
 Total energy in the final basis set = -1510.28655557
   13   -1510.2864965822      7.55E-09 Convergence criterion met
 Total energy in the final basis set = -1510.28649658
   13   -1510.2873889622      3.68E-09 Convergence criterion met
   12   -1510.2987928493      3.28E-09 Convergence criterion met
 Total energy in the final basis set = -1510.29879285
   11   -1510.2988013749      7.40E-09 Convergence criterion met
 Total energy in the final basis set = -1510.29880137
   12   -1510.2988169969      3.36E-09 Convergence criterion met
 Total energy in the final basis set = -1510.29881700
   12   -1510.2988246655      2.12E-09 Convergence criterion met
 Total energy in the final basis set = -1510.29882467
   11   -1510.2988260842      3.51E-09 Convergence criterion met
 Total energy in the final basis set = -1510.29882608
   11   -1510.2988218666      2.53E-09 Convergence criterion met
 Total energy in the final basis set = -1510.29882187

             Standard Nuclear Orientation (Angstroms)
    I     Atom           X                Y                Z
 ----------------------------------------------------------------
    1      O      -0.9416360768    -1.0261060327     0.5121032412
    2      C      -2.0453945984    -1.1880835380    -0.0631701191
    3      C      -3.4347659150    -0.7922352002     0.5559233198
    4      C      -3.4162628129     0.6693238140     1.1776926694
    5      C      -2.0684698587     1.4378011074     0.9611097635
    6      O      -1.8217930823     1.5257000860    -0.4510074429
    7      C      -0.5746620221     2.2792298531    -0.7137327014
    8      C       0.0985849005     1.7000471389    -2.0050758832
    9      O       0.7276623804     0.3769938768    -1.7849517020
   10      C       2.0191652666     0.5155410499    -1.1697013434
   11      C       2.6283697949    -0.9062640852    -0.9630442848
   12      C       4.1235237927    -0.8851871798    -0.4372627158
   13      C       4.6947406788     0.5592302687    -0.1764853355
   14      O       5.4324596065     1.2142870380    -0.9452172206
   15      O      -2.2214298344    -1.7664126377    -1.3459398512
   16      O       4.3217886065     0.9803654484     1.1406422022
   17      O       2.5233611815     1.6241158403    -0.8878605189
   18      C       4.7788034476     2.3687715397     1.3667175385
   19      C       1.8962800704    -1.7124711421     0.2036820684
   20      C       2.2651134597    -3.2372013356     0.0229022524
   21      C       3.7633048932    -3.2511489722     0.5042655650
   22      C       3.9727370136    -1.7341218873     0.8961921948
   23      O       2.6488008006    -1.3210570783     1.4140719780
   24      H       2.5466246094    -1.4492633572    -1.9221361082
   25      H       4.7937542335    -1.3757480892    -1.1651482517
   26      H       0.8085603582    -1.4809592326     0.3153234927
   27      H       1.6288945408    -3.8623844719     0.6698724690
   28      H       2.1492207955    -3.5775083956    -1.0186045037
   29      H       3.8993231582    -3.8980906279     1.3853587472
   30      H       4.4610634515    -3.5765999095    -0.2839730670
   31      H       4.7617774140    -1.5453097555     1.6488688026
   32      O      -1.3313475242     1.9359399946     1.8384993933
   33      C      -0.9078764936    -2.0722404885    -1.9687723912
   34      C      -4.6100309961    -0.6621670211    -0.4998758731
   35      C      -5.9789689869    -0.6686929465     0.2869362694
   36      C      -5.9731995307     0.7723768271     0.9191891969
   37      C      -4.6076965646     1.3429805487     0.3653161348
   38      O      -4.4932283660     0.7347077149    -0.9786792215
   39      H      -3.6789018825    -1.5394186981     1.3340531274
   40      H      -3.6175248900     0.6504502457     2.2629447779
   41      H      -0.4116034667    -2.9184898773    -1.4523176812
   42      H      -4.5379886866    -1.3707560111    -1.3467501570
   43      H      -6.8218034086    -0.7990200613    -0.4103952432
   44      H      -6.0213138228    -1.4671918972     1.0449082578
   45      H      -6.8185091906     1.3774654415     0.5548574750
   46      H      -5.9990362579     0.7556720861     2.0205293377
   47      H      -4.5501908601     2.4466379403     0.2977966881
   48      H      -0.2415688270    -1.1758030206    -1.9479118057
   49      H      -1.1347976162    -2.3644808302    -3.0100446786
   50      H       4.4956445124     2.6188741233     2.4056698997
   51      H       4.2811810220     3.0704682413     0.6662654406
   52      H       5.8772149395     2.4659783967     1.2449762294
   53      H      -0.6710584813     1.5387415182    -2.7870338242
   54      H       0.8573657194     2.4263934344    -2.3677909600
   55      H       0.1067234709     2.2148117608     0.1617066593
   56      H      -0.8171945021     3.3512036522    -0.8887418093
 ----------------------------------------------------------------

    9   -1510.2988215983      3.04E-09 Convergence criterion met
 Total energy in the final basis set = -1510.29882160
 Final energy is   -1510.29882159827
 **  OPTIMIZATION CONVERGED  **

                    Orbital Energies (a.u.)
 --------------------------------------------------------------

 Alpha MOs
 -- Occupied --
-18.949 -18.944 -18.930 -18.916 -18.891 -18.889 -18.881 -18.876
-18.876 -18.852 -10.110 -10.109 -10.099 -10.084 -10.083 -10.072
-10.062 -10.060 -10.051 -10.049 -10.048 -10.041 -10.038 -10.037
-10.034 -10.027 -10.022 -10.021 -10.012 -10.011  -1.025  -1.018
 -1.008  -0.992  -0.971  -0.958  -0.949  -0.942  -0.935  -0.918
 -0.765  -0.756  -0.729  -0.720  -0.713  -0.704  -0.692  -0.660
 -0.646  -0.618  -0.598  -0.579  -0.548  -0.539  -0.536  -0.529
 -0.517  -0.506  -0.494  -0.474  -0.470  -0.456  -0.444  -0.437
 -0.435  -0.432  -0.426  -0.415  -0.411  -0.406  -0.403  -0.397
 -0.395  -0.384  -0.374  -0.369  -0.361  -0.358  -0.353  -0.352
 -0.341  -0.333  -0.333  -0.330  -0.323  -0.322  -0.314  -0.312
 -0.306  -0.305  -0.300  -0.299  -0.295  -0.292  -0.277  -0.273
 -0.271  -0.262  -0.249  -0.248  -0.236  -0.235  -0.221  -0.193
 -0.182  -0.172  -0.162  -0.161  -0.158  -0.151  -0.145  -0.135
 -0.132

          Ground-State Mulliken Net Atomic Charges

     Atom                 Charge (a.u.)
  ----------------------------------------
      1 O                    -0.218414
      2 C                     0.222483
      3 C                    -0.077225
      4 C                    -0.078918
      5 C                     0.212066
      6 O                    -0.174517
      7 C                    -0.052464
      8 C                    -0.046954
      9 O                    -0.173074
     10 C                     0.219276
     11 C                    -0.081077
     12 C                    -0.081502
     13 C                     0.212163
     14 O                    -0.223271
     15 O                    -0.165522
     16 O                    -0.167278
     17 O                    -0.204203
     18 C                    -0.127107
     19 C                     0.005956
     20 C                    -0.145587
     21 C                    -0.145050
     22 C                     0.026693
     23 O                    -0.187260
     24 H                     0.082824
     25 H                     0.080947
     26 H                     0.113371
     27 H                     0.074693
     28 H                     0.067287
     29 H                     0.075844
     30 H                     0.070736
     31 H                     0.084300
     32 O                    -0.208318
     33 C                    -0.146857
     34 C                     0.023727
     35 C                    -0.144093
     36 C                    -0.144065
     37 C                     0.026168
     38 O                    -0.187044
     39 H                     0.085574
     40 H                     0.086265
     41 H                     0.080125
     42 H                     0.092647
     43 H                     0.077962
     44 H                     0.073249
     45 H                     0.078096
     46 H                     0.074363
     47 H                     0.082616
     48 H                     0.114947
     49 H                     0.084800
     50 H                     0.088007
     51 H                     0.090963
     52 H                     0.084981
     53 H                     0.097796
     54 H                     0.097171
     55 H                     0.106440
     56 H                     0.085263
  ----------------------------------------
  Sum of atomic charges =    -0.000000

                    Cartesian Multipole Moments
 -----------------------------------------------------------------
    Charge (ESU x 10^10)
                -0.0000
    Dipole Moment (Debye)
         X      -2.6675      Y      -1.6124      Z      -1.1512
       Tot       3.3227
    Quadrupole Moments (Debye-Ang)
        XX    -156.4184     XY      -4.6008     YY    -151.1053
        XZ      -3.3960     YZ       1.6251     ZZ    -161.6614

 Total job time:  152.00s(wall), 7255.19s(cpu)
        *  Thank you very much for using Q-Chem.  Have a nice day.  *
