 Q-Chem 5.0, Q-Chem, Inc., Pleasanton, CA (2017)
 Q-Chem 5.0.1 for Intel X86 EM64T Linux

User input:
--------------------------------------------------------------
$molecule
0  1
O -3.94934 -3.66094 2.70899
C -3.26408 -4.56952 2.26188
C -3.36658 -6.02376 2.66595
C -4.29903 -6.36261 3.8405
C -5.16027 -5.23505 4.36488
O -6.16072 -4.96321 3.4757
C -7.02984 -3.91189 3.91001
C -7.95305 -3.48925 2.77195
O -7.21523 -2.73454 1.79782
C -7.12238 -1.40338 2.03972
C -6.26444 -0.68014 1.02901
C -6.64616 0.78769 0.78812
C -7.56571 1.40922 1.82002
O -8.31091 0.79305 2.56806
O -2.34669 -4.317 1.29405
O -7.68261 2.76408 1.77652
O -7.09609 -1.03969 3.21157
C -8.51342 3.50201 2.59363
C -4.78389 -0.52281 1.42045
C -3.9431 -0.27841 0.16096
C -4.3331 1.13788 -0.1786
C -5.26352 1.44525 0.99077
O -4.72223 0.72038 2.06695
H -6.32516 -1.25916 0.07886
H -7.0671 1.00092 -0.21896
H -4.39468 -1.38363 1.99249
H -2.87142 -0.2796 0.46095
H -4.10623 -1.00229 -0.66502
H -3.42432 1.77815 -0.12073
H -4.83373 1.2746 -1.16163
H -5.31496 2.54695 1.13344
O -5.09227 -4.7944 5.50625
C -2.15387 -3.10035 0.69063
C -3.95848 -6.92553 1.567
C -3.49924 -8.36808 1.77837
C -4.31289 -8.75049 2.99982
C -5.14423 -7.4775 3.19231
O -5.32926 -7.00098 1.8789
H -2.32458 -6.33924 2.90163
H -3.71311 -6.73565 4.7107
H -1.89947 -2.32979 1.44915
H -3.70666 -6.58551 0.53876
H -3.86484 -8.9626 0.91062
H -2.40055 -8.50191 1.87768
H -4.97445 -9.60295 2.72798
H -3.72071 -9.00399 3.9056
H -6.06753 -7.69484 3.7731
H -3.07218 -2.83 0.13925
H -1.31949 -3.1819 -0.03549
H -8.40621 4.57773 2.34504
H -8.23418 3.35102 3.65835
H -9.57149 3.20213 2.4361
H -8.40331 -4.38805 2.29975
H -8.79898 -2.88357 3.17349
H -6.46331 -3.04023 4.30056
H -7.65787 -4.31199 4.73702
$end

$opt
CONSTRAINT
tors           1           2           3           4      -7.043
tors           3           4           5           6     +72.837
tors           4           5           6           7    +179.398
tors           5           6           7           8    +169.559
tors           6           7           8           9     -73.600
tors           7           8           9          10     -86.688
tors           8           9          10          11    +176.419
tors           9          10          11          12    +150.795
tors          11          12          13          14     -22.172
ENDCONSTRAINT
$end

$rem
JOBTYPE                   OPT
METHOD                    B3LYP
DFT_D                     d3_op
BASIS                     STO-3G
GEOM_OPT_MAX_CYCLES       100
GEOM_OPT_TOL_GRADIENT     300
GEOM_OPT_TOL_DISPLACEMENT 1200
GEOM_OPT_TOL_ENERGY       100
SYMMETRY                  False
THRESH                    12
SCF_CONVERGENCE           8
MAX_SUB_FILE_NUM          128
MEM_STATIC                400
MEM_TOTAL                 4000
$end
--------------------------------------------------------------

   16   -1510.1304353110      2.31E-09 Convergence criterion met
 Total energy in the final basis set = -1510.13043531
   13   -1510.2035886399      9.81E-09 Convergence criterion met
 Total energy in the final basis set = -1510.20358864
   14   -1510.2425946300      8.36E-09 Convergence criterion met
 Total energy in the final basis set = -1510.24259463
   14   -1510.2640273282      8.10E-09 Convergence criterion met
 Total energy in the final basis set = -1510.26402733
   14   -1510.2717011058      6.00E-09 Convergence criterion met
 Total energy in the final basis set = -1510.27170111
   14   -1510.2759145085      5.20E-09 Convergence criterion met
 Total energy in the final basis set = -1510.27591451
   13   -1510.2790009878      4.28E-09 Convergence criterion met
 Total energy in the final basis set = -1510.27900099
   13   -1510.2809350174      3.93E-09 Convergence criterion met
   11   -1510.2844509156      3.60E-09 Convergence criterion met
 Total energy in the final basis set = -1510.28445092
   10   -1510.2844829128      9.83E-09 Convergence criterion met
 Total energy in the final basis set = -1510.28448291
    9   -1510.2845062852      9.36E-09 Convergence criterion met
 Total energy in the final basis set = -1510.28450629
    9   -1510.2845246597      7.75E-09 Convergence criterion met
 Total energy in the final basis set = -1510.28452466
    9   -1510.2845310960      7.43E-09 Convergence criterion met
 Total energy in the final basis set = -1510.28453110
    9   -1510.2845339335      3.86E-09 Convergence criterion met
 Total energy in the final basis set = -1510.28453393

             Standard Nuclear Orientation (Angstroms)
    I     Atom           X                Y                Z
 ----------------------------------------------------------------
    1      O      -1.4118709402    -0.9069560927     0.8006760908
    2      C      -2.4589990435    -1.4754430863     0.4183786188
    3      C      -3.9197708652    -0.9132697119     0.3199242523
    4      C      -4.1405448335     0.5314862649     0.9281353075
    5      C      -2.8214080051     1.2497946169     1.3871668019
    6      O      -2.0879178166     1.6613469551     0.2308022935
    7      C      -0.8487859752     2.3528937113     0.6509307365
    8      C       0.0357881299     2.5387574939    -0.6270095174
    9      O       0.6279637481     1.2403721682    -1.0279294905
   10      C       1.8575323936     1.0213132569    -0.3262818814
   11      C       2.3742774765    -0.4033191790    -0.7295885545
   12      C       3.9438575836    -0.5642444236    -0.6899271347
   13      C       4.7587613479     0.7747137036    -0.7713699062
   14      O       4.3852541081     1.8752812712    -1.2296739066
   15      O      -2.5108862416    -2.8274996487    -0.0504967261
   16      O       6.0721448593     0.5312784816    -0.2527211713
   17      O       2.3287006877     1.8043763072     0.5255910116
   18      C       6.8785907519     1.7712476404    -0.3220577473
   19      C       1.9577370675    -1.3961242888     0.4425375762
   20      C       2.3111133075    -2.8831489989     0.0306035499
   21      C       3.8640291529    -2.9196365696     0.2811108904
   22      C       4.1339781677    -1.4097657307     0.6484023762
   23      O       2.9599242159    -1.0634283274     1.4825844754
   24      H       1.9385609302    -0.6852737648    -1.7035843016
   25      H       4.2711204489    -1.1747166583    -1.5531944604
   26      H       0.9219719235    -1.2410459075     0.8133271471
   27      H       1.7811831222    -3.6013890295     0.6752069226
   28      H       2.0475018697    -3.0913490257    -1.0188098869
   29      H       4.1170378331    -3.5718227685     1.1324745443
   30      H       4.4350139128    -3.2497496561    -0.6010785328
   31      H       5.0779581501    -1.2036467830     1.1884517494
   32      O      -2.4746016555     1.4834893889     2.5656631502
   33      C      -1.1585219373    -3.4269232615    -0.0466131891
   34      C      -4.4028835248    -0.6955149215    -1.1835718790
   35      C      -5.9818325469    -0.6821559510    -1.1797935425
   36      C      -6.2663288335     0.7189575443    -0.5213303669
   37      C      -4.7974153698     1.2683549658    -0.3174650611
   38      O      -4.0519060648     0.7112345171    -1.4702958993
   39      H      -4.5784041486    -1.6478594777     0.8181422716
   40      H      -4.8196668071     0.4946138533     1.7976826354
   41      H      -0.7015983742    -3.4015851939     0.9634662389
   42      H      -3.9344440193    -1.3778873115    -1.9191183269
   43      H      -6.3659163075    -0.7287314171    -2.2114781971
   44      H      -6.4068861852    -1.5210212129    -0.6060630800
   45      H      -6.8341432157     1.3768226350    -1.1982401133
   46      H      -6.8124014306     0.6377765903     0.4321194131
   47      H      -4.7066680640     2.3713363130    -0.2963326027
   48      H      -0.4824064261    -2.9045092018    -0.7529061216
   49      H      -1.2871716255    -4.4767892616    -0.3679994029
   50      H       7.8668105906     1.5167825567     0.1032706403
   51      H       6.4184847241     2.5895881339     0.2685871882
   52      H       7.0030566681     2.1202222328    -1.3676775271
   53      H      -0.5889046026     2.8766425241    -1.4782363093
   54      H       0.8342627345     3.2813012201    -0.4141672214
   55      H      -0.3005471073     1.7601665621     1.4144501374
   56      H      -1.0887164737     3.3454459476     1.0944453103
 ----------------------------------------------------------------

    9   -1510.2845345011      2.20E-09 Convergence criterion met
 Total energy in the final basis set = -1510.28453450
 Final energy is   -1510.28453450113
 **  OPTIMIZATION CONVERGED  **

                    Orbital Energies (a.u.)
 --------------------------------------------------------------

 Alpha MOs
 -- Occupied --
-18.940 -18.929 -18.921 -18.921 -18.889 -18.886 -18.882 -18.871
-18.863 -18.861 -10.106 -10.095 -10.090 -10.088 -10.070 -10.064
-10.062 -10.061 -10.060 -10.060 -10.054 -10.053 -10.040 -10.034
-10.033 -10.031 -10.021 -10.020 -10.019 -10.017  -1.018  -1.008
 -1.003  -0.997  -0.970  -0.965  -0.942  -0.933  -0.927  -0.920
 -0.763  -0.759  -0.725  -0.720  -0.712  -0.704  -0.691  -0.668
 -0.657  -0.610  -0.597  -0.572  -0.546  -0.540  -0.538  -0.533
 -0.516  -0.506  -0.486  -0.466  -0.461  -0.454  -0.447  -0.440
 -0.434  -0.432  -0.419  -0.416  -0.413  -0.409  -0.406  -0.403
 -0.390  -0.380  -0.371  -0.365  -0.358  -0.354  -0.349  -0.343
 -0.341  -0.336  -0.331  -0.328  -0.327  -0.323  -0.315  -0.314
 -0.309  -0.306  -0.302  -0.297  -0.289  -0.284  -0.281  -0.274
 -0.267  -0.259  -0.251  -0.244  -0.237  -0.234  -0.228  -0.184
 -0.174  -0.167  -0.163  -0.158  -0.152  -0.144  -0.141  -0.139
 -0.138

          Ground-State Mulliken Net Atomic Charges

     Atom                 Charge (a.u.)
  ----------------------------------------
      1 O                    -0.208523
      2 C                     0.214185
      3 C                    -0.078322
      4 C                    -0.081197
      5 C                     0.211762
      6 O                    -0.168875
      7 C                    -0.046203
      8 C                    -0.048219
      9 O                    -0.171219
     10 C                     0.214125
     11 C                    -0.078212
     12 C                    -0.079950
     13 C                     0.212612
     14 O                    -0.210984
     15 O                    -0.171143
     16 O                    -0.172643
     17 O                    -0.212798
     18 C                    -0.128150
     19 C                     0.019241
     20 C                    -0.145854
     21 C                    -0.142544
     22 C                     0.025121
     23 O                    -0.188507
     24 H                     0.084689
     25 H                     0.082312
     26 H                     0.095476
     27 H                     0.074357
     28 H                     0.070263
     29 H                     0.077041
     30 H                     0.072467
     31 H                     0.090622
     32 O                    -0.217706
     33 C                    -0.128975
     34 C                     0.026469
     35 C                    -0.142993
     36 C                    -0.144803
     37 C                     0.027007
     38 O                    -0.184943
     39 H                     0.086220
     40 H                     0.083936
     41 H                     0.089840
     42 H                     0.085565
     43 H                     0.077958
     44 H                     0.073879
     45 H                     0.077858
     46 H                     0.073789
     47 H                     0.084024
     48 H                     0.089134
     49 H                     0.091236
     50 H                     0.089344
     51 H                     0.092155
     52 H                     0.087439
     53 H                     0.093906
     54 H                     0.097287
     55 H                     0.098908
     56 H                     0.082535
  ----------------------------------------
  Sum of atomic charges =    -0.000000

                    Cartesian Multipole Moments
 -----------------------------------------------------------------
    Charge (ESU x 10^10)
                -0.0000
    Dipole Moment (Debye)
         X      -1.0362      Y      -2.6066      Z      -1.8420
       Tot       3.3557
    Quadrupole Moments (Debye-Ang)
        XX    -136.1996     XY      -1.6731     YY    -150.1534
        XZ      -3.9567     YZ       0.5723     ZZ    -168.5591

 Total job time:  58.79s(wall), 2801.09s(cpu)
        *  Thank you very much for using Q-Chem.  Have a nice day.  *
