 Q-Chem 5.0, Q-Chem, Inc., Pleasanton, CA (2017)
 Q-Chem 5.0.1 for Intel X86 EM64T Linux

User input:
--------------------------------------------------------------
$molecule
0  1
O -3.94934 -3.66094 2.70899
C -3.26408 -4.56952 2.26188
C -3.36658 -6.02376 2.66595
C -4.29903 -6.36261 3.8405
C -5.16027 -5.23505 4.36488
O -6.08872 -4.88522 3.42625
C -7.11975 -4.03704 3.94281
C -7.96451 -3.48139 2.80099
O -7.25616 -2.42182 2.13884
C -7.29323 -1.21757 2.76139
C -6.4377 -0.17632 2.07984
C -7.02444 1.24284 2.07713
C -8.17 1.48608 3.03903
O -9.02693 0.66849 3.34195
O -2.38851 -4.29131 1.26079
O -8.37418 2.77881 3.4123
O -7.57708 -1.12479 3.95153
C -9.40723 3.20546 4.22076
C -5.09598 0.04646 2.80192
C -4.0749 0.6131 1.81944
C -4.63509 2.00389 1.61038
C -5.78446 1.99264 2.62811
O -5.33202 1.13947 3.64973
H -6.22501 -0.53366 1.04553
H -7.32473 1.62256 1.07635
H -4.6982 -0.87271 3.28582
H -3.11002 0.69454 2.36988
H -3.91669 0.02084 0.89247
H -3.85277 2.74117 1.8976
H -5.00618 2.21893 0.58489
H -6.00684 3.03632 2.93861
O -5.14127 -4.84405 5.52606
C -2.1937 -3.03268 0.73033
C -3.96352 -6.92003 1.56509
C -3.51582 -8.36661 1.77501
C -4.33845 -8.7459 2.99118
C -5.15602 -7.4648 3.18661
O -5.33515 -6.9836 1.87433
H -2.32411 -6.34089 2.89578
H -3.72124 -6.7484 4.7105
H -1.84001 -2.33474 1.51929
H -3.707 -6.58098 0.53769
H -3.88027 -8.95762 0.9044
H -2.41844 -8.50663 1.88026
H -5.01019 -9.58798 2.71188
H -3.75295 -9.01291 3.89741
H -6.08263 -7.67413 3.76519
H -3.14059 -2.65155 0.29103
H -1.42616 -3.08888 -0.06846
H -9.32738 4.30249 4.36429
H -9.34515 2.70919 5.21289
H -10.38548 2.97699 3.74639
H -8.19694 -4.29826 2.0851
H -8.9402 -3.10181 3.18362
H -6.71658 -3.21923 4.57524
H -7.77659 -4.6686 4.58155
$end

$opt
CONSTRAINT
tors           1           2           3           4      -7.043
tors           3           4           5           6     +67.612
tors           4           5           6           7    +167.193
tors           5           6           7           8    +169.559
tors           6           7           8           9     -76.776
tors           7           8           9          10     -79.716
tors           8           9          10          11    +175.198
tors           9          10          11          12    +142.890
tors          11          12          13          14     -34.615
ENDCONSTRAINT
$end

$rem
JOBTYPE                   OPT
METHOD                    B3LYP
DFT_D                     d3_op
BASIS                     STO-3G
GEOM_OPT_MAX_CYCLES       100
GEOM_OPT_TOL_GRADIENT     300
GEOM_OPT_TOL_DISPLACEMENT 1200
GEOM_OPT_TOL_ENERGY       100
SYMMETRY                  False
THRESH                    12
SCF_CONVERGENCE           8
MAX_SUB_FILE_NUM          128
MEM_STATIC                400
MEM_TOTAL                 4000
$end
--------------------------------------------------------------

   16   -1510.1442680234      1.96E-09 Convergence criterion met
 Total energy in the final basis set = -1510.14426802
   14   -1510.2146891105      5.83E-09 Convergence criterion met
 Total energy in the final basis set = -1510.21468911
   14   -1510.2523722179      7.18E-09 Convergence criterion met
 Total energy in the final basis set = -1510.25237222
   14   -1510.2692332030      7.53E-09 Convergence criterion met
 Total energy in the final basis set = -1510.26923320
   14   -1510.2754930766      3.95E-09 Convergence criterion met
 Total energy in the final basis set = -1510.27549308
   13   -1510.2779992041      4.69E-09 Convergence criterion met
 Total energy in the final basis set = -1510.27799920
   13   -1510.2793305844      2.40E-09 Convergence criterion met
 Total energy in the final basis set = -1510.27933058
   12   -1510.2798612869      8.79E-09 Convergence criterion met
   12   -1510.2812872729      6.95E-09 Convergence criterion met
 Total energy in the final basis set = -1510.28128727
   12   -1510.2814094781      3.79E-09 Convergence criterion met
 Total energy in the final basis set = -1510.28140948
   12   -1510.2814687240      2.81E-09 Convergence criterion met
 Total energy in the final basis set = -1510.28146872
   11   -1510.2815074822      4.20E-09 Convergence criterion met
 Total energy in the final basis set = -1510.28150748
   11   -1510.2815288196      3.25E-09 Convergence criterion met
 Total energy in the final basis set = -1510.28152882
    9   -1510.2815361171      9.14E-09 Convergence criterion met
 Total energy in the final basis set = -1510.28153612

             Standard Nuclear Orientation (Angstroms)
    I     Atom           X                Y                Z
 ----------------------------------------------------------------
    1      O      -1.6165867161    -1.0941378144     0.7637294953
    2      C      -2.7063561955    -1.5250827601     0.3247215569
    3      C      -4.0988976503    -0.8055315671     0.3064398181
    4      C      -4.1182491596     0.5731680974     1.0887054152
    5      C      -2.6809724297     1.0986376450     1.4560956128
    6      O      -2.0005754261     1.4558825079     0.2467437130
    7      C      -0.7815959472     2.2320986276     0.5574259124
    8      C       0.0226215720     2.3374551634    -0.7838658552
    9      O       0.7141099473     1.0596304045    -1.0723756661
   10      C       1.9192696061     0.9287159403    -0.3151616271
   11      C       2.4696182056    -0.5069709046    -0.6251106123
   12      C       4.0421357847    -0.6298809233    -0.7315537529
   13      C       4.7940583252     0.7476488438    -0.8053357577
   14      O       4.3953593469     1.7926464780    -1.3632001871
   15      O      -2.8557202493    -2.8057679911    -0.2961033691
   16      O       6.0660872788     0.6234046342    -0.1611793480
   17      O       2.3476066849     1.7789345974     0.4937575985
   18      C       6.7937729615     1.9110871778    -0.2296400048
   19      C       2.1881824975    -1.4420867946     0.6311034099
   20      C       2.4392445327    -2.9462068460     0.2157465898
   21      C       4.0120517952    -3.0077604111     0.2182606052
   22      C       4.3696015974    -1.5062135160     0.5542234094
   23      O       3.3214990453    -1.1230693928     1.5285031378
   24      H       1.9629776411    -0.8765207177    -1.5333311707
   25      H       4.3104749596    -1.1881368552    -1.6485782033
   26      H       1.2174548814    -1.2500330727     1.1305356918
   27      H       2.0035342608    -3.6308036078     0.9606385416
   28      H       2.0058314858    -3.1764335745    -0.7706623862
   29      H       4.3869929075    -3.6768542302     1.0092492310
   30      H       4.4296270067    -3.3334562389    -0.7478494282
   31      H       5.3788128275    -1.3316345954     0.9734904523
   32      O      -2.2331768405     1.2931250618     2.6070264729
   33      C      -1.5457664412    -3.4973323098    -0.3407067036
   34      C      -4.6089541954    -0.3607643375    -1.1353542011
   35      C      -6.1790341519    -0.2165423128    -1.0480232517
   36      C      -6.3069960890     1.0899869828    -0.1787143851
   37      C      -4.7895963434     1.5031473552    -0.0109445838
   38      O      -4.1552537358     1.0400949063    -1.2678411233
   39      H      -4.8264492098    -1.5115764946     0.7477254956
   40      H      -4.7116426573     0.5088444380     2.0169598657
   41      H      -1.1378848498    -3.6669010861     0.6766930021
   42      H      -4.2310120476    -0.9799173543    -1.9719631664
   43      H      -6.6052420063    -0.0739479158    -2.0539881986
   44      H      -6.6572028263    -1.0921018406    -0.5803495299
   45      H      -6.8675563779     1.8770567126    -0.7072811411
   46      H      -6.7906920473     0.9045805663     0.7937128710
   47      H      -4.6112473405     2.5862155965     0.1333813228
   48      H      -0.7999756994    -2.9199543976    -0.9247014851
   49      H      -1.7307599613    -4.4697589645    -0.8329028557
   50      H       7.7455824310     1.7522543518     0.3099655301
   51      H       6.2213631452     2.7272033299     0.2564580388
   52      H       7.0056982701     2.2056269171    -1.2779697105
   53      H      -0.6741451051     2.5088209718    -1.6287639311
   54      H       0.7525232679     3.1731477096    -0.7161482044
   55      H      -0.1695291004     1.7368289713     1.3415789543
   56      H      -1.0512783011     3.2487264721     0.9222908161
 ----------------------------------------------------------------

    9   -1510.2815355207      9.64E-09 Convergence criterion met
 Total energy in the final basis set = -1510.28153552
 Final energy is   -1510.28153552070
 **  OPTIMIZATION CONVERGED  **

                    Orbital Energies (a.u.)
 --------------------------------------------------------------

 Alpha MOs
 -- Occupied --
-18.940 -18.931 -18.922 -18.916 -18.889 -18.884 -18.883 -18.869
-18.863 -18.859 -10.104 -10.095 -10.090 -10.088 -10.069 -10.065
-10.062 -10.061 -10.061 -10.060 -10.054 -10.053 -10.039 -10.033
-10.033 -10.030 -10.021 -10.020 -10.018 -10.017  -1.018  -1.008
 -1.002  -0.996  -0.970  -0.965  -0.941  -0.933  -0.927  -0.920
 -0.763  -0.758  -0.725  -0.719  -0.711  -0.704  -0.690  -0.667
 -0.657  -0.610  -0.596  -0.574  -0.546  -0.540  -0.538  -0.533
 -0.514  -0.506  -0.486  -0.467  -0.463  -0.453  -0.444  -0.439
 -0.434  -0.430  -0.419  -0.415  -0.413  -0.408  -0.407  -0.404
 -0.390  -0.378  -0.372  -0.363  -0.358  -0.353  -0.349  -0.344
 -0.342  -0.335  -0.331  -0.329  -0.327  -0.324  -0.316  -0.315
 -0.307  -0.305  -0.301  -0.297  -0.289  -0.286  -0.282  -0.274
 -0.267  -0.259  -0.250  -0.241  -0.236  -0.234  -0.229  -0.184
 -0.174  -0.166  -0.163  -0.155  -0.152  -0.143  -0.140  -0.139
 -0.138

          Ground-State Mulliken Net Atomic Charges

     Atom                 Charge (a.u.)
  ----------------------------------------
      1 O                    -0.206642
      2 C                     0.212745
      3 C                    -0.078952
      4 C                    -0.080827
      5 C                     0.212994
      6 O                    -0.171340
      7 C                    -0.047022
      8 C                    -0.046784
      9 O                    -0.172425
     10 C                     0.213520
     11 C                    -0.078603
     12 C                    -0.079697
     13 C                     0.213014
     14 O                    -0.212730
     15 O                    -0.170095
     16 O                    -0.170934
     17 O                    -0.213679
     18 C                    -0.127631
     19 C                     0.023828
     20 C                    -0.144422
     21 C                    -0.143436
     22 C                     0.023840
     23 O                    -0.188147
     24 H                     0.085017
     25 H                     0.082693
     26 H                     0.090878
     27 H                     0.075962
     28 H                     0.070589
     29 H                     0.077249
     30 H                     0.071970
     31 H                     0.092255
     32 O                    -0.218755
     33 C                    -0.128426
     34 C                     0.026395
     35 C                    -0.142398
     36 C                    -0.145024
     37 C                     0.026824
     38 O                    -0.184430
     39 H                     0.085026
     40 H                     0.084134
     41 H                     0.089598
     42 H                     0.086039
     43 H                     0.078048
     44 H                     0.073846
     45 H                     0.077882
     46 H                     0.073862
     47 H                     0.082795
     48 H                     0.089774
     49 H                     0.091079
     50 H                     0.089772
     51 H                     0.093393
     52 H                     0.087371
     53 H                     0.096711
     54 H                     0.093678
     55 H                     0.098500
     56 H                     0.081122
  ----------------------------------------
  Sum of atomic charges =    -0.000000

                    Cartesian Multipole Moments
 -----------------------------------------------------------------
    Charge (ESU x 10^10)
                -0.0000
    Dipole Moment (Debye)
         X      -1.3613      Y      -2.3965      Z      -1.9068
       Tot       3.3515
    Quadrupole Moments (Debye-Ang)
        XX    -135.8490     XY      -2.2114     YY    -149.4601
        XZ      -4.9831     YZ       1.4390     ZZ    -168.6371

 Total job time:  51.07s(wall), 2429.92s(cpu)
        *  Thank you very much for using Q-Chem.  Have a nice day.  *
