 Q-Chem 5.0, Q-Chem, Inc., Pleasanton, CA (2017)
 Q-Chem 5.0.1 for Intel X86 EM64T Linux

User input:
--------------------------------------------------------------
$molecule
0  1
O -1.6165867161 -1.0941378144 0.7637294953
C -2.7063561955 -1.5250827601 0.3247215569
C -4.0988976503 -0.8055315671 0.3064398181
C -4.1182491596 0.5731680974 1.0887054152
C -2.6809724297 1.098637645 1.4560956128
O -2.0005754261 1.4558825079 0.246743713
C -0.7815959472 2.2320986276 0.5574259124
C 0.022621572 2.3374551634 -0.7838658552
O 0.7141099473 1.0596304045 -1.0723756661
C 1.9192696061 0.9287159403 -0.3151616271
C 2.4696182056 -0.5069709046 -0.6251106123
C 4.0421357847 -0.6298809233 -0.7315537529
C 4.7940583252 0.7476488438 -0.8053357577
O 4.3953593469 1.792646478 -1.3632001871
O -2.8557202493 -2.8057679911 -0.2961033691
O 6.0660872788 0.6234046342 -0.161179348
O 2.3476066849 1.7789345974 0.4937575985
C 6.7937729615 1.9110871778 -0.2296400048
C 2.1881824975 -1.4420867946 0.6311034099
C 2.4392445327 -2.946206846 0.2157465898
C 4.0120517952 -3.0077604111 0.2182606052
C 4.3696015974 -1.506213516 0.5542234094
O 3.3214990453 -1.1230693928 1.5285031378
H 1.9629776411 -0.8765207177 -1.5333311707
H 4.3104749596 -1.1881368552 -1.6485782033
H 1.2174548814 -1.2500330727 1.1305356918
H 2.0035342608 -3.6308036078 0.9606385416
H 2.0058314858 -3.1764335745 -0.7706623862
H 4.3869929075 -3.6768542302 1.009249231
H 4.4296270067 -3.3334562389 -0.7478494282
H 5.3788128275 -1.3316345954 0.9734904523
O -2.2331768405 1.2931250618 2.6070264729
C -1.5457664412 -3.4973323098 -0.3407067036
C -4.6089541954 -0.3607643375 -1.1353542011
C -6.1790341519 -0.2165423128 -1.0480232517
C -6.306996089 1.0899869828 -0.1787143851
C -4.7895963434 1.5031473552 -0.0109445838
O -4.1552537358 1.0400949063 -1.2678411233
H -4.8264492098 -1.5115764946 0.7477254956
H -4.7116426573 0.508844438 2.0169598657
H -1.1378848498 -3.6669010861 0.6766930021
H -4.2310120476 -0.9799173543 -1.9719631664
H -6.6052420063 -0.0739479158 -2.0539881986
H -6.6572028263 -1.0921018406 -0.5803495299
H -6.8675563779 1.8770567126 -0.7072811411
H -6.7906920473 0.9045805663 0.793712871
H -4.6112473405 2.5862155965 0.1333813228
H -0.7999756994 -2.9199543976 -0.9247014851
H -1.7307599613 -4.4697589645 -0.8329028557
H 7.745582431 1.7522543518 0.3099655301
H 6.2213631452 2.7272033299 0.2564580388
H 7.0056982701 2.2056269171 -1.2779697105
H -0.6741451051 2.5088209718 -1.6287639311
H 0.7525232679 3.1731477096 -0.7161482044
H -0.1695291004 1.7368289713 1.3415789543
H -1.0512783011 3.2487264721 0.9222908161
$end

$rem
JOBTYPE                   OPT
METHOD                    B3LYP
DFT_D                     d3_op
BASIS                     STO-3G
GEOM_OPT_MAX_CYCLES       100
GEOM_OPT_TOL_GRADIENT     300
GEOM_OPT_TOL_DISPLACEMENT 1200
GEOM_OPT_TOL_ENERGY       100
SYMMETRY                  False
THRESH                    12
SCF_CONVERGENCE           8
MAX_SUB_FILE_NUM          128
MEM_STATIC                400
MEM_TOTAL                 4000
$end
--------------------------------------------------------------

   16   -1510.2815343599      5.62E-09 Convergence criterion met
 Total energy in the final basis set = -1510.28153436
   14   -1510.2693193386      2.92E-09 Convergence criterion met
 Total energy in the final basis set = -1510.26931934
   14   -1510.2841944419      3.40E-09 Convergence criterion met
 Total energy in the final basis set = -1510.28419444
   13   -1510.2849381038      8.53E-09 Convergence criterion met
 Total energy in the final basis set = -1510.28493810
   13   -1510.2856361928      4.59E-09 Convergence criterion met
 Total energy in the final basis set = -1510.28563619
   14   -1510.2862598593      2.22E-09 Convergence criterion met
 Total energy in the final basis set = -1510.28625986
   13   -1510.2873182091      8.68E-09 Convergence criterion met
 Total energy in the final basis set = -1510.28731821
   14   -1510.2876468224      2.02E-09 Convergence criterion met
   11   -1510.2988461647      8.95E-09 Convergence criterion met
 Total energy in the final basis set = -1510.29884616
   11   -1510.2988774196      4.82E-09 Convergence criterion met
 Total energy in the final basis set = -1510.29887742
   11   -1510.2988821093      6.48E-09 Convergence criterion met
 Total energy in the final basis set = -1510.29888211
   11   -1510.2988756359      4.27E-09 Convergence criterion met
 Total energy in the final basis set = -1510.29887564
   10   -1510.2988719372      7.18E-09 Convergence criterion met
 Total energy in the final basis set = -1510.29887194
    9   -1510.2988740635      4.66E-09 Convergence criterion met
 Total energy in the final basis set = -1510.29887406

             Standard Nuclear Orientation (Angstroms)
    I     Atom           X                Y                Z
 ----------------------------------------------------------------
    1      O      -0.9633507763    -0.9887219192     0.5024184179
    2      C      -2.0729913620    -1.1366390770    -0.0652943200
    3      C      -3.4546061915    -0.7411721738     0.5710017873
    4      C      -3.4187724960     0.7079587706     1.2208213854
    5      C      -2.0615543776     1.4638716218     1.0183218379
    6      O      -1.8236567625     1.5930684146    -0.3921567660
    7      C      -0.5638341464     2.3303729980    -0.6403116244
    8      C       0.0946704138     1.7721075643    -1.9484792300
    9      O       0.7031512465     0.4342026673    -1.7629504335
   10      C       2.0059523261     0.5389292244    -1.1650201493
   11      C       2.5943790807    -0.8964087300    -0.9943089935
   12      C       4.0947137584    -0.9089116291    -0.4834043671
   13      C       4.6931178518     0.5203938372    -0.2007627525
   14      O       5.4346418107     1.1779614134    -0.9636405663
   15      O      -2.2630485834    -1.6949969993    -1.3548567957
   16      O       4.3416907420     0.9208309573     1.1287270619
   17      O       2.5336189767     1.6332506691    -0.8706920123
   18      C       4.8309945329     2.2936801261     1.3804141500
   19      C       1.8613138791    -1.7145803089     0.1633008508
   20      C       2.2051597347    -3.2410502311    -0.0481019098
   21      C       3.7078077236    -3.2858557947     0.4177758748
   22      C       3.9433270446    -1.7796473107     0.8356415721
   23      O       2.6304696479    -1.3568577594     1.3736881540
   24      H       2.4941442494    -1.4176583027    -1.9637388006
   25      H       4.7496228910    -1.3967364843    -1.2268785820
   26      H       0.7783121709    -1.4688548773     0.2890191060
   27      H       1.5659580357    -3.8678340966     0.5943629641
   28      H       2.0745175245    -3.5620473422    -1.0940367312
   29      H       3.8430877699    -3.9513247468     1.2850476486
   30      H       4.3928940581    -3.6063681929    -0.3835015948
   31      H       4.7420236087    -1.6165078582     1.5840801862
   32      O      -1.3105399253     1.9227865810     1.9053430469
   33      C      -0.9564595785    -1.9966387909    -1.9940942294
   34      C      -4.6340869511    -0.5797026554    -0.4753358402
   35      C      -5.9991181061    -0.5837689280     0.3184423259
   36      C      -5.9745471057     0.8468269014     0.9734307040
   37      C      -4.6042767433     1.4101783623     0.4241010330
   38      O      -4.5028599662     0.8238457044    -0.9306314661
   39      H      -3.7001345441    -1.5014353701     1.3359524193
   40      H      -3.6190244528     0.6694568582     2.3057502736
   41      H      -0.4632618874    -2.8581180483    -1.5003668060
   42      H      -4.5747541787    -1.2743609026    -1.3346310848
   43      H      -6.8468692113    -0.6942402935    -0.3763622676
   44      H      -6.0461805806    -1.3935694724     1.0640309488
   45      H      -6.8137721937     1.4674680013     0.6213366865
   46      H      -5.9975297377     0.8131509307     2.0744570070
   47      H      -4.5334090427     2.5140335862     0.3753074204
   48      H      -0.2831613178    -1.1059803650    -1.9576723747
   49      H      -1.1930881284    -2.2636234722    -3.0399834968
   50      H       4.5555845286     2.5299282884     2.4246695200
   51      H       4.3492207912     3.0206425720     0.6948942460
   52      H       5.9312215299     2.3675311595     1.2584538789
   53      H      -0.6808887238     1.6427549462    -2.7305647254
   54      H       0.8641926616     2.4943211908    -2.2964707016
   55      H       0.1181159208     2.2311324386     0.2314494574
   56      H      -0.7875745925     3.4105969200    -0.7873266291
 ----------------------------------------------------------------

    9   -1510.2988745511      2.20E-09 Convergence criterion met
 Total energy in the final basis set = -1510.29887455
 Final energy is   -1510.29887455106
 **  OPTIMIZATION CONVERGED  **

                    Orbital Energies (a.u.)
 --------------------------------------------------------------

 Alpha MOs
 -- Occupied --
-18.949 -18.944 -18.930 -18.916 -18.891 -18.889 -18.881 -18.876
-18.876 -18.852 -10.110 -10.110 -10.099 -10.084 -10.083 -10.072
-10.062 -10.060 -10.051 -10.049 -10.048 -10.041 -10.038 -10.037
-10.034 -10.027 -10.022 -10.021 -10.012 -10.011  -1.025  -1.018
 -1.008  -0.992  -0.971  -0.958  -0.949  -0.942  -0.935  -0.918
 -0.765  -0.756  -0.729  -0.720  -0.713  -0.704  -0.692  -0.660
 -0.646  -0.617  -0.598  -0.579  -0.548  -0.539  -0.536  -0.529
 -0.517  -0.506  -0.493  -0.474  -0.470  -0.456  -0.444  -0.436
 -0.435  -0.432  -0.426  -0.415  -0.411  -0.406  -0.403  -0.397
 -0.395  -0.384  -0.374  -0.369  -0.361  -0.358  -0.353  -0.351
 -0.341  -0.333  -0.333  -0.330  -0.323  -0.322  -0.314  -0.312
 -0.306  -0.305  -0.300  -0.299  -0.295  -0.291  -0.277  -0.273
 -0.271  -0.262  -0.249  -0.248  -0.237  -0.235  -0.221  -0.193
 -0.182  -0.172  -0.162  -0.161  -0.158  -0.151  -0.145  -0.135
 -0.132

          Ground-State Mulliken Net Atomic Charges

     Atom                 Charge (a.u.)
  ----------------------------------------
      1 O                    -0.218151
      2 C                     0.222474
      3 C                    -0.077195
      4 C                    -0.078958
      5 C                     0.212078
      6 O                    -0.174643
      7 C                    -0.052488
      8 C                    -0.047054
      9 O                    -0.173070
     10 C                     0.219281
     11 C                    -0.081030
     12 C                    -0.081508
     13 C                     0.212200
     14 O                    -0.223262
     15 O                    -0.165498
     16 O                    -0.167337
     17 O                    -0.204155
     18 C                    -0.127081
     19 C                     0.005954
     20 C                    -0.145616
     21 C                    -0.145047
     22 C                     0.026662
     23 O                    -0.187297
     24 H                     0.082809
     25 H                     0.080957
     26 H                     0.113326
     27 H                     0.074723
     28 H                     0.067265
     29 H                     0.075815
     30 H                     0.070708
     31 H                     0.084325
     32 O                    -0.208388
     33 C                    -0.146794
     34 C                     0.023677
     35 C                    -0.144121
     36 C                    -0.144045
     37 C                     0.026203
     38 O                    -0.187050
     39 H                     0.085626
     40 H                     0.086202
     41 H                     0.080151
     42 H                     0.092650
     43 H                     0.077973
     44 H                     0.073249
     45 H                     0.078074
     46 H                     0.074337
     47 H                     0.082688
     48 H                     0.115023
     49 H                     0.084867
     50 H                     0.088035
     51 H                     0.090979
     52 H                     0.084830
     53 H                     0.097690
     54 H                     0.097347
     55 H                     0.106417
     56 H                     0.085194
  ----------------------------------------
  Sum of atomic charges =    -0.000000

                    Cartesian Multipole Moments
 -----------------------------------------------------------------
    Charge (ESU x 10^10)
                -0.0000
    Dipole Moment (Debye)
         X      -2.6959      Y      -1.5590      Z      -1.1520
       Tot       3.3205
    Quadrupole Moments (Debye-Ang)
        XX    -156.5024     XY      -4.4540     YY    -151.0537
        XZ      -3.4440     YZ       1.8987     ZZ    -161.6525

 Total job time:  106.24s(wall), 5070.74s(cpu)
        *  Thank you very much for using Q-Chem.  Have a nice day.  *
