 Q-Chem 5.0, Q-Chem, Inc., Pleasanton, CA (2017)
 Q-Chem 5.0.1 for Intel X86 EM64T Linux

User input:
--------------------------------------------------------------
$molecule
0  1
O -1.3577398033 -0.9514387842 0.7534351605
C -2.4411212533 -1.5035821534 0.4562798345
C -3.8910798406 -0.9042164709 0.4210746039
C -4.0418206077 0.569150043 0.9823051122
C -2.6829074655 1.2629940263 1.3531884193
O -1.9948919187 1.6066145582 0.148660454
C -0.7817861208 2.3904649233 0.4705733396
C 0.0183647581 2.5420104311 -0.8669938414
O 0.6481420229 1.2485227239 -1.2255842004
C 1.8456205674 1.0477271446 -0.4669049952
C 2.4068217278 -0.3606651157 -0.8673226988
C 3.9640266491 -0.5265481741 -0.6744460939
C 4.7878601196 0.8088481806 -0.6433098317
O 4.4742324838 1.9180785654 -1.1247918788
O -2.5592460699 -2.8714565743 0.0505336469
O 6.0333779024 0.5500880492 0.017189575
O 2.2609838786 1.8321057041 0.4120915581
C 6.8514032967 1.7839950351 0.0486167896
C 1.8734257263 -1.3895143644 0.2270422709
C 2.2724770619 -2.8630800396 -0.1915334449
C 3.7918281871 -2.9077999586 0.2150839158
C 4.0192123471 -1.4098253785 0.6516171925
O 2.7659174025 -1.0870987949 1.3716951349
H 2.0711768959 -0.6087225095 -1.8890116461
H 4.3725855814 -1.1171106021 -1.5165421218
H 0.804234545 -1.2453059115 0.5009419278
H 1.6838683306 -3.6016693828 0.37398058
H 2.1183340988 -3.0397604629 -1.2683135477
H 3.9577463924 -3.584434309 1.0687498439
H 4.4508623249 -3.2130603124 -0.6131096036
H 4.903209106 -1.2205392457 1.2904260265
O -2.2827855449 1.5454013559 2.5037892766
C -1.2283312534 -3.5157534514 0.0031969875
C -4.4446962451 -0.7276631081 -1.0642314813
C -6.020352339 -0.6638019127 -0.9845344448
C -6.2296738924 0.7687111569 -0.3673830606
C -4.7370286703 1.2786973838 -0.257483596
O -4.0657316529 0.655382149 -1.4220487505
H -4.5389370609 -1.6029259499 0.9813016754
H -4.6795078649 0.5837723829 1.8832771793
H -0.694738288 -3.4250659053 0.9709998653
H -4.0346420595 -1.4516619092 -1.7949551988
H -6.4564576173 -0.7368435067 -1.9937307123
H -6.4414155001 -1.4665656763 -0.3587321136
H -6.8117886735 1.4187559912 -1.0396807995
H -6.7289860685 0.7381917787 0.6141506566
H -4.6132114584 2.378310251 -0.2838384299
H -0.5941544343 -3.0756780458 -0.7926755433
H -1.411903703 -4.5826215092 -0.2209234007
H 7.7819352939 1.5202146486 0.5841539943
H 6.3319732876 2.6034338271 0.5861646824
H 7.0990994018 2.1364685642 -0.9736741001
H -0.6704779669 2.7919492226 -1.6985500837
H 0.7853940938 3.3378203355 -0.7519496209
H -0.1602507811 1.8790339234 1.2362012172
H -1.0600393893 3.392964182 0.8664760244
$end

$rem
JOBTYPE                   OPT
METHOD                    B3LYP
DFT_D                     d3_op
BASIS                     STO-3G
GEOM_OPT_MAX_CYCLES       100
GEOM_OPT_TOL_GRADIENT     300
GEOM_OPT_TOL_DISPLACEMENT 1200
GEOM_OPT_TOL_ENERGY       100
SYMMETRY                  False
THRESH                    12
SCF_CONVERGENCE           8
MAX_SUB_FILE_NUM          128
MEM_STATIC                400
MEM_TOTAL                 4000
$end
--------------------------------------------------------------

   16   -1510.2846970148      5.57E-09 Convergence criterion met
 Total energy in the final basis set = -1510.28469701
   14   -1510.1740271948      7.96E-09 Convergence criterion met
 Total energy in the final basis set = -1510.17402719
   14   -1510.2852306822      8.84E-09 Convergence criterion met
 Total energy in the final basis set = -1510.28523068
   14   -1510.2859593704      1.62E-09 Convergence criterion met
 Total energy in the final basis set = -1510.28595937
   14   -1510.2862108990      1.71E-09 Convergence criterion met
 Total energy in the final basis set = -1510.28621090
   14   -1510.2868743751      2.00E-09 Convergence criterion met
 Total energy in the final basis set = -1510.28687438
   13   -1510.2866106507      7.62E-09 Convergence criterion met
 Total energy in the final basis set = -1510.28661065
   13   -1510.2872674355      4.43E-09 Convergence criterion met
   11   -1510.2988212766      6.40E-09 Convergence criterion met
 Total energy in the final basis set = -1510.29882128
   10   -1510.2988308580      8.06E-09 Convergence criterion met
 Total energy in the final basis set = -1510.29883086
   10   -1510.2988297978      8.63E-09 Convergence criterion met
 Total energy in the final basis set = -1510.29882980
    9   -1510.2988312819      7.90E-09 Convergence criterion met
 Total energy in the final basis set = -1510.29883128
    9   -1510.2988326265      4.62E-09 Convergence criterion met
 Total energy in the final basis set = -1510.29883263
    9   -1510.2988304813      2.89E-09 Convergence criterion met
 Total energy in the final basis set = -1510.29883048

             Standard Nuclear Orientation (Angstroms)
    I     Atom           X                Y                Z
 ----------------------------------------------------------------
    1      O      -0.9643165526    -0.9994204636     0.5169307713
    2      C      -2.0703689172    -1.1476231589    -0.0576201285
    3      C      -3.4542924472    -0.7339195612     0.5619188945
    4      C      -3.4160600448     0.7262734798     1.1862348477
    5      C      -2.0544390944     1.4727903061     0.9790423783
    6      O      -1.8034885706     1.5697933062    -0.4317630217
    7      C      -0.5392131590     2.2980127490    -0.6845870653
    8      C       0.1264959931     1.7134440225    -1.9774511508
    9      O       0.7283526389     0.3770454764    -1.7621626800
   10      C       2.0290257279     0.4881397559    -1.1607225428
   11      C       2.6089505666    -0.9463502738    -0.9564295443
   12      C       4.1041628620    -0.9566210157    -0.4302646325
   13      C       4.7063130066     0.4749753533    -0.1682490162
   14      O       5.4619130191     1.1130400636    -0.9338289174
   15      O      -2.2544524116    -1.7232203807    -1.3404505445
   16      O       4.3371484329     0.9049782782     1.1471646922
   17      O       2.5611453655     1.5858862134    -0.8880457465
   18      C       4.8263308976     2.2819328832     1.3757805414
   19      C       1.8597817010    -1.7382431430     0.2090118749
   20      C       2.1967319784    -3.2702736607     0.0288803863
   21      C       3.6945257375    -3.3147993232     0.5101240175
   22      C       3.9347095243    -1.8025560488     0.9029579590
   23      O       2.6192806164    -1.3625560717     1.4200344261
   24      H       2.5160071279    -1.4858287227    -1.9165739946
   25      H       4.7641655605    -1.4612836059    -1.1578406075
   26      H       0.7769802947    -1.4843322246     0.3198419819
   27      H       1.5478390687    -3.8817471013     0.6763134269
   28      H       2.0740771894    -3.6090342018    -1.0123754261
   29      H       3.8174915586    -3.9649440855     1.3907551074
   30      H       4.3854089092    -3.6537708490    -0.2784170296
   31      H       4.7269439967    -1.6305190563     1.6562928802
   32      O      -1.3096873570     1.9485866320     1.8624191735
   33      C      -0.9454765312    -2.0456785580    -1.9644081874
   34      C      -4.6261581614    -0.5853570790    -0.4949250811
   35      C      -5.9962545928    -0.5697072550     0.2900152688
   36      C      -5.9695694481     0.8721519378     0.9198734367
   37      C      -4.5931787131     1.4196574947     0.3697012636
   38      O      -4.4855246716     0.8092957151    -0.9738498604
   39      H      -3.7088772510    -1.4792510118     1.3385205104
   40      H      -3.6232682631     0.7081339993     2.2703738460
   41      H      -0.4624642702    -2.9020107122    -1.4520103111
   42      H      -4.5644093202    -1.2951021530    -1.3416617859
   43      H      -6.8401082362    -0.6888307179    -0.4080835467
   44      H      -6.0512664324    -1.3661599561     1.0492890595
   45      H      -6.8037002916     1.4900816724     0.5513331523
   46      H      -5.9997551857     0.8578861581     2.0211639585
   47      H      -4.5170527309     2.5221858342     0.3021598598
   48      H      -0.2654982282    -1.1597016796    -1.9387363112
   49      H      -1.1764126484    -2.3292504945    -3.0071962234
   50      H       4.5393012018     2.5405388574     2.4115968568
   51      H       4.3536891343     2.9950331926     0.6695903188
   52      H       5.9279971895     2.3514265820     1.2649710719
   53      H      -0.6437396668     1.5726237883    -2.7627817901
   54      H       0.9015148997     2.4261639800    -2.3326326280
   55      H       0.1363525792     2.2123863805     0.1935707825
   56      H      -0.7579131319     3.3761986316    -0.8527525523
 ----------------------------------------------------------------

    9   -1510.2988304834      5.01E-09 Convergence criterion met
 Total energy in the final basis set = -1510.29883048
 Final energy is   -1510.29883048342
 **  OPTIMIZATION CONVERGED  **

                    Orbital Energies (a.u.)
 --------------------------------------------------------------

 Alpha MOs
 -- Occupied --
-18.949 -18.944 -18.930 -18.916 -18.891 -18.889 -18.881 -18.876
-18.876 -18.852 -10.110 -10.110 -10.099 -10.084 -10.083 -10.072
-10.062 -10.060 -10.051 -10.049 -10.048 -10.041 -10.038 -10.037
-10.034 -10.027 -10.022 -10.021 -10.012 -10.011  -1.025  -1.018
 -1.008  -0.992  -0.972  -0.958  -0.949  -0.942  -0.935  -0.918
 -0.765  -0.756  -0.729  -0.720  -0.713  -0.704  -0.692  -0.660
 -0.646  -0.618  -0.598  -0.579  -0.548  -0.539  -0.536  -0.529
 -0.517  -0.506  -0.494  -0.474  -0.470  -0.456  -0.444  -0.437
 -0.435  -0.432  -0.426  -0.415  -0.411  -0.406  -0.403  -0.397
 -0.395  -0.384  -0.374  -0.369  -0.361  -0.358  -0.353  -0.352
 -0.341  -0.333  -0.333  -0.330  -0.323  -0.322  -0.314  -0.312
 -0.306  -0.305  -0.300  -0.299  -0.295  -0.292  -0.277  -0.273
 -0.271  -0.262  -0.249  -0.248  -0.237  -0.235  -0.221  -0.193
 -0.182  -0.172  -0.163  -0.161  -0.158  -0.151  -0.145  -0.135
 -0.132

          Ground-State Mulliken Net Atomic Charges

     Atom                 Charge (a.u.)
  ----------------------------------------
      1 O                    -0.218200
      2 C                     0.222520
      3 C                    -0.077200
      4 C                    -0.078962
      5 C                     0.212059
      6 O                    -0.174560
      7 C                    -0.052436
      8 C                    -0.047098
      9 O                    -0.173088
     10 C                     0.219293
     11 C                    -0.081032
     12 C                    -0.081510
     13 C                     0.212188
     14 O                    -0.223177
     15 O                    -0.165495
     16 O                    -0.167357
     17 O                    -0.204211
     18 C                    -0.127115
     19 C                     0.005899
     20 C                    -0.145616
     21 C                    -0.145057
     22 C                     0.026707
     23 O                    -0.187326
     24 H                     0.082820
     25 H                     0.080950
     26 H                     0.113423
     27 H                     0.074714
     28 H                     0.067254
     29 H                     0.075817
     30 H                     0.070724
     31 H                     0.084251
     32 O                    -0.208370
     33 C                    -0.146814
     34 C                     0.023714
     35 C                    -0.144130
     36 C                    -0.144039
     37 C                     0.026191
     38 O                    -0.187054
     39 H                     0.085602
     40 H                     0.086227
     41 H                     0.080135
     42 H                     0.092642
     43 H                     0.077967
     44 H                     0.073252
     45 H                     0.078088
     46 H                     0.074351
     47 H                     0.082660
     48 H                     0.115007
     49 H                     0.084840
     50 H                     0.088011
     51 H                     0.090954
     52 H                     0.084897
     53 H                     0.097711
     54 H                     0.097445
     55 H                     0.106313
     56 H                     0.085223
  ----------------------------------------
  Sum of atomic charges =    -0.000000

                    Cartesian Multipole Moments
 -----------------------------------------------------------------
    Charge (ESU x 10^10)
                -0.0000
    Dipole Moment (Debye)
         X      -2.7033      Y      -1.5640      Z      -1.1455
       Tot       3.3266
    Quadrupole Moments (Debye-Ang)
        XX    -156.6591     XY      -4.4688     YY    -150.8906
        XZ      -3.3368     YZ       1.7004     ZZ    -161.7436

 Total job time:  146.42s(wall), 6987.72s(cpu)
        *  Thank you very much for using Q-Chem.  Have a nice day.  *
