 Q-Chem 5.0, Q-Chem, Inc., Pleasanton, CA (2017)
 Q-Chem 5.0.1 for Intel X86 EM64T Linux

User input:
--------------------------------------------------------------
$molecule
0  1
O -3.94934 -3.66094 2.70899
C -3.26408 -4.56952 2.26188
C -3.36658 -6.02376 2.66595
C -4.29903 -6.36261 3.8405
C -5.16027 -5.23505 4.36488
O -6.16072 -4.96321 3.4757
C -7.10088 -3.99996 3.96303
C -8.06484 -3.59745 2.85177
O -7.39186 -2.75789 1.90039
C -7.25632 -1.45815 2.26295
C -6.49464 -0.64035 1.24723
C -6.81686 0.86113 1.25205
C -7.55739 1.37412 2.47073
O -8.24782 0.69625 3.21796
O -2.37134 -4.30771 1.27235
O -7.58469 2.72532 2.6263
O -7.07613 -1.22357 3.4505
C -8.25632 3.38062 3.63719
C -4.9717 -0.60322 1.46266
C -4.26952 -0.2577 0.14869
C -4.63692 1.20068 0.00561
C -5.38006 1.42171 1.32565
O -4.75113 0.5501 2.23068
H -6.71007 -1.0815 0.24684
H -7.35672 1.22268 0.34947
H -4.57345 -1.54064 1.8787
H -3.17395 -0.32169 0.3353
H -4.53433 -0.89932 -0.71905
H -3.69883 1.79887 -0.0224
H -5.2737 1.44856 -0.87114
H -5.34481 2.50026 1.59356
O -5.0992 -4.8088 5.51229
C -2.20001 -3.08024 0.67566
C -3.95998 -6.92458 1.56673
C -3.50166 -8.3676 1.77694
C -4.31504 -8.75013 2.99844
C -5.14528 -7.4766 3.19189
O -5.33062 -6.99923 1.87895
H -2.32412 -6.33954 2.89857
H -3.71397 -6.73758 4.71046
H -1.92135 -2.31777 1.43417
H -3.70845 -6.58454 0.53844
H -3.86809 -8.96132 0.90898
H -2.40302 -8.50233 1.87567
H -4.97736 -9.60194 2.72638
H -3.72269 -9.0046 3.90383
H -6.06853 -7.69362 3.77293
H -3.13537 -2.78972 0.15728
H -1.38882 -3.15182 -0.07732
H -8.10613 4.47387 3.5245
H -7.86014 3.06484 4.626
H -9.34392 3.16116 3.58025
H -8.4402 -4.514 2.34885
H -8.94942 -3.06463 3.2711
H -6.59407 -3.14922 4.45283
H -7.70273 -4.49841 4.75559
$end

$opt
CONSTRAINT
tors           1           2           3           4      -7.043
tors           3           4           5           6     +72.837
tors           4           5           6           7    +173.956
tors           5           6           7           8    +171.817
tors           6           7           8           9     -73.048
tors           7           8           9          10     -79.716
tors           8           9          10          11    +177.754
tors           9          10          11          12    +154.326
tors          11          12          13          14     -23.088
ENDCONSTRAINT
$end

$rem
JOBTYPE                   OPT
METHOD                    B3LYP
DFT_D                     d3_op
BASIS                     STO-3G
GEOM_OPT_MAX_CYCLES       100
GEOM_OPT_TOL_GRADIENT     300
GEOM_OPT_TOL_DISPLACEMENT 1200
GEOM_OPT_TOL_ENERGY       100
SYMMETRY                  False
THRESH                    12
SCF_CONVERGENCE           8
MAX_SUB_FILE_NUM          128
MEM_STATIC                400
MEM_TOTAL                 4000
$end
--------------------------------------------------------------

   16   -1510.1260881586      2.42E-09 Convergence criterion met
 Total energy in the final basis set = -1510.12608816
   14   -1510.1997138281      2.42E-09 Convergence criterion met
 Total energy in the final basis set = -1510.19971383
   14   -1510.2385555344      4.28E-09 Convergence criterion met
 Total energy in the final basis set = -1510.23855553
   15   -1510.2606450777      1.75E-09 Convergence criterion met
 Total energy in the final basis set = -1510.26064508
   14   -1510.2684597055      8.13E-09 Convergence criterion met
 Total energy in the final basis set = -1510.26845971
   14   -1510.2749368136      1.60E-09 Convergence criterion met
 Total energy in the final basis set = -1510.27493681
   13   -1510.2782321957      3.43E-09 Convergence criterion met
 Total energy in the final basis set = -1510.27823220
   12   -1510.2801398702      7.40E-09 Convergence criterion met
   11   -1510.2844933720      7.55E-09 Convergence criterion met
 Total energy in the final basis set = -1510.28449337
   10   -1510.2845471780      7.88E-09 Convergence criterion met
 Total energy in the final basis set = -1510.28454718
   11   -1510.2845921623      4.59E-09 Convergence criterion met
 Total energy in the final basis set = -1510.28459216
   10   -1510.2846259961      4.29E-09 Convergence criterion met
 Total energy in the final basis set = -1510.28462600
    9   -1510.2846358591      8.32E-09 Convergence criterion met
 Total energy in the final basis set = -1510.28463586
    9   -1510.2846388994      6.29E-09 Convergence criterion met
 Total energy in the final basis set = -1510.28463890

             Standard Nuclear Orientation (Angstroms)
    I     Atom           X                Y                Z
 ----------------------------------------------------------------
    1      O      -1.3577398033    -0.9514387842     0.7534351605
    2      C      -2.4411212533    -1.5035821534     0.4562798345
    3      C      -3.8910798406    -0.9042164709     0.4210746039
    4      C      -4.0418206077     0.5691500430     0.9823051122
    5      C      -2.6829074655     1.2629940263     1.3531884193
    6      O      -1.9948919187     1.6066145582     0.1486604540
    7      C      -0.7817861208     2.3904649233     0.4705733396
    8      C       0.0183647581     2.5420104311    -0.8669938414
    9      O       0.6481420229     1.2485227239    -1.2255842004
   10      C       1.8456205674     1.0477271446    -0.4669049952
   11      C       2.4068217278    -0.3606651157    -0.8673226988
   12      C       3.9640266491    -0.5265481741    -0.6744460939
   13      C       4.7878601196     0.8088481806    -0.6433098317
   14      O       4.4742324838     1.9180785654    -1.1247918788
   15      O      -2.5592460699    -2.8714565743     0.0505336469
   16      O       6.0333779024     0.5500880492     0.0171895750
   17      O       2.2609838786     1.8321057041     0.4120915581
   18      C       6.8514032967     1.7839950351     0.0486167896
   19      C       1.8734257263    -1.3895143644     0.2270422709
   20      C       2.2724770619    -2.8630800396    -0.1915334449
   21      C       3.7918281871    -2.9077999586     0.2150839158
   22      C       4.0192123471    -1.4098253785     0.6516171925
   23      O       2.7659174025    -1.0870987949     1.3716951349
   24      H       2.0711768959    -0.6087225095    -1.8890116461
   25      H       4.3725855814    -1.1171106021    -1.5165421218
   26      H       0.8042345450    -1.2453059115     0.5009419278
   27      H       1.6838683306    -3.6016693828     0.3739805800
   28      H       2.1183340988    -3.0397604629    -1.2683135477
   29      H       3.9577463924    -3.5844343090     1.0687498439
   30      H       4.4508623249    -3.2130603124    -0.6131096036
   31      H       4.9032091060    -1.2205392457     1.2904260265
   32      O      -2.2827855449     1.5454013559     2.5037892766
   33      C      -1.2283312534    -3.5157534514     0.0031969875
   34      C      -4.4446962451    -0.7276631081    -1.0642314813
   35      C      -6.0203523390    -0.6638019127    -0.9845344448
   36      C      -6.2296738924     0.7687111569    -0.3673830606
   37      C      -4.7370286703     1.2786973838    -0.2574835960
   38      O      -4.0657316529     0.6553821490    -1.4220487505
   39      H      -4.5389370609    -1.6029259499     0.9813016754
   40      H      -4.6795078649     0.5837723829     1.8832771793
   41      H      -0.6947382880    -3.4250659053     0.9709998653
   42      H      -4.0346420595    -1.4516619092    -1.7949551988
   43      H      -6.4564576173    -0.7368435067    -1.9937307123
   44      H      -6.4414155001    -1.4665656763    -0.3587321136
   45      H      -6.8117886735     1.4187559912    -1.0396807995
   46      H      -6.7289860685     0.7381917787     0.6141506566
   47      H      -4.6132114584     2.3783102510    -0.2838384299
   48      H      -0.5941544343    -3.0756780458    -0.7926755433
   49      H      -1.4119037030    -4.5826215092    -0.2209234007
   50      H       7.7819352939     1.5202146486     0.5841539943
   51      H       6.3319732876     2.6034338271     0.5861646824
   52      H       7.0990994018     2.1364685642    -0.9736741001
   53      H      -0.6704779669     2.7919492226    -1.6985500837
   54      H       0.7853940938     3.3378203355    -0.7519496209
   55      H      -0.1602507811     1.8790339234     1.2362012172
   56      H      -1.0600393893     3.3929641820     0.8664760244
 ----------------------------------------------------------------

    9   -1510.2846384742      2.59E-09 Convergence criterion met
 Total energy in the final basis set = -1510.28463847
 Final energy is   -1510.28463847424
 **  OPTIMIZATION CONVERGED  **

                    Orbital Energies (a.u.)
 --------------------------------------------------------------

 Alpha MOs
 -- Occupied --
-18.941 -18.928 -18.921 -18.921 -18.889 -18.888 -18.880 -18.869
-18.862 -18.861 -10.107 -10.094 -10.090 -10.088 -10.070 -10.065
-10.062 -10.060 -10.060 -10.059 -10.053 -10.049 -10.040 -10.034
-10.032 -10.029 -10.021 -10.020 -10.017 -10.015  -1.019  -1.007
 -1.003  -0.997  -0.971  -0.963  -0.943  -0.932  -0.927  -0.920
 -0.763  -0.757  -0.725  -0.719  -0.712  -0.703  -0.690  -0.668
 -0.656  -0.610  -0.596  -0.572  -0.546  -0.538  -0.538  -0.532
 -0.516  -0.505  -0.486  -0.466  -0.461  -0.452  -0.446  -0.440
 -0.434  -0.430  -0.420  -0.416  -0.414  -0.408  -0.405  -0.403
 -0.388  -0.381  -0.370  -0.364  -0.359  -0.353  -0.349  -0.342
 -0.341  -0.336  -0.332  -0.328  -0.328  -0.320  -0.315  -0.313
 -0.308  -0.306  -0.302  -0.296  -0.288  -0.284  -0.282  -0.274
 -0.266  -0.259  -0.250  -0.243  -0.237  -0.235  -0.226  -0.185
 -0.173  -0.167  -0.164  -0.158  -0.151  -0.144  -0.141  -0.137
 -0.137

          Ground-State Mulliken Net Atomic Charges

     Atom                 Charge (a.u.)
  ----------------------------------------
      1 O                    -0.207176
      2 C                     0.215140
      3 C                    -0.078097
      4 C                    -0.081213
      5 C                     0.211823
      6 O                    -0.169156
      7 C                    -0.047072
      8 C                    -0.046719
      9 O                    -0.171958
     10 C                     0.214532
     11 C                    -0.078393
     12 C                    -0.080132
     13 C                     0.212639
     14 O                    -0.211273
     15 O                    -0.170712
     16 O                    -0.172725
     17 O                    -0.212630
     18 C                    -0.128171
     19 C                     0.016727
     20 C                    -0.146435
     21 C                    -0.142608
     22 C                     0.024964
     23 O                    -0.189473
     24 H                     0.084641
     25 H                     0.081965
     26 H                     0.098208
     27 H                     0.073332
     28 H                     0.070318
     29 H                     0.076439
     30 H                     0.072081
     31 H                     0.090325
     32 O                    -0.216940
     33 C                    -0.129454
     34 C                     0.026425
     35 C                    -0.143032
     36 C                    -0.144807
     37 C                     0.027092
     38 O                    -0.185039
     39 H                     0.086478
     40 H                     0.084109
     41 H                     0.091197
     42 H                     0.085472
     43 H                     0.078055
     44 H                     0.074023
     45 H                     0.077911
     46 H                     0.073952
     47 H                     0.083824
     48 H                     0.089258
     49 H                     0.091615
     50 H                     0.089070
     51 H                     0.092161
     52 H                     0.087011
     53 H                     0.094737
     54 H                     0.094512
     55 H                     0.101129
     56 H                     0.082053
  ----------------------------------------
  Sum of atomic charges =    -0.000000

                    Cartesian Multipole Moments
 -----------------------------------------------------------------
    Charge (ESU x 10^10)
                 0.0000
    Dipole Moment (Debye)
         X      -1.2308      Y      -2.5110      Z      -1.7230
       Tot       3.2846
    Quadrupole Moments (Debye-Ang)
        XX    -135.8895     XY      -2.0521     YY    -149.8720
        XZ      -3.6770     YZ       0.4792     ZZ    -167.9185

 Total job time:  59.64s(wall), 2840.23s(cpu)
        *  Thank you very much for using Q-Chem.  Have a nice day.  *
