 Q-Chem 5.0, Q-Chem, Inc., Pleasanton, CA (2017)
 Q-Chem 5.0.1 for Intel X86 EM64T Linux

User input:
--------------------------------------------------------------
$molecule
0  1
O -1.3063904417 -0.9641172538 0.7149989736
C -2.3620172494 -1.4422058355 0.2399350393
C -3.835873509 -0.9286915744 0.419352747
C -3.9663038435 0.4984640373 1.095131072
C -2.5929274337 1.1994078054 1.3865571476
O -2.0060052358 1.5854817421 0.139618872
C -0.7395759698 2.3092772013 0.3836136528
C 0.0138852245 2.3749885441 -0.9887440316
O 0.6340631466 1.0592567292 -1.2842471318
C 1.8554644866 0.9173298599 -0.551795017
C 2.3877087392 -0.5375979517 -0.7863927823
C 3.9502122482 -0.6729965811 -0.6029165125
C 4.7430993657 0.6776313918 -0.730664132
O 4.4894721331 1.6316872137 -1.4971676003
O -2.4163228161 -2.5958129903 -0.6018030501
O 5.8707589477 0.6424150439 0.151308503
O 2.3268396237 1.7917460905 0.2067180762
C 6.63764349 1.9037567969 0.0367263073
C 1.8764590441 -1.4167751844 0.4398808541
C 2.2639640893 -2.9325784254 0.2035673021
C 3.7932815247 -2.9313722623 0.5723073804
C 4.0318108121 -1.3915749528 0.8148832092
O 2.7940606992 -0.9770431424 1.5177037133
H 2.0326775322 -0.9103570516 -1.7630913047
H 4.3542945168 -1.3462158083 -1.3828223165
H 0.8111720168 -1.2370820489 0.7087810854
H 1.6870462232 -3.5879729708 0.8750916603
H 2.0822991379 -3.2482015852 -0.8363812129
H 3.9833285645 -3.4986609027 1.497643617
H 4.4291586785 -3.337375708 -0.2305450456
H 4.9283871048 -1.1255052054 1.4063485057
O -2.107298664 1.4557195467 2.5095111345
C -1.0561463636 -3.1205376743 -0.8550645441
C -4.5704712768 -0.680454282 -0.9714138658
C -6.1267690451 -0.6561042804 -0.704363319
C -6.2870289005 0.737927067 0.0080287003
C -4.7984780894 1.2691458789 -0.0173602832
O -4.2549124449 0.7301106315 -1.2851893586
H -4.3776236896 -1.6926659348 1.0079306328
H -4.5153546677 0.4338489623 2.0506245674
H -0.5703669586 -3.4610061432 0.0811652186
H -4.2334642123 -1.3521179313 -1.7845395439
H -6.6788625095 -0.6879850233 -1.6572359113
H -6.4573596251 -1.498880569 -0.0766975194
H -6.946532248 1.4105808697 -0.5629860051
H -6.676780291 0.64814702 1.0346036452
H -4.6914166488 2.3705259513 0.0118237854
H -0.4097278909 -2.3577297721 -1.3341861526
H -1.1832351859 -3.9809199502 -1.5374670871
H 7.485499954 1.8101461519 0.7400047811
H 6.0189920965 2.7815055582 0.3141379925
H 7.0231563457 2.0562121425 -0.9922021279
H -0.7046551914 2.5712675883 -1.8094624508
H 0.785216766 3.1740820499 -0.9537817757
H -0.1185292017 1.7903996927 1.1445067311
H -0.9475026874 3.3381571993 0.754585192
$end

$rem
JOBTYPE                   OPT
METHOD                    B3LYP
DFT_D                     d3_op
BASIS                     STO-3G
GEOM_OPT_MAX_CYCLES       100
GEOM_OPT_TOL_GRADIENT     300
GEOM_OPT_TOL_DISPLACEMENT 1200
GEOM_OPT_TOL_ENERGY       100
SYMMETRY                  False
THRESH                    12
SCF_CONVERGENCE           8
MAX_SUB_FILE_NUM          128
MEM_STATIC                400
MEM_TOTAL                 4000
$end
--------------------------------------------------------------

   16   -1510.2872888143      6.00E-09 Convergence criterion met
 Total energy in the final basis set = -1510.28728881
   14   -1510.2362546620      5.34E-09 Convergence criterion met
 Total energy in the final basis set = -1510.23625466
   14   -1510.2873011509      5.07E-09 Convergence criterion met
 Total energy in the final basis set = -1510.28730115
   14   -1510.2840902351      4.93E-09 Convergence criterion met
 Total energy in the final basis set = -1510.28409024
   14   -1510.2871161886      2.36E-09 Convergence criterion met
 Total energy in the final basis set = -1510.28711619
   14   -1510.2883757687      6.55E-09 Convergence criterion met
 Total energy in the final basis set = -1510.28837577
   14   -1510.2882664440      2.56E-09 Convergence criterion met
 Total energy in the final basis set = -1510.28826644
   13   -1510.2902576024      4.89E-09 Convergence criterion met
   12   -1510.2988071888      2.66E-09 Convergence criterion met
 Total energy in the final basis set = -1510.29880719
   11   -1510.2988049140      6.73E-09 Convergence criterion met
 Total energy in the final basis set = -1510.29880491
   11   -1510.2988042963      5.72E-09 Convergence criterion met
 Total energy in the final basis set = -1510.29880430
   11   -1510.2987953722      5.08E-09 Convergence criterion met
 Total energy in the final basis set = -1510.29879537
   10   -1510.2988008046      4.73E-09 Convergence criterion met
 Total energy in the final basis set = -1510.29880080
    9   -1510.2987989870      6.42E-09 Convergence criterion met
 Total energy in the final basis set = -1510.29879899

             Standard Nuclear Orientation (Angstroms)
    I     Atom           X                Y                Z
 ----------------------------------------------------------------
    1      O      -0.9669931278    -0.9977977883     0.5511531166
    2      C      -2.0684611609    -1.1529512662    -0.0303484773
    3      C      -3.4578421744    -0.7374508683     0.5758352290
    4      C      -3.4302184533     0.7308264285     1.1812922335
    5      C      -2.0730685794     1.4836848239     0.9687750668
    6      O      -1.8109676410     1.5528739614    -0.4415999959
    7      C      -0.5521722363     2.2890163248    -0.6990324278
    8      C       0.1241710282     1.6925863881    -1.9808016747
    9      O       0.7344774400     0.3635314625    -1.7448231841
   10      C       2.0290397069     0.4913513508    -1.1335042889
   11      C       2.6164518246    -0.9366320274    -0.9061648399
   12      C       4.1083253227    -0.9310315911    -0.3703823561
   13      C       4.6996880565     0.5078804918    -0.1245640597
   14      O       5.4547015513     1.1406554302    -0.8951041155
   15      O      -2.2423373196    -1.7402610323    -1.3092902561
   16      O       4.3203816675     0.9535115825     1.1827202805
   17      O       2.5509813828     1.5961260398    -0.8697656962
   18      C       4.7960870040     2.3380564065     1.3934054506
   19      C       1.8642734582    -1.7170228222     0.2652188351
   20      C       2.2115241406    -3.2492715948     0.1069613233
   21      C       3.7061076765    -3.2788615739     0.5990598327
   22      C       3.9351995981    -1.7601380516     0.9730376910
   23      O       2.6140104203    -1.3209220670     1.4757761008
   24      H       2.5330795077    -1.4898326825    -1.8592975916
   25      H       4.7760124667    -1.4414936140    -1.0868437845
   26      H       0.7791514958    -1.4686090494     0.3661326932
   27      H       1.5616698519    -3.8565227208     0.7573905659
   28      H       2.0978422676    -3.6011750239    -0.9309032341
   29      H       3.8264083302    -3.9161589083     1.4894127080
   30      H       4.4043316405    -3.6248169904    -0.1799099526
   31      H       4.7216153653    -1.5734398843     1.7289981553
   32      O      -1.3399914109     1.9847432532     1.8479313766
   33      C      -0.9284528671    -2.0670039091    -1.9205739233
   34      C      -4.6249552792    -0.6085495157    -0.4890511813
   35      C      -5.9990929547    -0.5918752477     0.2886497443
   36      C      -5.9836981150     0.8571758430     0.9022721000
   37      C      -4.6082838058     1.4067655683     0.3516006319
   38      O      -4.4903749241     0.7810346773    -0.9840083075
   39      H      -3.7134427081    -1.4736327765     1.3607524438
   40      H      -3.6409641676     0.7259889211     2.2648847560
   41      H      -0.4458283597    -2.9145672752    -1.3934839617
   42      H      -4.5544526763    -1.3280162232    -1.3268436439
   43      H      -6.8386583103    -0.7234822455    -0.4123552368
   44      H      -6.0535334238    -1.3801192505     1.0564825360
   45      H      -6.8200303862     1.4658336538     0.5234560229
   46      H      -6.0181606781     0.8549675049     2.0035208765
   47      H      -4.5388694591     2.5088848977     0.2711972618
   48      H      -0.2515334971    -1.1784627587    -1.9029286654
   49      H      -1.1519878654    -2.3655847715    -2.9607726774
   50      H       4.5051967864     2.6078169862     2.4253003188
   51      H       4.3172405994     3.0367738680     0.6770671075
   52      H       5.8971422481     2.4167078630     1.2828290129
   53      H      -0.6408824238     1.5356759916    -2.7681277505
   54      H       0.8956810700     2.4063423416    -2.3415069995
   55      H       0.1209854701     2.2215105574     0.1825292431
   56      H      -0.7794746099     3.3629168709    -0.8826011458
 ----------------------------------------------------------------

    9   -1510.2987984891      6.34E-09 Convergence criterion met
 Total energy in the final basis set = -1510.29879849
 Final energy is   -1510.29879848914
 **  OPTIMIZATION CONVERGED  **

                    Orbital Energies (a.u.)
 --------------------------------------------------------------

 Alpha MOs
 -- Occupied --
-18.949 -18.944 -18.930 -18.916 -18.891 -18.889 -18.881 -18.876
-18.876 -18.852 -10.110 -10.109 -10.099 -10.084 -10.083 -10.072
-10.062 -10.060 -10.051 -10.049 -10.048 -10.041 -10.038 -10.037
-10.034 -10.027 -10.022 -10.021 -10.012 -10.011  -1.025  -1.018
 -1.008  -0.992  -0.972  -0.958  -0.949  -0.942  -0.935  -0.918
 -0.765  -0.756  -0.729  -0.720  -0.713  -0.704  -0.692  -0.660
 -0.646  -0.618  -0.598  -0.579  -0.548  -0.539  -0.536  -0.529
 -0.517  -0.506  -0.494  -0.474  -0.470  -0.456  -0.444  -0.437
 -0.435  -0.432  -0.426  -0.415  -0.411  -0.406  -0.403  -0.397
 -0.395  -0.384  -0.374  -0.369  -0.361  -0.358  -0.353  -0.352
 -0.341  -0.333  -0.333  -0.330  -0.323  -0.322  -0.314  -0.312
 -0.306  -0.305  -0.300  -0.299  -0.295  -0.292  -0.277  -0.273
 -0.271  -0.262  -0.249  -0.248  -0.237  -0.235  -0.221  -0.193
 -0.182  -0.172  -0.163  -0.161  -0.158  -0.151  -0.145  -0.135
 -0.132

          Ground-State Mulliken Net Atomic Charges

     Atom                 Charge (a.u.)
  ----------------------------------------
      1 O                    -0.218394
      2 C                     0.222538
      3 C                    -0.077219
      4 C                    -0.078954
      5 C                     0.212017
      6 O                    -0.174445
      7 C                    -0.052358
      8 C                    -0.047057
      9 O                    -0.173076
     10 C                     0.219289
     11 C                    -0.081053
     12 C                    -0.081515
     13 C                     0.212163
     14 O                    -0.223170
     15 O                    -0.165507
     16 O                    -0.167341
     17 O                    -0.204216
     18 C                    -0.127132
     19 C                     0.005883
     20 C                    -0.145605
     21 C                    -0.145060
     22 C                     0.026730
     23 O                    -0.187349
     24 H                     0.082846
     25 H                     0.080951
     26 H                     0.113469
     27 H                     0.074709
     28 H                     0.067258
     29 H                     0.075830
     30 H                     0.070737
     31 H                     0.084259
     32 O                    -0.208371
     33 C                    -0.146881
     34 C                     0.023738
     35 C                    -0.144122
     36 C                    -0.144043
     37 C                     0.026163
     38 O                    -0.187062
     39 H                     0.085563
     40 H                     0.086274
     41 H                     0.080103
     42 H                     0.092656
     43 H                     0.077963
     44 H                     0.073255
     45 H                     0.078103
     46 H                     0.074372
     47 H                     0.082609
     48 H                     0.114987
     49 H                     0.084790
     50 H                     0.087992
     51 H                     0.090960
     52 H                     0.084978
     53 H                     0.097781
     54 H                     0.097430
     55 H                     0.106248
     56 H                     0.085289
  ----------------------------------------
  Sum of atomic charges =    -0.000000

                    Cartesian Multipole Moments
 -----------------------------------------------------------------
    Charge (ESU x 10^10)
                -0.0000
    Dipole Moment (Debye)
         X      -2.6845      Y      -1.5909      Z      -1.1438
       Tot       3.3235
    Quadrupole Moments (Debye-Ang)
        XX    -156.5370     XY      -4.5608     YY    -150.9630
        XZ      -3.3208     YZ       1.4386     ZZ    -161.8665

 Total job time:  124.09s(wall), 5922.37s(cpu)
        *  Thank you very much for using Q-Chem.  Have a nice day.  *
