 Q-Chem 5.0, Q-Chem, Inc., Pleasanton, CA (2017)
 Q-Chem 5.0.1 for Intel X86 EM64T Linux

User input:
--------------------------------------------------------------
$molecule
0  1
O -3.94934 -3.66094 2.70899
C -3.26408 -4.56952 2.26188
C -3.36658 -6.02376 2.66595
C -4.57193 -6.42971 3.52977
C -5.63372 -5.37401 3.74466
O -6.31118 -5.15334 2.57943
C -7.37783 -4.20877 2.71839
C -7.8571 -3.75128 1.34466
O -6.92834 -2.80509 0.79238
C -7.03954 -1.53732 1.26093
C -5.95302 -0.62281 0.7473
C -6.32174 0.86764 0.71781
C -7.54688 1.26123 1.51833
O -8.55528 0.58283 1.65044
O -2.25147 -4.29458 1.4008
O -7.61414 2.56118 1.91745
O -7.5031 -1.35801 2.38059
C -8.6826 3.12068 2.5871
C -4.67443 -0.56146 1.60234
C -3.49876 -0.07606 0.74567
C -3.84541 1.37982 0.57856
C -5.09508 1.45483 1.45126
O -4.8714 0.51929 2.47321
H -5.67998 -0.98466 -0.2706
H -6.43707 1.29503 -0.30229
H -4.43792 -1.51587 2.08208
H -2.58105 -0.14136 1.3715
H -3.34059 -0.61272 -0.21233
H -3.02527 1.99156 1.01706
H -4.04958 1.7065 -0.46425
H -5.23068 2.50613 1.78492
O -5.95511 -4.94143 4.84533
C -1.98856 -3.06055 0.86356
C -3.58588 -6.9673 1.45969
C -3.09747 -8.37346 1.80784
C -4.1715 -8.81389 2.78252
C -5.11991 -7.61225 2.71002
O -4.97883 -7.15132 1.38793
H -2.39499 -6.27985 3.14584
H -4.2348 -6.74142 4.5438
H -1.78159 -2.33096 1.6736
H -3.09325 -6.61529 0.52725
H -3.18726 -8.98804 0.88331
H -2.05502 -8.4366 2.18744
H -4.66335 -9.72527 2.37568
H -3.82273 -9.00117 3.82117
H -6.14724 -7.8995 3.02505
H -2.85375 -2.74665 0.24849
H -1.09641 -3.1312 0.20848
H -8.46482 4.18907 2.79097
H -8.84312 2.5973 3.55393
H -9.60173 3.05503 1.96657
H -7.95333 -4.63336 0.67644
H -8.86842 -3.28796 1.41716
H -7.10662 -3.36167 3.37816
H -8.22068 -4.74389 3.2093
$end

$opt
CONSTRAINT
tors           1           2           3           4     +10.580
tors           3           4           5           6     +70.242
tors           4           5           6           7    +177.235
tors           5           6           7           8    +165.941
tors           6           7           8           9     -76.776
tors           7           8           9          10     -79.716
tors           8           9          10          11    +174.326
tors           9          10          11          12    +154.873
tors          11          12          13          14     -35.707
ENDCONSTRAINT
$end

$rem
JOBTYPE                   OPT
METHOD                    B3LYP
DFT_D                     d3_op
BASIS                     STO-3G
GEOM_OPT_MAX_CYCLES       100
GEOM_OPT_TOL_GRADIENT     300
GEOM_OPT_TOL_DISPLACEMENT 1200
GEOM_OPT_TOL_ENERGY       100
SYMMETRY                  False
THRESH                    12
SCF_CONVERGENCE           8
MAX_SUB_FILE_NUM          128
MEM_STATIC                400
MEM_TOTAL                 4000
$end
--------------------------------------------------------------

   15   -1510.1345355309      9.73E-09 Convergence criterion met
 Total energy in the final basis set = -1510.13453553
   13   -1510.2077539517      7.81E-09 Convergence criterion met
 Total energy in the final basis set = -1510.20775395
   13   -1510.2468592760      9.86E-09 Convergence criterion met
 Total energy in the final basis set = -1510.24685928
   14   -1510.2641685695      5.20E-09 Convergence criterion met
 Total energy in the final basis set = -1510.26416857
   14   -1510.2741823711      3.76E-09 Convergence criterion met
 Total energy in the final basis set = -1510.27418237
   13   -1510.2789804762      5.55E-09 Convergence criterion met
 Total energy in the final basis set = -1510.27898048
   13   -1510.2815930061      2.56E-09 Convergence criterion met
 Total energy in the final basis set = -1510.28159301
   13   -1510.2834843707      2.48E-09 Convergence criterion met
   12   -1510.2871076052      3.10E-09 Convergence criterion met
 Total energy in the final basis set = -1510.28710761
   11   -1510.2871750043      5.25E-09 Convergence criterion met
 Total energy in the final basis set = -1510.28717500
   11   -1510.2872191958      4.20E-09 Convergence criterion met
 Total energy in the final basis set = -1510.28721920
    9   -1510.2872522323      7.24E-09 Convergence criterion met
 Total energy in the final basis set = -1510.28725223
    9   -1510.2872662581      8.03E-09 Convergence criterion met
 Total energy in the final basis set = -1510.28726626
    9   -1510.2872717999      5.82E-09 Convergence criterion met
 Total energy in the final basis set = -1510.28727180

             Standard Nuclear Orientation (Angstroms)
    I     Atom           X                Y                Z
 ----------------------------------------------------------------
    1      O      -1.3063904417    -0.9641172538     0.7149989736
    2      C      -2.3620172494    -1.4422058355     0.2399350393
    3      C      -3.8358735090    -0.9286915744     0.4193527470
    4      C      -3.9663038435     0.4984640373     1.0951310720
    5      C      -2.5929274337     1.1994078054     1.3865571476
    6      O      -2.0060052358     1.5854817421     0.1396188720
    7      C      -0.7395759698     2.3092772013     0.3836136528
    8      C       0.0138852245     2.3749885441    -0.9887440316
    9      O       0.6340631466     1.0592567292    -1.2842471318
   10      C       1.8554644866     0.9173298599    -0.5517950170
   11      C       2.3877087392    -0.5375979517    -0.7863927823
   12      C       3.9502122482    -0.6729965811    -0.6029165125
   13      C       4.7430993657     0.6776313918    -0.7306641320
   14      O       4.4894721331     1.6316872137    -1.4971676003
   15      O      -2.4163228161    -2.5958129903    -0.6018030501
   16      O       5.8707589477     0.6424150439     0.1513085030
   17      O       2.3268396237     1.7917460905     0.2067180762
   18      C       6.6376434900     1.9037567969     0.0367263073
   19      C       1.8764590441    -1.4167751844     0.4398808541
   20      C       2.2639640893    -2.9325784254     0.2035673021
   21      C       3.7932815247    -2.9313722623     0.5723073804
   22      C       4.0318108121    -1.3915749528     0.8148832092
   23      O       2.7940606992    -0.9770431424     1.5177037133
   24      H       2.0326775322    -0.9103570516    -1.7630913047
   25      H       4.3542945168    -1.3462158083    -1.3828223165
   26      H       0.8111720168    -1.2370820489     0.7087810854
   27      H       1.6870462232    -3.5879729708     0.8750916603
   28      H       2.0822991379    -3.2482015852    -0.8363812129
   29      H       3.9833285645    -3.4986609027     1.4976436170
   30      H       4.4291586785    -3.3373757080    -0.2305450456
   31      H       4.9283871048    -1.1255052054     1.4063485057
   32      O      -2.1072986640     1.4557195467     2.5095111345
   33      C      -1.0561463636    -3.1205376743    -0.8550645441
   34      C      -4.5704712768    -0.6804542820    -0.9714138658
   35      C      -6.1267690451    -0.6561042804    -0.7043633190
   36      C      -6.2870289005     0.7379270670     0.0080287003
   37      C      -4.7984780894     1.2691458789    -0.0173602832
   38      O      -4.2549124449     0.7301106315    -1.2851893586
   39      H      -4.3776236896    -1.6926659348     1.0079306328
   40      H      -4.5153546677     0.4338489623     2.0506245674
   41      H      -0.5703669586    -3.4610061432     0.0811652186
   42      H      -4.2334642123    -1.3521179313    -1.7845395439
   43      H      -6.6788625095    -0.6879850233    -1.6572359113
   44      H      -6.4573596251    -1.4988805690    -0.0766975194
   45      H      -6.9465322480     1.4105808697    -0.5629860051
   46      H      -6.6767802910     0.6481470200     1.0346036452
   47      H      -4.6914166488     2.3705259513     0.0118237854
   48      H      -0.4097278909    -2.3577297721    -1.3341861526
   49      H      -1.1832351859    -3.9809199502    -1.5374670871
   50      H       7.4854999540     1.8101461519     0.7400047811
   51      H       6.0189920965     2.7815055582     0.3141379925
   52      H       7.0231563457     2.0562121425    -0.9922021279
   53      H      -0.7046551914     2.5712675883    -1.8094624508
   54      H       0.7852167660     3.1740820499    -0.9537817757
   55      H      -0.1185292017     1.7903996927     1.1445067311
   56      H      -0.9475026874     3.3381571993     0.7545851920
 ----------------------------------------------------------------

    9   -1510.2872720341      3.12E-09 Convergence criterion met
 Total energy in the final basis set = -1510.28727203
 Final energy is   -1510.28727203408
 **  OPTIMIZATION CONVERGED  **

                    Orbital Energies (a.u.)
 --------------------------------------------------------------

 Alpha MOs
 -- Occupied --
-18.944 -18.929 -18.924 -18.920 -18.889 -18.889 -18.879 -18.866
-18.865 -18.862 -10.110 -10.093 -10.090 -10.090 -10.071 -10.066
-10.062 -10.061 -10.060 -10.059 -10.051 -10.048 -10.041 -10.034
-10.032 -10.030 -10.021 -10.020 -10.017 -10.015  -1.021  -1.007
 -1.003  -0.998  -0.971  -0.962  -0.946  -0.932  -0.927  -0.922
 -0.764  -0.757  -0.725  -0.719  -0.713  -0.703  -0.690  -0.669
 -0.655  -0.610  -0.597  -0.573  -0.546  -0.538  -0.538  -0.532
 -0.516  -0.505  -0.487  -0.468  -0.464  -0.454  -0.447  -0.440
 -0.434  -0.430  -0.419  -0.418  -0.414  -0.408  -0.404  -0.403
 -0.390  -0.383  -0.370  -0.366  -0.360  -0.355  -0.350  -0.343
 -0.341  -0.334  -0.332  -0.329  -0.326  -0.320  -0.316  -0.314
 -0.306  -0.306  -0.302  -0.297  -0.288  -0.284  -0.282  -0.275
 -0.267  -0.261  -0.249  -0.244  -0.239  -0.235  -0.226  -0.187
 -0.173  -0.167  -0.165  -0.161  -0.150  -0.144  -0.141  -0.140
 -0.136

          Ground-State Mulliken Net Atomic Charges

     Atom                 Charge (a.u.)
  ----------------------------------------
      1 O                    -0.208289
      2 C                     0.218377
      3 C                    -0.077546
      4 C                    -0.081354
      5 C                     0.212390
      6 O                    -0.172517
      7 C                    -0.047643
      8 C                    -0.047756
      9 O                    -0.172435
     10 C                     0.213556
     11 C                    -0.078365
     12 C                    -0.080024
     13 C                     0.213689
     14 O                    -0.215245
     15 O                    -0.169370
     16 O                    -0.171101
     17 O                    -0.213750
     18 C                    -0.127659
     19 C                     0.014987
     20 C                    -0.145776
     21 C                    -0.142876
     22 C                     0.023819
     23 O                    -0.189251
     24 H                     0.082504
     25 H                     0.081444
     26 H                     0.099868
     27 H                     0.073539
     28 H                     0.069251
     29 H                     0.076862
     30 H                     0.071503
     31 H                     0.092157
     32 O                    -0.216011
     33 C                    -0.128881
     34 C                     0.025346
     35 C                    -0.143529
     36 C                    -0.144546
     37 C                     0.026911
     38 O                    -0.186346
     39 H                     0.085886
     40 H                     0.083961
     41 H                     0.089656
     42 H                     0.088765
     43 H                     0.078099
     44 H                     0.073509
     45 H                     0.077862
     46 H                     0.073922
     47 H                     0.083843
     48 H                     0.092591
     49 H                     0.091922
     50 H                     0.089239
     51 H                     0.092780
     52 H                     0.087189
     53 H                     0.095802
     54 H                     0.095440
     55 H                     0.101303
     56 H                     0.082298
  ----------------------------------------
  Sum of atomic charges =    -0.000000

                    Cartesian Multipole Moments
 -----------------------------------------------------------------
    Charge (ESU x 10^10)
                 0.0000
    Dipole Moment (Debye)
         X      -1.3336      Y      -2.5833      Z      -1.5086
       Tot       3.2753
    Quadrupole Moments (Debye-Ang)
        XX    -137.7182     XY      -1.6674     YY    -149.4996
        XZ      -4.0673     YZ       1.6320     ZZ    -168.9416

 Total job time:  56.79s(wall), 2705.14s(cpu)
        *  Thank you very much for using Q-Chem.  Have a nice day.  *
