 Q-Chem 5.0, Q-Chem, Inc., Pleasanton, CA (2017)
 Q-Chem 5.0.1 for Intel X86 EM64T Linux

User input:
--------------------------------------------------------------
$molecule
0  1
O -1.5649830156 -1.0138442398 0.9694216336
C -2.5407390356 -1.4063925087 0.2910254666
C -4.0077351946 -0.8475141834 0.3037785702
C -4.1829001135 0.4617920189 1.1778198765
C -2.8124736174 1.1598498756 1.506671369
O -2.1457237817 1.4151514851 0.2653230679
C -0.9049687558 2.1862175607 0.4813005796
C -0.1059893608 2.0782353187 -0.8639960064
O 0.5678241475 0.7615424574 -0.9509345783
C 1.8632972597 0.7921234947 -0.3494808786
C 2.4544596486 -0.651852816 -0.5047869741
C 4.0283967816 -0.7210568139 -0.6344280788
C 4.7158030179 0.6576669458 -0.9452092645
O 4.2951983678 1.5467672711 -1.7165638462
O -2.4556223009 -2.4548641846 -0.6779956051
O 5.9555869581 0.7396340164 -0.2353418773
O 2.3541159065 1.7817053172 0.2339585336
C 6.6190636846 2.0301590109 -0.5305153521
C 2.238927973 -1.4292289133 0.8667732134
C 2.5669812921 -2.9606941621 0.6542566473
C 4.1409148713 -2.9383135976 0.6359905039
C 4.4196458915 -1.3887722111 0.755068478
O 3.3648473053 -0.9309153318 1.689066558
H 1.9443490993 -1.148061061 -1.3486268327
H 4.2979832563 -1.3999797074 -1.4655875586
H 1.26564882 -1.2209302164 1.3544585365
H 2.1775566603 -3.5585600675 1.4934360373
H 2.1364625679 -3.3472858132 -0.2834859951
H 4.5599020988 -3.4702577747 1.5051481155
H 4.5649101193 -3.3733255587 -0.2831010992
H 5.4225149812 -1.1058352368 1.1279340626
O -2.3945864429 1.5198680126 2.6279700973
C -1.0554806026 -2.9331854776 -0.7668339366
C -4.588416139 -0.3766097575 -1.1013741255
C -6.1619946374 -0.4607782783 -1.0003998526
C -6.4579151555 0.7367967796 -0.0218419004
C -5.0129997719 1.3570259532 0.1583412277
O -4.3456098069 1.0817981052 -1.1357862405
H -4.6480835814 -1.6570530397 0.7023668081
H -4.7220500638 0.2707319299 2.1215540861
H -0.7291056242 -3.4208164874 0.1746771668
H -4.1333758822 -0.8760963193 -1.9785384995
H -6.6163921279 -0.29190199 -1.9898853638
H -6.510236267 -1.4306360736 -0.6106809444
H -7.1418211919 1.4724616838 -0.4737325105
H -6.8835428918 0.4035557224 0.9382220471
H -4.9922301613 2.4417558947 0.3794571816
H -0.358862049 -2.0991136429 -0.9902105822
H -1.0359221162 -3.6704907594 -1.5903020349
H 7.5519176547 2.0359634041 0.0626994194
H 5.9837122088 2.8898161184 -0.2351245258
H 6.8635263713 2.1269258204 -1.6082710382
H -0.8078308473 2.131477315 -1.720618424
H 0.6406707783 2.8990537669 -0.9246197857
H -0.3107667742 1.7762113864 1.3263434755
H -1.1398804314 3.25099477 0.7059661702
$end

$rem
JOBTYPE                   OPT
METHOD                    B3LYP
DFT_D                     d3_op
BASIS                     STO-3G
GEOM_OPT_MAX_CYCLES       100
GEOM_OPT_TOL_GRADIENT     300
GEOM_OPT_TOL_DISPLACEMENT 1200
GEOM_OPT_TOL_ENERGY       100
SYMMETRY                  False
THRESH                    12
SCF_CONVERGENCE           8
MAX_SUB_FILE_NUM          128
MEM_STATIC                400
MEM_TOTAL                 4000
$end
--------------------------------------------------------------

   15   -1510.2830592225      9.20E-09 Convergence criterion met
 Total energy in the final basis set = -1510.28305922
   14   -1510.2665552611      3.45E-09 Convergence criterion met
 Total energy in the final basis set = -1510.26655526
   14   -1510.2852689245      3.54E-09 Convergence criterion met
 Total energy in the final basis set = -1510.28526892
   14   -1510.2865320501      4.49E-09 Convergence criterion met
 Total energy in the final basis set = -1510.28653205
   14   -1510.2881525569      1.59E-09 Convergence criterion met
 Total energy in the final basis set = -1510.28815256
   14   -1510.2888602323      1.70E-09 Convergence criterion met
 Total energy in the final basis set = -1510.28886023
   14   -1510.2894442805      2.03E-09 Convergence criterion met
 Total energy in the final basis set = -1510.28944428
   14   -1510.2905905831      7.60E-09 Convergence criterion met
   12   -1510.2988047425      4.43E-09 Convergence criterion met
 Total energy in the final basis set = -1510.29880474
   11   -1510.2988463132      8.48E-09 Convergence criterion met
 Total energy in the final basis set = -1510.29884631
    9   -1510.2988496898      9.99E-09 Convergence criterion met
 Total energy in the final basis set = -1510.29884969
   12   -1510.2988528487      1.89E-09 Convergence criterion met
 Total energy in the final basis set = -1510.29885285
    9   -1510.2988554472      9.28E-09 Convergence criterion met
 Total energy in the final basis set = -1510.29885545
    9   -1510.2988627191      9.29E-09 Convergence criterion met
 Total energy in the final basis set = -1510.29886272

             Standard Nuclear Orientation (Angstroms)
    I     Atom           X                Y                Z
 ----------------------------------------------------------------
    1      O      -0.9193482630    -1.0433144610     0.5064610187
    2      C      -2.0167808191    -1.2207834518    -0.0762984741
    3      C      -3.4169795860    -0.8623584548     0.5409590819
    4      C      -3.4322265409     0.5907706380     1.1819314618
    5      C      -2.1041624333     1.3948841319     0.9735110559
    6      O      -1.8554034663     1.4964133350    -0.4373382076
    7      C      -0.6294401836     2.2862435213    -0.6925307585
    8      C       0.0599817353     1.7363478717    -1.9881715746
    9      O       0.7237534074     0.4284001721    -1.7801135759
   10      C       2.0052044306     0.5938661397    -1.1508384469
   11      C       2.6501500824    -0.8138375185    -0.9570060222
   12      C       4.1435115709    -0.7597378722    -0.4290356352
   13      C       4.6776205860     0.6965406403    -0.1561935448
   14      O       5.3944166086     1.3780991565    -0.9217362170
   15      O      -2.1746773035    -1.7866568480    -1.3670300624
   16      O       4.3001463842     1.0946595996     1.1667058232
   17      O       2.4759218140     1.7118297453    -0.8488938814
   18      C       4.7190770805     2.4931975387     1.4037138382
   19      C       1.9378818128    -1.6498295153     0.2012590286
   20      C       2.3480161614    -3.1625220010     0.0066289983
   21      C       3.8444568191    -3.1418462575     0.4924985990
   22      C       4.0133071724    -1.6232192402     0.8970749626
   23      O       2.6780733508    -1.2495724909     1.4163597012
   24      H       2.5834651952    -1.3496754889    -1.9211915476
   25      H       4.8264840963    -1.2271182654    -1.1603388195
   26      H       0.8440341492    -1.4493086611     0.3128409956
   27      H       1.7266421523    -3.8109028425     0.6451660237
   28      H       2.2438707276    -3.4949406166    -1.0386477186
   29      H       3.9945534643    -3.7921132394     1.3688548954
   30      H       4.5528161993    -3.4428391000    -0.2960603550
   31      H       4.7959904659    -1.4196664632     1.6525351975
   32      O      -1.3836314267     1.9084431573     1.8557608267
   33      C      -0.8518236828    -2.0571133970    -1.9866280994
   34      C      -4.5910796200    -0.7442043012    -0.5178046036
   35      C      -5.9622616883    -0.7959861011     0.2630475422
   36      C      -5.9912900592     0.6332448568     0.9211650261
   37      C      -4.6398471291     1.2466396416     0.3788682584
   38      O      -4.5076220918     0.6625569316    -0.9743370860
   39      H      -3.6485905199    -1.6242718990     1.3085370361
   40      H      -3.6316849729     0.5532549451     2.2670365719
   41      H      -0.3381716546    -2.8958161241    -1.4749026358
   42      H      -4.4986318142    -1.4376338396    -1.3751318234
   43      H      -6.7991980184    -0.9321657844    -0.4402597888
   44      H      -5.9900387123    -1.6088586422     1.0062936633
   45      H      -6.8508461825     1.2243527524     0.5673941783
   46      H      -6.0169980764     0.5959629594     2.0219819415
   47      H      -4.6101902798     2.3523245113     0.3286787165
   48      H      -0.2069201963    -1.1454552800    -1.9554832374
   49      H      -1.0677026572    -2.3458614958    -3.0311935126
   50      H       4.4390869377     2.7239441838     2.4479696396
   51      H       4.1941500470     3.1873771302     0.7157927006
   52      H       5.8129361180     2.6236979384     1.2724103701
   53      H      -0.7046406695     1.5613554849    -2.7721159364
   54      H       0.7990368263     2.4858761292    -2.3446074690
   55      H       0.0532694549     2.2338215617     0.1826480959
   56      H      -0.9011631416     3.3525327281    -0.8592208922
 ----------------------------------------------------------------

    9   -1510.2988621214      3.48E-09 Convergence criterion met
 Total energy in the final basis set = -1510.29886212
 Final energy is   -1510.29886212136
 **  OPTIMIZATION CONVERGED  **

                    Orbital Energies (a.u.)
 --------------------------------------------------------------

 Alpha MOs
 -- Occupied --
-18.949 -18.944 -18.930 -18.916 -18.891 -18.889 -18.881 -18.876
-18.876 -18.852 -10.110 -10.109 -10.099 -10.084 -10.083 -10.072
-10.062 -10.060 -10.051 -10.049 -10.048 -10.041 -10.038 -10.037
-10.034 -10.027 -10.022 -10.021 -10.012 -10.011  -1.025  -1.018
 -1.008  -0.992  -0.971  -0.958  -0.949  -0.942  -0.935  -0.918
 -0.765  -0.756  -0.729  -0.720  -0.713  -0.704  -0.692  -0.660
 -0.646  -0.618  -0.598  -0.579  -0.548  -0.539  -0.536  -0.529
 -0.517  -0.506  -0.494  -0.474  -0.470  -0.456  -0.444  -0.437
 -0.435  -0.432  -0.426  -0.415  -0.411  -0.406  -0.403  -0.397
 -0.395  -0.384  -0.374  -0.369  -0.361  -0.358  -0.353  -0.352
 -0.341  -0.334  -0.333  -0.330  -0.323  -0.322  -0.314  -0.312
 -0.306  -0.305  -0.300  -0.299  -0.295  -0.292  -0.277  -0.273
 -0.271  -0.262  -0.249  -0.248  -0.237  -0.235  -0.221  -0.193
 -0.182  -0.172  -0.162  -0.161  -0.158  -0.151  -0.145  -0.135
 -0.132

          Ground-State Mulliken Net Atomic Charges

     Atom                 Charge (a.u.)
  ----------------------------------------
      1 O                    -0.218613
      2 C                     0.222458
      3 C                    -0.077278
      4 C                    -0.078855
      5 C                     0.212054
      6 O                    -0.174454
      7 C                    -0.052447
      8 C                    -0.046864
      9 O                    -0.173065
     10 C                     0.219281
     11 C                    -0.081093
     12 C                    -0.081515
     13 C                     0.212144
     14 O                    -0.223340
     15 O                    -0.165570
     16 O                    -0.167253
     17 O                    -0.204193
     18 C                    -0.127091
     19 C                     0.005998
     20 C                    -0.145572
     21 C                    -0.145039
     22 C                     0.026669
     23 O                    -0.187237
     24 H                     0.082845
     25 H                     0.080956
     26 H                     0.113342
     27 H                     0.074690
     28 H                     0.067300
     29 H                     0.075872
     30 H                     0.070747
     31 H                     0.084387
     32 O                    -0.208312
     33 C                    -0.146909
     34 C                     0.023711
     35 C                    -0.144044
     36 C                    -0.144096
     37 C                     0.026129
     38 O                    -0.187029
     39 H                     0.085548
     40 H                     0.086299
     41 H                     0.080113
     42 H                     0.092676
     43 H                     0.077971
     44 H                     0.073246
     45 H                     0.078101
     46 H                     0.074372
     47 H                     0.082578
     48 H                     0.114910
     49 H                     0.084765
     50 H                     0.087995
     51 H                     0.090972
     52 H                     0.085068
     53 H                     0.097858
     54 H                     0.097009
     55 H                     0.106487
     56 H                     0.085315
  ----------------------------------------
  Sum of atomic charges =    -0.000000

                    Cartesian Multipole Moments
 -----------------------------------------------------------------
    Charge (ESU x 10^10)
                -0.0000
    Dipole Moment (Debye)
         X      -2.6150      Y      -1.6675      Z      -1.1786
       Tot       3.3178
    Quadrupole Moments (Debye-Ang)
        XX    -156.0483     XY      -4.7007     YY    -151.4682
        XZ      -3.4740     YZ       1.5863     ZZ    -161.6778

 Total job time:  110.13s(wall), 5253.68s(cpu)
        *  Thank you very much for using Q-Chem.  Have a nice day.  *
