 Q-Chem 5.0, Q-Chem, Inc., Pleasanton, CA (2017)
 Q-Chem 5.0.1 for Intel X86 EM64T Linux

User input:
--------------------------------------------------------------
$molecule
0  1
O -3.94934 -3.66094 2.70899
C -3.26408 -4.56952 2.26188
C -3.36658 -6.02376 2.66595
C -4.52435 -6.41371 3.59942
C -5.55327 -5.34153 3.88197
O -6.0661 -4.86951 2.70739
C -7.13564 -3.93659 2.89446
C -7.42247 -3.19761 1.59147
O -6.44345 -2.16663 1.3878
C -6.73778 -0.96504 1.94341
C -5.66878 0.07349 1.69981
C -6.17872 1.51944 1.61346
C -7.58464 1.75608 2.12734
O -8.53485 1.00438 1.96418
O -2.29591 -4.26692 1.3576
O -7.8243 2.95109 2.73344
O -7.45266 -0.90829 2.93891
C -9.04845 3.34306 3.23404
C -4.65428 0.17999 2.85421
C -3.3378 0.73827 2.32158
C -3.74434 2.16544 2.01866
C -5.16975 2.17275 2.59013
O -5.1247 1.24253 3.64377
H -5.12093 -0.22196 0.77477
H -6.12673 1.94117 0.5862
H -4.48168 -0.78427 3.38097
H -2.62442 0.74267 3.177
H -2.88316 0.18518 1.47167
H -3.07497 2.84677 2.58932
H -3.74505 2.4414 0.94182
H -5.44253 3.21187 2.87338
O -5.88763 -4.9831 5.00481
C -2.04915 -2.9943 0.88522
C -3.67186 -6.94136 1.46199
C -3.22104 -8.36971 1.76879
C -4.27647 -8.79012 2.77116
C -5.16768 -7.54422 2.77366
O -5.07245 -7.06313 1.4549
H -2.37552 -6.29645 3.09309
H -4.16108 -6.78406 4.5841
H -1.7671 -2.32242 1.72407
H -3.2083 -6.59223 0.51356
H -3.35841 -8.96898 0.84024
H -2.16958 -8.46577 2.11531
H -4.83362 -9.65749 2.35208
H -3.89743 -9.0375 3.78631
H -6.19088 -7.79555 3.1308
H -2.95063 -2.59444 0.37286
H -1.21131 -3.0312 0.15932
H -8.95366 4.35699 3.67382
H -9.38014 2.63876 4.02675
H -9.8032 3.37526 2.41947
H -7.43215 -3.90585 0.73602
H -8.44477 -2.75394 1.63705
H -6.93517 -3.19793 3.70163
H -8.03836 -4.52416 3.1731
$end

$opt
CONSTRAINT
tors           1           2           3           4      +6.982
tors           3           4           5           6     +55.362
tors           4           5           6           7    +174.639
tors           5           6           7           8    +165.941
tors           6           7           8           9     -78.402
tors           7           8           9          10     -88.217
tors           8           9          10          11    +179.746
tors           9          10          11          12    +149.429
tors          11          12          13          14     -39.455
ENDCONSTRAINT
$end

$rem
JOBTYPE                   OPT
METHOD                    B3LYP
DFT_D                     d3_op
BASIS                     STO-3G
GEOM_OPT_MAX_CYCLES       100
GEOM_OPT_TOL_GRADIENT     300
GEOM_OPT_TOL_DISPLACEMENT 1200
GEOM_OPT_TOL_ENERGY       100
SYMMETRY                  False
THRESH                    12
SCF_CONVERGENCE           8
MAX_SUB_FILE_NUM          128
MEM_STATIC                400
MEM_TOTAL                 4000
$end
--------------------------------------------------------------

   15   -1510.1425675575      7.19E-09 Convergence criterion met
 Total energy in the final basis set = -1510.14256756
   14   -1510.2133816840      4.74E-09 Convergence criterion met
 Total energy in the final basis set = -1510.21338168
   13   -1510.2516304882      8.87E-09 Convergence criterion met
 Total energy in the final basis set = -1510.25163049
   14   -1510.2690659412      6.50E-09 Convergence criterion met
 Total energy in the final basis set = -1510.26906594
   14   -1510.2754639335      3.80E-09 Convergence criterion met
 Total energy in the final basis set = -1510.27546393
   13   -1510.2782122409      4.15E-09 Convergence criterion met
 Total energy in the final basis set = -1510.27821224
   13   -1510.2797731866      2.26E-09 Convergence criterion met
 Total energy in the final basis set = -1510.27977319
   13   -1510.2805113402      3.56E-09 Convergence criterion met
   12   -1510.2829622370      2.86E-09 Convergence criterion met
 Total energy in the final basis set = -1510.28296224
   11   -1510.2830255121      6.95E-09 Convergence criterion met
 Total energy in the final basis set = -1510.28302551
   10   -1510.2830659503      8.45E-09 Convergence criterion met
 Total energy in the final basis set = -1510.28306595
   10   -1510.2830946476      5.33E-09 Convergence criterion met
 Total energy in the final basis set = -1510.28309465
    9   -1510.2831086285      8.07E-09 Convergence criterion met
 Total energy in the final basis set = -1510.28310863
    9   -1510.2831126250      6.57E-09 Convergence criterion met
 Total energy in the final basis set = -1510.28311263

             Standard Nuclear Orientation (Angstroms)
    I     Atom           X                Y                Z
 ----------------------------------------------------------------
    1      O      -1.5649830156    -1.0138442398     0.9694216336
    2      C      -2.5407390356    -1.4063925087     0.2910254666
    3      C      -4.0077351946    -0.8475141834     0.3037785702
    4      C      -4.1829001135     0.4617920189     1.1778198765
    5      C      -2.8124736174     1.1598498756     1.5066713690
    6      O      -2.1457237817     1.4151514851     0.2653230679
    7      C      -0.9049687558     2.1862175607     0.4813005796
    8      C      -0.1059893608     2.0782353187    -0.8639960064
    9      O       0.5678241475     0.7615424574    -0.9509345783
   10      C       1.8632972597     0.7921234947    -0.3494808786
   11      C       2.4544596486    -0.6518528160    -0.5047869741
   12      C       4.0283967816    -0.7210568139    -0.6344280788
   13      C       4.7158030179     0.6576669458    -0.9452092645
   14      O       4.2951983678     1.5467672711    -1.7165638462
   15      O      -2.4556223009    -2.4548641846    -0.6779956051
   16      O       5.9555869581     0.7396340164    -0.2353418773
   17      O       2.3541159065     1.7817053172     0.2339585336
   18      C       6.6190636846     2.0301590109    -0.5305153521
   19      C       2.2389279730    -1.4292289133     0.8667732134
   20      C       2.5669812921    -2.9606941621     0.6542566473
   21      C       4.1409148713    -2.9383135976     0.6359905039
   22      C       4.4196458915    -1.3887722111     0.7550684780
   23      O       3.3648473053    -0.9309153318     1.6890665580
   24      H       1.9443490993    -1.1480610610    -1.3486268327
   25      H       4.2979832563    -1.3999797074    -1.4655875586
   26      H       1.2656488200    -1.2209302164     1.3544585365
   27      H       2.1775566603    -3.5585600675     1.4934360373
   28      H       2.1364625679    -3.3472858132    -0.2834859951
   29      H       4.5599020988    -3.4702577747     1.5051481155
   30      H       4.5649101193    -3.3733255587    -0.2831010992
   31      H       5.4225149812    -1.1058352368     1.1279340626
   32      O      -2.3945864429     1.5198680126     2.6279700973
   33      C      -1.0554806026    -2.9331854776    -0.7668339366
   34      C      -4.5884161390    -0.3766097575    -1.1013741255
   35      C      -6.1619946374    -0.4607782783    -1.0003998526
   36      C      -6.4579151555     0.7367967796    -0.0218419004
   37      C      -5.0129997719     1.3570259532     0.1583412277
   38      O      -4.3456098069     1.0817981052    -1.1357862405
   39      H      -4.6480835814    -1.6570530397     0.7023668081
   40      H      -4.7220500638     0.2707319299     2.1215540861
   41      H      -0.7291056242    -3.4208164874     0.1746771668
   42      H      -4.1333758822    -0.8760963193    -1.9785384995
   43      H      -6.6163921279    -0.2919019900    -1.9898853638
   44      H      -6.5102362670    -1.4306360736    -0.6106809444
   45      H      -7.1418211919     1.4724616838    -0.4737325105
   46      H      -6.8835428918     0.4035557224     0.9382220471
   47      H      -4.9922301613     2.4417558947     0.3794571816
   48      H      -0.3588620490    -2.0991136429    -0.9902105822
   49      H      -1.0359221162    -3.6704907594    -1.5903020349
   50      H       7.5519176547     2.0359634041     0.0626994194
   51      H       5.9837122088     2.8898161184    -0.2351245258
   52      H       6.8635263713     2.1269258204    -1.6082710382
   53      H      -0.8078308473     2.1314773150    -1.7206184240
   54      H       0.6406707783     2.8990537669    -0.9246197857
   55      H      -0.3107667742     1.7762113864     1.3263434755
   56      H      -1.1398804314     3.2509947700     0.7059661702
 ----------------------------------------------------------------

    9   -1510.2831153877      3.68E-09 Convergence criterion met
 Total energy in the final basis set = -1510.28311539
 Final energy is   -1510.28311538771
 **  OPTIMIZATION CONVERGED  **

                    Orbital Energies (a.u.)
 --------------------------------------------------------------

 Alpha MOs
 -- Occupied --
-18.939 -18.931 -18.925 -18.918 -18.889 -18.884 -18.881 -18.868
-18.868 -18.861 -10.103 -10.096 -10.093 -10.089 -10.067 -10.067
-10.063 -10.061 -10.060 -10.060 -10.056 -10.055 -10.038 -10.035
-10.034 -10.033 -10.021 -10.020 -10.019 -10.018  -1.017  -1.009
 -1.004  -0.997  -0.970  -0.967  -0.939  -0.934  -0.929  -0.923
 -0.763  -0.760  -0.725  -0.720  -0.711  -0.705  -0.692  -0.665
 -0.657  -0.612  -0.596  -0.575  -0.546  -0.541  -0.538  -0.535
 -0.514  -0.508  -0.488  -0.469  -0.464  -0.456  -0.447  -0.438
 -0.434  -0.432  -0.419  -0.414  -0.413  -0.407  -0.407  -0.404
 -0.392  -0.378  -0.372  -0.366  -0.359  -0.354  -0.349  -0.346
 -0.343  -0.335  -0.332  -0.330  -0.326  -0.321  -0.317  -0.315
 -0.308  -0.304  -0.301  -0.298  -0.290  -0.286  -0.284  -0.274
 -0.270  -0.258  -0.251  -0.243  -0.239  -0.233  -0.230  -0.183
 -0.175  -0.169  -0.162  -0.156  -0.153  -0.143  -0.142  -0.140
 -0.139

          Ground-State Mulliken Net Atomic Charges

     Atom                 Charge (a.u.)
  ----------------------------------------
      1 O                    -0.210017
      2 C                     0.214879
      3 C                    -0.078498
      4 C                    -0.080070
      5 C                     0.213545
      6 O                    -0.173222
      7 C                    -0.046046
      8 C                    -0.047801
      9 O                    -0.175201
     10 C                     0.213570
     11 C                    -0.078156
     12 C                    -0.079749
     13 C                     0.213490
     14 O                    -0.214402
     15 O                    -0.169994
     16 O                    -0.170250
     17 O                    -0.212125
     18 C                    -0.127525
     19 C                     0.023041
     20 C                    -0.144855
     21 C                    -0.143329
     22 C                     0.023826
     23 O                    -0.188132
     24 H                     0.082711
     25 H                     0.082376
     26 H                     0.091140
     27 H                     0.077311
     28 H                     0.070493
     29 H                     0.077659
     30 H                     0.072022
     31 H                     0.093004
     32 O                    -0.217535
     33 C                    -0.129418
     34 C                     0.026246
     35 C                    -0.142277
     36 C                    -0.145005
     37 C                     0.025990
     38 O                    -0.185269
     39 H                     0.083821
     40 H                     0.084346
     41 H                     0.087425
     42 H                     0.088359
     43 H                     0.077855
     44 H                     0.073390
     45 H                     0.077881
     46 H                     0.073835
     47 H                     0.082450
     48 H                     0.094182
     49 H                     0.089820
     50 H                     0.089806
     51 H                     0.093638
     52 H                     0.087268
     53 H                     0.097069
     54 H                     0.095864
     55 H                     0.097831
     56 H                     0.082733
  ----------------------------------------
  Sum of atomic charges =     0.000000

                    Cartesian Multipole Moments
 -----------------------------------------------------------------
    Charge (ESU x 10^10)
                 0.0000
    Dipole Moment (Debye)
         X      -1.0234      Y      -2.6503      Z      -1.8785
       Tot       3.4059
    Quadrupole Moments (Debye-Ang)
        XX    -137.0149     XY      -1.5137     YY    -151.1266
        XZ      -4.5793     YZ       0.2109     ZZ    -169.3539

 Total job time:  54.09s(wall), 2574.19s(cpu)
        *  Thank you very much for using Q-Chem.  Have a nice day.  *
