 Q-Chem 5.0, Q-Chem, Inc., Pleasanton, CA (2017)
 Q-Chem 5.0.1 for Intel X86 EM64T Linux

User input:
--------------------------------------------------------------
$molecule
0  1
O -3.94934 -3.66094 2.70899
C -3.26408 -4.56952 2.26188
C -3.36658 -6.02376 2.66595
C -4.6433 -6.45982 3.40329
C -5.7514 -5.43445 3.49726
O -6.36896 -5.30631 2.2858
C -7.4414 -4.35817 2.29792
C -7.82484 -3.98005 0.87099
O -6.9855 -2.91155 0.40549
C -7.21103 -1.70205 0.97593
C -6.21171 -0.65396 0.54753
C -6.7108 0.79498 0.64627
C -7.9626 1.00775 1.47358
O -8.90656 0.23397 1.54268
O -2.23064 -4.26503 1.43396
O -8.13362 2.25318 1.9954
O -7.70364 -1.64063 2.09191
C -9.24053 2.65535 2.71366
C -4.95522 -0.59032 1.43084
C -3.80204 0.03058 0.6434
C -4.25946 1.4686 0.56483
C -5.52131 1.39944 1.43144
O -5.23779 0.403 2.38019
H -5.90427 -0.90215 -0.4945
H -6.85905 1.3021 -0.33203
H -4.66451 -1.57397 1.83217
H -2.89983 -0.01916 1.2942
H -3.57607 -0.44308 -0.33577
H -3.4847 2.10892 1.04249
H -4.48709 1.84163 -0.45726
H -5.73172 2.40952 1.84425
O -6.17291 -4.98861 4.5583
C -1.96582 -3.00477 0.94641
C -3.4438 -6.97908 1.44848
C -2.94558 -8.36756 1.84967
C -4.08831 -8.83588 2.72801
C -5.06704 -7.66975 2.55071
O -4.81596 -7.21196 1.24464
H -2.43374 -6.25691 3.22716
H -4.40002 -6.74733 4.45076
H -1.78365 -2.29834 1.78411
H -2.87673 -6.61765 0.56324
H -2.93554 -8.9875 0.92431
H -1.93927 -8.40056 2.31976
H -4.50564 -9.77127 2.29347
H -3.83098 -8.99423 3.79772
H -6.10931 -7.99078 2.76932
H -2.81934 -2.6572 0.32923
H -1.06003 -3.04455 0.3076
H -9.11061 3.71361 3.01969
H -9.35139 2.03015 3.62543
H -10.15482 2.57351 2.08793
H -7.74651 -4.86752 0.20735
H -8.88469 -3.63648 0.83708
H -7.28852 -3.54986 3.03127
H -8.31412 -4.91948 2.6996
$end

$opt
CONSTRAINT
tors           1           2           3           4     +16.797
tors           3           4           5           6     +74.287
tors           4           5           6           7    +179.480
tors           5           6           7           8    +164.391
tors           6           7           8           9     -85.760
tors           7           8           9          10     -70.944
tors           8           9          10          11    +174.326
tors           9          10          11          12    +155.236
tors          11          12          13          14     -35.707
ENDCONSTRAINT
$end

$rem
JOBTYPE                   OPT
METHOD                    B3LYP
DFT_D                     d3_op
BASIS                     STO-3G
GEOM_OPT_MAX_CYCLES       100
GEOM_OPT_TOL_GRADIENT     300
GEOM_OPT_TOL_DISPLACEMENT 1200
GEOM_OPT_TOL_ENERGY       100
SYMMETRY                  False
THRESH                    12
SCF_CONVERGENCE           8
MAX_SUB_FILE_NUM          128
MEM_STATIC                400
MEM_TOTAL                 4000
$end
--------------------------------------------------------------

   16   -1510.1298677619      2.23E-09 Convergence criterion met
 Total energy in the final basis set = -1510.12986776
   13   -1510.2028317721      9.90E-09 Convergence criterion met
 Total energy in the final basis set = -1510.20283177
   14   -1510.2412286617      3.06E-09 Convergence criterion met
 Total energy in the final basis set = -1510.24122866
   14   -1510.2626054294      3.83E-09 Convergence criterion met
 Total energy in the final basis set = -1510.26260543
   13   -1510.2711562512      8.64E-09 Convergence criterion met
 Total energy in the final basis set = -1510.27115625
   13   -1510.2767257231      5.45E-09 Convergence criterion met
 Total energy in the final basis set = -1510.27672572
   13   -1510.2799252005      3.08E-09 Convergence criterion met
 Total energy in the final basis set = -1510.27992520
   13   -1510.2820931853      2.45E-09 Convergence criterion met
   11   -1510.2864970149      7.61E-09 Convergence criterion met
 Total energy in the final basis set = -1510.28649701
   10   -1510.2865622017      9.17E-09 Convergence criterion met
 Total energy in the final basis set = -1510.28656220
   11   -1510.2866047210      4.24E-09 Convergence criterion met
 Total energy in the final basis set = -1510.28660472
    9   -1510.2866273541      7.35E-09 Convergence criterion met
 Total energy in the final basis set = -1510.28662735
    9   -1510.2866344820      9.68E-09 Convergence criterion met
 Total energy in the final basis set = -1510.28663448
    9   -1510.2866370478      5.74E-09 Convergence criterion met
 Total energy in the final basis set = -1510.28663705

             Standard Nuclear Orientation (Angstroms)
    I     Atom           X                Y                Z
 ----------------------------------------------------------------
    1      O      -1.2985301005    -0.9256469760     0.6681073467
    2      C      -2.3784901433    -1.3986325140     0.2441265352
    3      C      -3.8411362179    -0.8923794288     0.5266108085
    4      C      -3.9254059941     0.5843970187     1.1023378960
    5      C      -2.5245527263     1.2577792521     1.3043662696
    6      O      -2.0059019362     1.6201855404     0.0204746912
    7      C      -0.6871547657     2.2705141046     0.1833182141
    8      C      -0.0094519307     2.2689725621    -1.2330554949
    9      O       0.7046990536     0.9892080629    -1.4628003746
   10      C       1.8763161155     0.9034682601    -0.6463971360
   11      C       2.4704465934    -0.5313553868    -0.8526174487
   12      C       4.0190788642    -0.6467067862    -0.5661696177
   13      C       4.7960883785     0.7191263623    -0.5811990539
   14      O       4.5826577723     1.7029675249    -1.3216141977
   15      O      -2.4714654959    -2.5382140620    -0.6120722137
   16      O       5.8565484240     0.6614047002     0.3796658056
   17      O       2.2625130372     1.7963348162     0.1376676563
   18      C       6.6091800214     1.9365268885     0.3750819697
   19      C       1.8881523511    -1.4378183421     0.3237524572
   20      C       2.2857291876    -2.9466409361     0.0683496219
   21      C       3.7969635637    -2.9532994771     0.5060235360
   22      C       4.0180957593    -1.4234328600     0.8223315929
   23      O       2.7415332955    -1.0316973388     1.4648800382
   24      H       2.1905848090    -0.9022430755    -1.8539117054
   25      H       4.4869589528    -1.2798372299    -1.3439509969
   26      H       0.8109070922    -1.2597017783     0.5427889320
   27      H       1.6808735900    -3.6176368100     0.6988140268
   28      H       2.1492735241    -3.2372241394    -0.9857520944
   29      H       3.9486530423    -3.5577833324     1.4146467564
   30      H       4.4709004316    -3.3227473687    -0.2833794634
   31      H       4.8779527763    -1.1831969465     1.4760645126
   32      O      -1.9654842709     1.5105457155     2.3934391734
   33      C      -1.1227018230    -3.0475615785    -0.9481792409
   34      C      -4.6896629762    -0.7470769928    -0.8102131415
   35      C      -6.2170318690    -0.6518202215    -0.4200883349
   36      C      -6.2951082848     0.8160787567     0.1411368005
   37      C      -4.7959828860     1.2878014300    -0.0255406824
   38      O      -4.3610455290     0.6194866867    -1.2736703815
   39      H      -4.3160911939    -1.6149800377     1.2163620519
   40      H      -4.4400288612     0.5912665244     2.0788645545
   41      H      -0.6007147472    -3.4391644808    -0.0519376083
   42      H      -4.4372049710    -1.4977983974    -1.5837948996
   43      H      -6.8501992374    -0.7784196201    -1.3125818562
   44      H      -6.5026394316    -1.4098361364     0.3268057204
   45      H      -6.9648625078     1.4449089042    -0.4670111631
   46      H      -6.6292041823     0.8559041475     1.1902224140
   47      H      -4.6512641583     2.3825685950    -0.1019250577
   48      H      -0.4943353063    -2.2590323204    -1.4094818603
   49      H      -1.2790547407    -3.8695964433    -1.6705907767
   50      H       7.3978799784     1.8281596693     1.1421975185
   51      H       5.9552814907     2.7947479860     0.6319323610
   52      H       7.0757319566     2.1328715462    -0.6120387865
   53      H      -0.7841819464     2.3331512119    -2.0231501703
   54      H       0.6886523089     3.1297337927    -1.3169094074
   55      H      -0.0615675519     1.7304077933     0.9240873026
   56      H      -0.8163412004     3.3155818775     0.5436342003
 ----------------------------------------------------------------

    9   -1510.2866374948      2.63E-09 Convergence criterion met
 Total energy in the final basis set = -1510.28663749
 Final energy is   -1510.28663749481
 **  OPTIMIZATION CONVERGED  **

                    Orbital Energies (a.u.)
 --------------------------------------------------------------

 Alpha MOs
 -- Occupied --
-18.945 -18.928 -18.924 -18.920 -18.890 -18.888 -18.880 -18.866
-18.866 -18.862 -10.110 -10.093 -10.091 -10.090 -10.072 -10.067
-10.060 -10.060 -10.060 -10.059 -10.051 -10.048 -10.041 -10.034
-10.032 -10.030 -10.021 -10.020 -10.017 -10.015  -1.022  -1.007
 -1.003  -0.998  -0.970  -0.962  -0.946  -0.932  -0.927  -0.923
 -0.764  -0.757  -0.725  -0.719  -0.713  -0.703  -0.690  -0.669
 -0.655  -0.611  -0.596  -0.574  -0.546  -0.538  -0.538  -0.532
 -0.516  -0.506  -0.486  -0.468  -0.465  -0.454  -0.446  -0.441
 -0.434  -0.430  -0.419  -0.417  -0.414  -0.407  -0.405  -0.403
 -0.391  -0.384  -0.370  -0.367  -0.360  -0.355  -0.350  -0.344
 -0.341  -0.334  -0.332  -0.329  -0.326  -0.320  -0.315  -0.314
 -0.306  -0.306  -0.301  -0.297  -0.288  -0.284  -0.283  -0.275
 -0.267  -0.261  -0.249  -0.244  -0.239  -0.235  -0.226  -0.188
 -0.173  -0.167  -0.164  -0.162  -0.151  -0.145  -0.141  -0.140
 -0.136

          Ground-State Mulliken Net Atomic Charges

     Atom                 Charge (a.u.)
  ----------------------------------------
      1 O                    -0.208978
      2 C                     0.218473
      3 C                    -0.077027
      4 C                    -0.081811
      5 C                     0.212175
      6 O                    -0.174547
      7 C                    -0.048864
      8 C                    -0.047309
      9 O                    -0.174698
     10 C                     0.213980
     11 C                    -0.078923
     12 C                    -0.080056
     13 C                     0.213624
     14 O                    -0.214215
     15 O                    -0.168598
     16 O                    -0.171220
     17 O                    -0.212384
     18 C                    -0.127697
     19 C                     0.015218
     20 C                    -0.145794
     21 C                    -0.143059
     22 C                     0.023810
     23 O                    -0.189267
     24 H                     0.082925
     25 H                     0.081600
     26 H                     0.099019
     27 H                     0.073257
     28 H                     0.069640
     29 H                     0.076818
     30 H                     0.071529
     31 H                     0.092192
     32 O                    -0.215409
     33 C                    -0.128906
     34 C                     0.024401
     35 C                    -0.143973
     36 C                    -0.144102
     37 C                     0.026682
     38 O                    -0.187584
     39 H                     0.086029
     40 H                     0.083951
     41 H                     0.089227
     42 H                     0.089699
     43 H                     0.078073
     44 H                     0.073353
     45 H                     0.077725
     46 H                     0.073924
     47 H                     0.084616
     48 H                     0.094180
     49 H                     0.092231
     50 H                     0.089212
     51 H                     0.093012
     52 H                     0.086991
     53 H                     0.097537
     54 H                     0.092127
     55 H                     0.104344
     56 H                     0.082845
  ----------------------------------------
  Sum of atomic charges =    -0.000000

                    Cartesian Multipole Moments
 -----------------------------------------------------------------
    Charge (ESU x 10^10)
                 0.0000
    Dipole Moment (Debye)
         X      -1.3076      Y      -2.5841      Z      -1.4292
       Tot       3.2295
    Quadrupole Moments (Debye-Ang)
        XX    -137.7628     XY      -2.0309     YY    -150.1163
        XZ      -4.3846     YZ       1.5368     ZZ    -167.9386

 Total job time:  59.33s(wall), 2826.69s(cpu)
        *  Thank you very much for using Q-Chem.  Have a nice day.  *
