 Q-Chem 5.0, Q-Chem, Inc., Pleasanton, CA (2017)
 Q-Chem 5.0.1 for Intel X86 EM64T Linux

User input:
--------------------------------------------------------------
$molecule
0  1
O -1.2985301005 -0.925646976 0.6681073467
C -2.3784901433 -1.398632514 0.2441265352
C -3.8411362179 -0.8923794288 0.5266108085
C -3.9254059941 0.5843970187 1.102337896
C -2.5245527263 1.2577792521 1.3043662696
O -2.0059019362 1.6201855404 0.0204746912
C -0.6871547657 2.2705141046 0.1833182141
C -0.0094519307 2.2689725621 -1.2330554949
O 0.7046990536 0.9892080629 -1.4628003746
C 1.8763161155 0.9034682601 -0.646397136
C 2.4704465934 -0.5313553868 -0.8526174487
C 4.0190788642 -0.6467067862 -0.5661696177
C 4.7960883785 0.7191263623 -0.5811990539
O 4.5826577723 1.7029675249 -1.3216141977
O -2.4714654959 -2.538214062 -0.6120722137
O 5.856548424 0.6614047002 0.3796658056
O 2.2625130372 1.7963348162 0.1376676563
C 6.6091800214 1.9365268885 0.3750819697
C 1.8881523511 -1.4378183421 0.3237524572
C 2.2857291876 -2.9466409361 0.0683496219
C 3.7969635637 -2.9532994771 0.506023536
C 4.0180957593 -1.42343286 0.8223315929
O 2.7415332955 -1.0316973388 1.4648800382
H 2.190584809 -0.9022430755 -1.8539117054
H 4.4869589528 -1.2798372299 -1.3439509969
H 0.8109070922 -1.2597017783 0.542788932
H 1.68087359 -3.61763681 0.6988140268
H 2.1492735241 -3.2372241394 -0.9857520944
H 3.9486530423 -3.5577833324 1.4146467564
H 4.4709004316 -3.3227473687 -0.2833794634
H 4.8779527763 -1.1831969465 1.4760645126
O -1.9654842709 1.5105457155 2.3934391734
C -1.122701823 -3.0475615785 -0.9481792409
C -4.6896629762 -0.7470769928 -0.8102131415
C -6.217031869 -0.6518202215 -0.4200883349
C -6.2951082848 0.8160787567 0.1411368005
C -4.795982886 1.28780143 -0.0255406824
O -4.361045529 0.6194866867 -1.2736703815
H -4.3160911939 -1.6149800377 1.2163620519
H -4.4400288612 0.5912665244 2.0788645545
H -0.6007147472 -3.4391644808 -0.0519376083
H -4.437204971 -1.4977983974 -1.5837948996
H -6.8501992374 -0.7784196201 -1.3125818562
H -6.5026394316 -1.4098361364 0.3268057204
H -6.9648625078 1.4449089042 -0.4670111631
H -6.6292041823 0.8559041475 1.190222414
H -4.6512641583 2.382568595 -0.1019250577
H -0.4943353063 -2.2590323204 -1.4094818603
H -1.2790547407 -3.8695964433 -1.6705907767
H 7.3978799784 1.8281596693 1.1421975185
H 5.9552814907 2.794747986 0.631932361
H 7.0757319566 2.1328715462 -0.6120387865
H -0.7841819464 2.3331512119 -2.0231501703
H 0.6886523089 3.1297337927 -1.3169094074
H -0.0615675519 1.7304077933 0.9240873026
H -0.8163412004 3.3155818775 0.5436342003
$end

$rem
JOBTYPE                   OPT
METHOD                    B3LYP
DFT_D                     d3_op
BASIS                     STO-3G
GEOM_OPT_MAX_CYCLES       100
GEOM_OPT_TOL_GRADIENT     300
GEOM_OPT_TOL_DISPLACEMENT 1200
GEOM_OPT_TOL_ENERGY       100
SYMMETRY                  False
THRESH                    12
SCF_CONVERGENCE           8
MAX_SUB_FILE_NUM          128
MEM_STATIC                400
MEM_TOTAL                 4000
$end
--------------------------------------------------------------

   16   -1510.2866317107      5.82E-09 Convergence criterion met
 Total energy in the final basis set = -1510.28663171
   14   -1510.2327834107      5.59E-09 Convergence criterion met
 Total energy in the final basis set = -1510.23278341
   14   -1510.2868558243      5.03E-09 Convergence criterion met
 Total energy in the final basis set = -1510.28685582
   14   -1510.2845006952      4.49E-09 Convergence criterion met
 Total energy in the final basis set = -1510.28450070
   14   -1510.2873141848      2.59E-09 Convergence criterion met
 Total energy in the final basis set = -1510.28731418
   14   -1510.2885459583      7.05E-09 Convergence criterion met
 Total energy in the final basis set = -1510.28854596
   14   -1510.2887089860      3.61E-09 Convergence criterion met
 Total energy in the final basis set = -1510.28870899
   13   -1510.2906132627      4.52E-09 Convergence criterion met
   12   -1510.2988235482      2.78E-09 Convergence criterion met
 Total energy in the final basis set = -1510.29882355
   10   -1510.2988144542      6.33E-09 Convergence criterion met
 Total energy in the final basis set = -1510.29881445
    9   -1510.2988147846      5.08E-09 Convergence criterion met
 Total energy in the final basis set = -1510.29881478
   11   -1510.2988101391      3.21E-09 Convergence criterion met
 Total energy in the final basis set = -1510.29881014
   11   -1510.2987964167      5.39E-09 Convergence criterion met
 Total energy in the final basis set = -1510.29879642
   11   -1510.2987875898      6.05E-09 Convergence criterion met
 Total energy in the final basis set = -1510.29878759

             Standard Nuclear Orientation (Angstroms)
    I     Atom           X                Y                Z
 ----------------------------------------------------------------
    1      O      -0.9753423178    -0.9810219241     0.5765354823
    2      C      -2.0789505253    -1.1471727204     0.0021957512
    3      C      -3.4661533222    -0.7229826615     0.6068807883
    4      C      -3.4322134794     0.7492868714     1.2023075922
    5      C      -2.0714973653     1.4940067970     0.9817332505
    6      O      -1.8186905060     1.5614392249    -0.4305044992
    7      C      -0.5546371031     2.2851690627    -0.6973017784
    8      C       0.1134295975     1.6730666853    -1.9761030254
    9      O       0.7167371185     0.3430603317    -1.7279108508
   10      C       2.0240047947     0.4705354549    -1.1445387639
   11      C       2.6023004329    -0.9581619947    -0.8977687743
   12      C       4.0989617416    -0.9547563303    -0.3754932703
   13      C       4.7071440464     0.4833785020    -0.1701227181
   14      O       5.4601371058     1.0894773097    -0.9636744486
   15      O      -2.2573926298    -1.7557991570    -1.2660673378
   16      O       4.3467235099     0.9638895783     1.1303263950
   17      O       2.5616556899     1.5752000646    -0.9137602376
   18      C       4.8365021933     2.3488631406     1.3020309200
   19      C       1.8545302732    -1.7096398022     0.2947055717
   20      C       2.1916746510    -3.2470642440     0.1658901091
   21      C       3.6882479544    -3.2763052338     0.6517079226
   22      C       3.9301310297    -1.7509400525     0.9885352142
   23      O       2.6155472759    -1.2918370547     1.4908366096
   24      H       2.5051930557    -1.5278897858    -1.8398733244
   25      H       4.7548609211    -1.4889778484    -1.0855291499
   26      H       0.7714748475    -1.4534025367     0.3974881836
   27      H       1.5409787396    -3.8375963063     0.8306343382
   28      H       2.0712364547    -3.6179933883    -0.8645051450
   29      H       3.8078080107    -3.8929760042     1.5566233837
   30      H       4.3803425413    -3.6461400955    -0.1216760585
   31      H       4.7234222790    -1.5520344763     1.7341345690
   32      O      -1.3292517208     1.9902811981     1.8558506635
   33      C      -0.9454752944    -2.0897290020    -1.8777190213
   34      C      -4.6337860603    -0.5969366899    -0.4578615944
   35      C      -6.0070603885    -0.5708661837     0.3211404363
   36      C      -5.9856384188     0.8817429660     0.9261936305
   37      C      -4.6091782068     1.4234942162     0.3700905366
   38      O      -4.4952625723     0.7889452669    -0.9617402803
   39      H      -3.7239064048    -1.4531845198     1.3966886709
   40      H      -3.6409245457     0.7524937143     2.2862948037
   41      H      -0.4608643756    -2.9303410360    -1.3414265269
   42      H      -4.5661900916    -1.3219986670    -1.2910973179
   43      H      -6.8478647185    -0.7035636008    -0.3781752871
   44      H      -6.0633745975    -1.3544523156     1.0935799479
   45      H      -6.8205258816     1.4909969127     0.5451696757
   46      H      -6.0183230394     0.8860395536     2.0274891522
   47      H      -4.5365171743     2.5248506720     0.2825394505
   48      H      -0.2688584360    -1.2008074022    -1.8731988406
   49      H      -1.1722369351    -2.4015800175    -2.9133280384
   50      H       4.5650288854     2.6438251436     2.3323284607
   51      H       4.3506497356     3.0351064900     0.5783493469
   52      H       5.9360074007     2.4163478770     1.1709718551
   53      H      -0.6555321762     1.5135122829    -2.7590921472
   54      H       0.8886453834     2.3781783188    -2.3456004250
   55      H       0.1197347458     2.2190431414     0.1835226139
   56      H      -0.7741334222     3.3592794728    -0.8889354513
 ----------------------------------------------------------------

    9   -1510.2987876024      5.64E-09 Convergence criterion met
 Total energy in the final basis set = -1510.29878760
 Final energy is   -1510.29878760235
 **  OPTIMIZATION CONVERGED  **

                    Orbital Energies (a.u.)
 --------------------------------------------------------------

 Alpha MOs
 -- Occupied --
-18.949 -18.944 -18.930 -18.916 -18.891 -18.889 -18.881 -18.876
-18.876 -18.852 -10.110 -10.110 -10.099 -10.084 -10.083 -10.072
-10.062 -10.060 -10.051 -10.049 -10.048 -10.041 -10.038 -10.037
-10.035 -10.027 -10.022 -10.021 -10.012 -10.011  -1.025  -1.018
 -1.008  -0.992  -0.972  -0.958  -0.949  -0.942  -0.935  -0.918
 -0.765  -0.756  -0.729  -0.720  -0.713  -0.704  -0.692  -0.660
 -0.646  -0.618  -0.598  -0.579  -0.548  -0.539  -0.536  -0.529
 -0.517  -0.506  -0.494  -0.474  -0.470  -0.456  -0.444  -0.437
 -0.435  -0.432  -0.426  -0.415  -0.411  -0.406  -0.403  -0.397
 -0.395  -0.384  -0.373  -0.369  -0.361  -0.358  -0.353  -0.352
 -0.341  -0.333  -0.333  -0.330  -0.323  -0.322  -0.314  -0.312
 -0.306  -0.305  -0.300  -0.299  -0.295  -0.291  -0.277  -0.273
 -0.271  -0.262  -0.249  -0.248  -0.237  -0.235  -0.221  -0.193
 -0.182  -0.172  -0.163  -0.161  -0.158  -0.151  -0.145  -0.135
 -0.132

          Ground-State Mulliken Net Atomic Charges

     Atom                 Charge (a.u.)
  ----------------------------------------
      1 O                    -0.218180
      2 C                     0.222585
      3 C                    -0.077232
      4 C                    -0.078952
      5 C                     0.212118
      6 O                    -0.174545
      7 C                    -0.052357
      8 C                    -0.047226
      9 O                    -0.173085
     10 C                     0.219337
     11 C                    -0.080954
     12 C                    -0.081575
     13 C                     0.212192
     14 O                    -0.223157
     15 O                    -0.165531
     16 O                    -0.167476
     17 O                    -0.204240
     18 C                    -0.127164
     19 C                     0.005858
     20 C                    -0.145645
     21 C                    -0.145031
     22 C                     0.026737
     23 O                    -0.187455
     24 H                     0.082823
     25 H                     0.080957
     26 H                     0.113521
     27 H                     0.074725
     28 H                     0.067211
     29 H                     0.075845
     30 H                     0.070759
     31 H                     0.084308
     32 O                    -0.208408
     33 C                    -0.146873
     34 C                     0.023733
     35 C                    -0.144112
     36 C                    -0.144058
     37 C                     0.026179
     38 O                    -0.187064
     39 H                     0.085570
     40 H                     0.086217
     41 H                     0.080111
     42 H                     0.092632
     43 H                     0.077964
     44 H                     0.073243
     45 H                     0.078099
     46 H                     0.074352
     47 H                     0.082653
     48 H                     0.115067
     49 H                     0.084812
     50 H                     0.087930
     51 H                     0.090888
     52 H                     0.085104
     53 H                     0.097704
     54 H                     0.097751
     55 H                     0.106108
     56 H                     0.085224
  ----------------------------------------
  Sum of atomic charges =    -0.000000

                    Cartesian Multipole Moments
 -----------------------------------------------------------------
    Charge (ESU x 10^10)
                -0.0000
    Dipole Moment (Debye)
         X      -2.7070      Y      -1.5992      Z      -1.0932
       Tot       3.3287
    Quadrupole Moments (Debye-Ang)
        XX    -156.6128     XY      -4.4500     YY    -150.7593
        XZ      -3.1669     YZ       1.3266     ZZ    -162.0836

 Total job time:  106.09s(wall), 5059.51s(cpu)
        *  Thank you very much for using Q-Chem.  Have a nice day.  *
