 Q-Chem 5.0, Q-Chem, Inc., Pleasanton, CA (2017)
 Q-Chem 5.0.1 for Intel X86 EM64T Linux

User input:
--------------------------------------------------------------
$molecule
0  1
O -3.94934 -3.66094 2.70899
C -3.26408 -4.56952 2.26188
C -3.36658 -6.02376 2.66595
C -4.48492 -6.40221 3.6508
C -5.48576 -5.31799 3.9838
O -6.22633 -5.01435 2.8771
C -7.26928 -4.06949 3.13929
C -7.74027 -3.43151 1.83649
O -6.70103 -2.60153 1.29428
C -6.64473 -1.33997 1.78869
C -5.5232 -0.52359 1.19174
C -5.74436 0.99587 1.21661
C -6.84891 1.48798 2.13012
O -7.8565 0.86163 2.4251
O -2.29787 -4.33721 1.33888
O -6.8255 2.81376 2.43968
O -6.9366 -1.17751 2.96719
C -7.7879 3.46039 3.18714
C -4.14442 -0.54597 1.89835
C -3.03795 -0.10178 0.92305
C -3.28692 1.37484 0.84259
C -4.42773 1.49171 1.83939
O -4.16964 0.51661 2.81007
H -5.38226 -0.88296 0.1468
H -5.92393 1.4502 0.21727
H -3.88881 -1.49966 2.33744
H -2.05887 -0.2388 1.43282
H -3.02364 -0.60055 -0.06688
H -2.38758 1.91338 1.21834
H -3.56877 1.75953 -0.16178
H -4.46335 2.53885 2.21086
O -5.69885 -4.90954 5.11939
C -2.00587 -3.13089 0.77116
C -3.72785 -6.95279 1.48541
C -3.25457 -8.37579 1.7824
C -4.24961 -8.78961 2.84845
C -5.15484 -7.55363 2.8778
O -5.1269 -7.08713 1.54988
H -2.36271 -6.30335 3.05872
H -4.05837 -6.74353 4.62075
H -1.68021 -2.42867 1.56215
H -3.31554 -6.60999 0.51149
H -3.44438 -8.98332 0.8685
H -2.18462 -8.46904 2.06764
H -4.8145 -9.67378 2.47784
H -3.81317 -9.00897 3.84688
H -6.15639 -7.80783 3.28951
H -2.89786 -2.77413 0.22089
H -1.17327 -3.26068 0.0501
H -7.51298 4.53043 3.28649
H -7.84904 3.01078 4.20131
H -8.77602 3.39021 2.68427
H -7.98414 -4.23678 1.11144
H -8.67263 -2.84259 1.99876
H -6.96441 -3.29237 3.86799
H -8.12339 -4.62133 3.58942
$end

$opt
CONSTRAINT
tors           1           2           3           4      +4.226
tors           3           4           5           6     +66.861
tors           4           5           6           7    +175.331
tors           5           6           7           8    +161.202
tors           6           7           8           9     -67.881
tors           7           8           9          10     -84.482
tors           8           9          10          11    +179.338
tors           9          10          11          12    +154.873
tors          11          12          13          14     -29.668
ENDCONSTRAINT
$end

$rem
JOBTYPE                   OPT
METHOD                    B3LYP
DFT_D                     d3_op
BASIS                     STO-3G
GEOM_OPT_MAX_CYCLES       100
GEOM_OPT_TOL_GRADIENT     300
GEOM_OPT_TOL_DISPLACEMENT 1200
GEOM_OPT_TOL_ENERGY       100
SYMMETRY                  False
THRESH                    12
SCF_CONVERGENCE           8
MAX_SUB_FILE_NUM          128
MEM_STATIC                400
MEM_TOTAL                 4000
$end
--------------------------------------------------------------

   16   -1510.1236447312      2.18E-09 Convergence criterion met
 Total energy in the final basis set = -1510.12364473
   13   -1510.1985290318      9.63E-09 Convergence criterion met
 Total energy in the final basis set = -1510.19852903
   15   -1510.2280552553      2.25E-09 Convergence criterion met
 Total energy in the final basis set = -1510.22805526
   14   -1510.2602215865      5.56E-09 Convergence criterion met
 Total energy in the final basis set = -1510.26022159
   13   -1510.2704772179      8.59E-09 Convergence criterion met
 Total energy in the final basis set = -1510.27047722
   13   -1510.2764192706      6.24E-09 Convergence criterion met
 Total energy in the final basis set = -1510.27641927
   13   -1510.2799020157      3.18E-09 Convergence criterion met
 Total energy in the final basis set = -1510.27990202
   12   -1510.2820175698      9.02E-09 Convergence criterion met
   10   -1510.2866715704      7.75E-09 Convergence criterion met
 Total energy in the final basis set = -1510.28667157
   11   -1510.2867200691      8.37E-09 Convergence criterion met
 Total energy in the final basis set = -1510.28672007
   10   -1510.2867375519      5.43E-09 Convergence criterion met
 Total energy in the final basis set = -1510.28673755
    9   -1510.2867509053      7.65E-09 Convergence criterion met
 Total energy in the final basis set = -1510.28675091
    9   -1510.2867536600      6.81E-09 Convergence criterion met
 Total energy in the final basis set = -1510.28675366
    9   -1510.2867565730      5.26E-09 Convergence criterion met
 Total energy in the final basis set = -1510.28675657

             Standard Nuclear Orientation (Angstroms)
    I     Atom           X                Y                Z
 ----------------------------------------------------------------
    1      O      -1.2265522390    -0.9428377417     0.6617820264
    2      C      -2.2792953795    -1.4702730994     0.2359011175
    3      C      -3.7587581059    -0.9745065921     0.3949549743
    4      C      -3.9325714805     0.4250163926     1.1111959659
    5      C      -2.5970807023     1.2059194023     1.3830165708
    6      O      -2.0296232731     1.5935586338     0.1280926623
    7      C      -0.8277420454     2.4289061503     0.3467151321
    8      C      -0.0041317419     2.4070601291    -0.9842433209
    9      O       0.5500712174     1.0511013188    -1.2223760265
   10      C       1.7840038629     0.9079527400    -0.5068111233
   11      C       2.3419263606    -0.5348440154    -0.7586062807
   12      C       3.9080938652    -0.6318504380    -0.5873063510
   13      C       4.6793185938     0.7233827082    -0.7720027972
   14      O       4.3536379673     1.6918659228    -1.4915280933
   15      O      -2.3305525839    -2.6721105505    -0.5364585079
   16      O       5.8874916033     0.6718085237    -0.0042297016
   17      O       2.2545236807     1.7820528914     0.2526385981
   18      C       6.6446279205     1.9330001379    -0.1717122909
   19      C       1.8682217631    -1.4207329341     0.4777773607
   20      C       2.3144009322    -2.9242588022     0.2632790604
   21      C       3.8406136499    -2.8621976871     0.6401608989
   22      C       4.0219007863    -1.3104680572     0.8491092539
   23      O       2.7707207871    -0.9296568477     1.5467246210
   24      H       1.9851854631    -0.9148047929    -1.7317529803
   25      H       4.3156779018    -1.3223828955    -1.3502903769
   26      H       0.7962876544    -1.2732346796     0.7415153855
   27      H       1.7586744609    -3.5926765550     0.9397490440
   28      H       2.1499613335    -3.2589929276    -0.7734409372
   29      H       4.0439251598    -3.4019620683     1.5790689853
   30      H       4.4956006893    -3.2635392017    -0.1495647844
   31      H       4.9099453501    -0.9976436303     1.4307219123
   32      O      -2.1274755817     1.5109126407     2.5008258906
   33      C      -0.9700545319    -3.1955874442    -0.7868662338
   34      C      -4.4879353209    -0.7083376040    -0.9968757752
   35      C      -6.0451360670    -0.7745297904    -0.7428125838
   36      C      -6.2758512773     0.5704724270     0.0408897394
   37      C      -4.8202306056     1.1861592115     0.0334638455
   38      O      -4.2488979903     0.7280001983    -1.2540297014
   39      H      -4.2979265914    -1.7619648161     0.9541363231
   40      H      -4.4554146313     0.3153873903     2.0772277698
   41      H      -0.4713855261    -3.4978290761     0.1554473399
   42      H      -4.1115720019    -1.3296541609    -1.8324329642
   43      H      -6.5881655059    -0.7797232869    -1.7014543716
   44      H      -6.3398574721    -1.6648714528    -0.1649621825
   45      H      -6.9780628275     1.2327642226    -0.4897490574
   46      H      -6.6497129183     0.4071547570     1.0644142713
   47      H      -4.7763002255     2.2900979692     0.1037253926
   48      H      -0.3348110817    -2.4473821163    -1.3022006156
   49      H      -1.0986687811    -4.0821448343    -1.4346911202
   50      H       7.5477068024     1.8323822957     0.4580690788
   51      H       6.0531691811     2.8095973181     0.1625823901
   52      H       6.9444721139     2.0933228796    -1.2276685770
   53      H      -0.6662986132     2.6260043585    -1.8459807369
   54      H       0.8110952640     3.1594621720    -0.9237904772
   55      H      -0.2173484986     2.0369213427     1.1880264844
   56      H      -1.1235155161     3.4740238578     0.5913081178
 ----------------------------------------------------------------

    9   -1510.2867575202      2.33E-09 Convergence criterion met
 Total energy in the final basis set = -1510.28675752
 Final energy is   -1510.28675752025
 **  OPTIMIZATION CONVERGED  **

                    Orbital Energies (a.u.)
 --------------------------------------------------------------

 Alpha MOs
 -- Occupied --
-18.944 -18.928 -18.923 -18.920 -18.890 -18.889 -18.878 -18.867
-18.863 -18.862 -10.110 -10.093 -10.090 -10.088 -10.071 -10.064
-10.061 -10.061 -10.060 -10.059 -10.051 -10.045 -10.041 -10.035
-10.031 -10.029 -10.021 -10.020 -10.016 -10.015  -1.020  -1.007
 -1.003  -0.997  -0.971  -0.961  -0.946  -0.932  -0.927  -0.921
 -0.764  -0.756  -0.725  -0.719  -0.712  -0.702  -0.690  -0.669
 -0.655  -0.609  -0.597  -0.572  -0.546  -0.538  -0.537  -0.531
 -0.516  -0.504  -0.487  -0.467  -0.462  -0.453  -0.446  -0.439
 -0.434  -0.430  -0.422  -0.418  -0.413  -0.408  -0.404  -0.402
 -0.389  -0.384  -0.370  -0.364  -0.360  -0.354  -0.350  -0.343
 -0.341  -0.334  -0.332  -0.329  -0.325  -0.319  -0.316  -0.313
 -0.306  -0.306  -0.301  -0.297  -0.287  -0.285  -0.282  -0.274
 -0.266  -0.260  -0.249  -0.243  -0.237  -0.235  -0.225  -0.187
 -0.173  -0.168  -0.164  -0.159  -0.150  -0.144  -0.142  -0.139
 -0.135

          Ground-State Mulliken Net Atomic Charges

     Atom                 Charge (a.u.)
  ----------------------------------------
      1 O                    -0.206426
      2 C                     0.218782
      3 C                    -0.077863
      4 C                    -0.080864
      5 C                     0.212461
      6 O                    -0.170714
      7 C                    -0.048237
      8 C                    -0.047592
      9 O                    -0.171059
     10 C                     0.214211
     11 C                    -0.078438
     12 C                    -0.079836
     13 C                     0.213480
     14 O                    -0.214644
     15 O                    -0.169821
     16 O                    -0.171841
     17 O                    -0.214047
     18 C                    -0.127825
     19 C                     0.012990
     20 C                    -0.146269
     21 C                    -0.142587
     22 C                     0.024331
     23 O                    -0.189370
     24 H                     0.081852
     25 H                     0.081204
     26 H                     0.102111
     27 H                     0.072977
     28 H                     0.068846
     29 H                     0.076674
     30 H                     0.071452
     31 H                     0.091200
     32 O                    -0.216097
     33 C                    -0.129096
     34 C                     0.026134
     35 C                    -0.143099
     36 C                    -0.144852
     37 C                     0.026998
     38 O                    -0.185300
     39 H                     0.085893
     40 H                     0.084073
     41 H                     0.089532
     42 H                     0.087895
     43 H                     0.078125
     44 H                     0.073689
     45 H                     0.077954
     46 H                     0.073963
     47 H                     0.083355
     48 H                     0.092275
     49 H                     0.091892
     50 H                     0.089184
     51 H                     0.092510
     52 H                     0.086911
     53 H                     0.093140
     54 H                     0.096670
     55 H                     0.102021
     56 H                     0.081095
  ----------------------------------------
  Sum of atomic charges =    -0.000000

                    Cartesian Multipole Moments
 -----------------------------------------------------------------
    Charge (ESU x 10^10)
                -0.0000
    Dipole Moment (Debye)
         X      -1.2434      Y      -2.6464      Z      -1.6038
       Tot       3.3349
    Quadrupole Moments (Debye-Ang)
        XX    -137.4709     XY      -1.0330     YY    -149.4524
        XZ      -4.6634     YZ       1.0308     ZZ    -168.3891

 Total job time:  62.80s(wall), 2991.97s(cpu)
        *  Thank you very much for using Q-Chem.  Have a nice day.  *
