 Q-Chem 5.0, Q-Chem, Inc., Pleasanton, CA (2017)
 Q-Chem 5.0.1 for Intel X86 EM64T Linux

User input:
--------------------------------------------------------------
$molecule
0  1
O -1.226552239 -0.9428377417 0.6617820264
C -2.2792953795 -1.4702730994 0.2359011175
C -3.7587581059 -0.9745065921 0.3949549743
C -3.9325714805 0.4250163926 1.1111959659
C -2.5970807023 1.2059194023 1.3830165708
O -2.0296232731 1.5935586338 0.1280926623
C -0.8277420454 2.4289061503 0.3467151321
C -0.0041317419 2.4070601291 -0.9842433209
O 0.5500712174 1.0511013188 -1.2223760265
C 1.7840038629 0.90795274 -0.5068111233
C 2.3419263606 -0.5348440154 -0.7586062807
C 3.9080938652 -0.631850438 -0.587306351
C 4.6793185938 0.7233827082 -0.7720027972
O 4.3536379673 1.6918659228 -1.4915280933
O -2.3305525839 -2.6721105505 -0.5364585079
O 5.8874916033 0.6718085237 -0.0042297016
O 2.2545236807 1.7820528914 0.2526385981
C 6.6446279205 1.9330001379 -0.1717122909
C 1.8682217631 -1.4207329341 0.4777773607
C 2.3144009322 -2.9242588022 0.2632790604
C 3.8406136499 -2.8621976871 0.6401608989
C 4.0219007863 -1.3104680572 0.8491092539
O 2.7707207871 -0.9296568477 1.546724621
H 1.9851854631 -0.9148047929 -1.7317529803
H 4.3156779018 -1.3223828955 -1.3502903769
H 0.7962876544 -1.2732346796 0.7415153855
H 1.7586744609 -3.592676555 0.939749044
H 2.1499613335 -3.2589929276 -0.7734409372
H 4.0439251598 -3.4019620683 1.5790689853
H 4.4956006893 -3.2635392017 -0.1495647844
H 4.9099453501 -0.9976436303 1.4307219123
O -2.1274755817 1.5109126407 2.5008258906
C -0.9700545319 -3.1955874442 -0.7868662338
C -4.4879353209 -0.708337604 -0.9968757752
C -6.045136067 -0.7745297904 -0.7428125838
C -6.2758512773 0.570472427 0.0408897394
C -4.8202306056 1.1861592115 0.0334638455
O -4.2488979903 0.7280001983 -1.2540297014
H -4.2979265914 -1.7619648161 0.9541363231
H -4.4554146313 0.3153873903 2.0772277698
H -0.4713855261 -3.4978290761 0.1554473399
H -4.1115720019 -1.3296541609 -1.8324329642
H -6.5881655059 -0.7797232869 -1.7014543716
H -6.3398574721 -1.6648714528 -0.1649621825
H -6.9780628275 1.2327642226 -0.4897490574
H -6.6497129183 0.407154757 1.0644142713
H -4.7763002255 2.2900979692 0.1037253926
H -0.3348110817 -2.4473821163 -1.3022006156
H -1.0986687811 -4.0821448343 -1.4346911202
H 7.5477068024 1.8323822957 0.4580690788
H 6.0531691811 2.8095973181 0.1625823901
H 6.9444721139 2.0933228796 -1.227668577
H -0.6662986132 2.6260043585 -1.8459807369
H 0.811095264 3.159462172 -0.9237904772
H -0.2173484986 2.0369213427 1.1880264844
H -1.1235155161 3.4740238578 0.5913081178
$end

$rem
JOBTYPE                   OPT
METHOD                    B3LYP
DFT_D                     d3_op
BASIS                     STO-3G
GEOM_OPT_MAX_CYCLES       100
GEOM_OPT_TOL_GRADIENT     300
GEOM_OPT_TOL_DISPLACEMENT 1200
GEOM_OPT_TOL_ENERGY       100
SYMMETRY                  False
THRESH                    12
SCF_CONVERGENCE           8
MAX_SUB_FILE_NUM          128
MEM_STATIC                400
MEM_TOTAL                 4000
$end
--------------------------------------------------------------

   16   -1510.2867475442      6.96E-09 Convergence criterion met
 Total energy in the final basis set = -1510.28674754
   14   -1510.2764618646      2.96E-09 Convergence criterion met
 Total energy in the final basis set = -1510.27646186
   14   -1510.2852748899      3.49E-09 Convergence criterion met
 Total energy in the final basis set = -1510.28527489
   14   -1510.2873764529      4.09E-09 Convergence criterion met
 Total energy in the final basis set = -1510.28737645
   13   -1510.2888669404      9.20E-09 Convergence criterion met
 Total energy in the final basis set = -1510.28886694
   13   -1510.2895736358      5.41E-09 Convergence criterion met
 Total energy in the final basis set = -1510.28957364
   13   -1510.2900989614      9.02E-09 Convergence criterion met
 Total energy in the final basis set = -1510.29009896
   13   -1510.2917365325      5.95E-09 Convergence criterion met
   11   -1510.2987833260      3.22E-09 Convergence criterion met
 Total energy in the final basis set = -1510.29878333
   10   -1510.2987765685      7.24E-09 Convergence criterion met
 Total energy in the final basis set = -1510.29877657
   10   -1510.2987641626      7.77E-09 Convergence criterion met
 Total energy in the final basis set = -1510.29876416
    9   -1510.2987626920      8.76E-09 Convergence criterion met
 Total energy in the final basis set = -1510.29876269
    9   -1510.2987585794      4.73E-09 Convergence criterion met
 Total energy in the final basis set = -1510.29875858
    9   -1510.2987621338      4.43E-09 Convergence criterion met
 Total energy in the final basis set = -1510.29876213

             Standard Nuclear Orientation (Angstroms)
    I     Atom           X                Y                Z
 ----------------------------------------------------------------
    1      O      -0.9520726005    -1.0078505615     0.5586750357
    2      C      -2.0529433817    -1.1739382935    -0.0208858402
    3      C      -3.4441905394    -0.7589302298     0.5812945830
    4      C      -3.4241865452     0.7160253844     1.1703447319
    5      C      -2.0735552377     1.4761410000     0.9426041933
    6      O      -1.8147982225     1.5227664661    -0.4693193035
    7      C      -0.5650182177     2.2682275821    -0.7430220727
    8      C       0.1129997192     1.6592977024    -2.0179752864
    9      O       0.7366864809     0.3395683017    -1.7649363664
   10      C       2.0277434440     0.4879072650    -1.1509720421
   11      C       2.6289361820    -0.9313455758    -0.9056887618
   12      C       4.1213730043    -0.9050403491    -0.3722522635
   13      C       4.6990714822     0.5426372945    -0.1463507992
   14      O       5.4446153181     1.1731729816    -0.9278726804
   15      O      -2.2246362209    -1.7759193131    -1.2933255887
   16      O       4.3200627579     1.0009853977     1.1566182952
   17      O       2.5369534369     1.6009443331    -0.8972383322
   18      C       4.7810788928     2.3933838712     1.3473093223
   19      C       1.8857508070    -1.7035365894     0.2768105411
   20      C       2.2475140678    -3.2343183164     0.1362657287
   21      C       3.7423519264    -3.2441453057     0.6280621326
   22      C       3.9580431982    -1.7186224645     0.9819162540
   23      O       2.6335485696    -1.2853376548     1.4811036830
   24      H       2.5493869171    -1.4979280415    -1.8512266849
   25      H       4.7928422963    -1.4182372158    -1.0832258715
   26      H       0.7984626260    -1.4643246715     0.3763784437
   27      H       1.6035790561    -3.8404406431     0.7935904435
   28      H       2.1367021423    -3.5985047077    -0.8976309474
   29      H       3.8684737208    -3.8683609427     1.5268817163
   30      H       4.4434580811    -3.5943750480    -0.1463975483
   31      H       4.7437919334    -1.5148639869     1.7341768417
   32      O      -1.3432503957     1.9987747301     1.8113824786
   33      C      -0.9095042897    -2.1039624701    -1.9012340865
   34      C      -4.6133433541    -0.6486177017    -0.4837330519
   35      C      -5.9864965498    -0.6344478293     0.2956296253
   36      C      -5.9796359056     0.8198431487     0.8969770948
   37      C      -4.6097810095     1.3746811559     0.3375968189
   38      O      -4.4899832182     0.7370461528    -0.9922323643
   39      H      -3.6955660531    -1.4875590598     1.3745632329
   40      H      -3.6303100726     0.7223085915     2.2548193745
   41      H      -0.4209211228    -2.9403696001    -1.3619718184
   42      H      -4.5383802413    -1.3756497327    -1.3145795714
   43      H      -6.8260671698    -0.7771944118    -0.4031836348
   44      H      -6.0349341255    -1.4165849530     1.0700922790
   45      H      -6.8214930409     1.4193163168     0.5157724175
   46      H      -6.0105838126     0.8265101084     1.9982951607
   47      H      -4.5491759079     2.4764842643     0.2464238121
   48      H      -0.2380985998    -1.2110583425    -1.8981561544
   49      H      -1.1324556538    -2.4197143269    -2.9364775567
   50      H       4.4954192921     2.6718471109     2.3783552143
   51      H       4.2878513212     3.0777551510     0.6268734444
   52      H       5.8801395880     2.4837394991     1.2264562899
   53      H      -0.6528901941     1.4833453709    -2.8004406614
   54      H       0.8762031782     2.3752166123    -2.3918533113
   55      H       0.1127006364     2.2220531487     0.1364188232
   56      H      -0.8046049567     3.3366024481    -0.9425243811
 ----------------------------------------------------------------

    9   -1510.2987619386      2.80E-09 Convergence criterion met
 Total energy in the final basis set = -1510.29876194
 Final energy is   -1510.29876193858
 **  OPTIMIZATION CONVERGED  **

                    Orbital Energies (a.u.)
 --------------------------------------------------------------

 Alpha MOs
 -- Occupied --
-18.949 -18.944 -18.930 -18.916 -18.891 -18.889 -18.881 -18.876
-18.876 -18.852 -10.110 -10.109 -10.099 -10.084 -10.083 -10.073
-10.062 -10.060 -10.051 -10.049 -10.048 -10.041 -10.038 -10.037
-10.034 -10.027 -10.022 -10.021 -10.012 -10.011  -1.025  -1.018
 -1.008  -0.992  -0.972  -0.958  -0.949  -0.942  -0.935  -0.918
 -0.765  -0.756  -0.729  -0.720  -0.713  -0.704  -0.692  -0.660
 -0.646  -0.618  -0.598  -0.579  -0.548  -0.539  -0.536  -0.529
 -0.517  -0.506  -0.494  -0.474  -0.470  -0.456  -0.444  -0.437
 -0.435  -0.432  -0.425  -0.415  -0.411  -0.406  -0.403  -0.397
 -0.395  -0.384  -0.374  -0.369  -0.361  -0.358  -0.353  -0.352
 -0.341  -0.333  -0.333  -0.330  -0.323  -0.322  -0.314  -0.312
 -0.306  -0.305  -0.300  -0.299  -0.295  -0.292  -0.277  -0.273
 -0.271  -0.262  -0.249  -0.248  -0.237  -0.235  -0.221  -0.193
 -0.182  -0.172  -0.163  -0.161  -0.158  -0.151  -0.145  -0.135
 -0.132

          Ground-State Mulliken Net Atomic Charges

     Atom                 Charge (a.u.)
  ----------------------------------------
      1 O                    -0.218520
      2 C                     0.222551
      3 C                    -0.077242
      4 C                    -0.078927
      5 C                     0.212041
      6 O                    -0.174407
      7 C                    -0.052360
      8 C                    -0.046995
      9 O                    -0.173063
     10 C                     0.219273
     11 C                    -0.081059
     12 C                    -0.081523
     13 C                     0.212149
     14 O                    -0.223201
     15 O                    -0.165546
     16 O                    -0.167300
     17 O                    -0.204227
     18 C                    -0.127137
     19 C                     0.005895
     20 C                    -0.145594
     21 C                    -0.145053
     22 C                     0.026744
     23 O                    -0.187330
     24 H                     0.082839
     25 H                     0.080955
     26 H                     0.113466
     27 H                     0.074691
     28 H                     0.067266
     29 H                     0.075848
     30 H                     0.070751
     31 H                     0.084280
     32 O                    -0.208324
     33 C                    -0.146913
     34 C                     0.023756
     35 C                    -0.144098
     36 C                    -0.144060
     37 C                     0.026148
     38 O                    -0.187056
     39 H                     0.085530
     40 H                     0.086299
     41 H                     0.080102
     42 H                     0.092670
     43 H                     0.077959
     44 H                     0.073252
     45 H                     0.078109
     46 H                     0.074380
     47 H                     0.082571
     48 H                     0.114935
     49 H                     0.084751
     50 H                     0.087986
     51 H                     0.090950
     52 H                     0.085056
     53 H                     0.097830
     54 H                     0.097317
     55 H                     0.106275
     56 H                     0.085315
  ----------------------------------------
  Sum of atomic charges =    -0.000000

                    Cartesian Multipole Moments
 -----------------------------------------------------------------
    Charge (ESU x 10^10)
                -0.0000
    Dipole Moment (Debye)
         X      -2.6695      Y      -1.6261      Z      -1.1249
       Tot       3.3221
    Quadrupole Moments (Debye-Ang)
        XX    -156.4464     XY      -4.6478     YY    -151.0282
        XZ      -3.2784     YZ       1.2935     ZZ    -161.8484

 Total job time:  108.60s(wall), 5178.83s(cpu)
        *  Thank you very much for using Q-Chem.  Have a nice day.  *
