 Q-Chem 5.0, Q-Chem, Inc., Pleasanton, CA (2017)
 Q-Chem 5.0.1 for Intel X86 EM64T Linux

User input:
--------------------------------------------------------------
$molecule
0  1
O -1.3504916794 -0.9690596702 0.7149105397
C -2.4173259288 -1.4159646553 0.2335828601
C -3.8785779626 -0.8781947705 0.4478442048
C -3.9552724424 0.5314082116 1.1730231296
C -2.5460436523 1.1908000821 1.3791839048
O -2.0226445456 1.5306051983 0.090102184
C -0.747691081 2.2624969351 0.236671907
C -0.0578710541 2.2179826591 -1.1716111686
O 0.6409850918 0.9218418851 -1.3393393137
C 1.8954077329 0.9142937812 -0.6545067614
C 2.4531478678 -0.5459436311 -0.7879500419
C 4.0044430644 -0.6862964057 -0.5367347994
C 4.8286427905 0.6415952304 -0.698149465
O 4.6063989086 1.5805203356 -1.4920355992
O -2.4862516905 -2.5394152294 -0.6458500244
O 5.9460864174 0.6037960149 0.1975323566
O 2.3546843234 1.875645971 -0.0029417702
C 6.7467420641 1.8408402208 0.0534940536
C 1.8830881395 -1.3658565542 0.4542532876
C 2.2579247831 -2.8940956301 0.2955091263
C 3.7726965404 -2.8939809887 0.7212579647
C 4.0220421443 -1.3476270065 0.9116961237
O 2.7637118466 -0.8910367799 1.5480514955
H 2.1366719423 -0.967044609 -1.7579851561
H 4.4268818252 -1.4001313637 -1.2696140753
H 0.8109802934 -1.1657866613 0.6763317245
H 1.647293679 -3.5138745315 0.9711503502
H 2.1088592349 -3.2483599984 -0.7371055965
H 3.9216337972 -3.4259411495 1.6747041059
H 4.4330023659 -3.3384572594 -0.0403522017
H 4.8985997087 -1.0697846972 1.5273789168
O -1.9949194274 1.4653105151 2.4667371057
C -1.1266983128 -3.0601437504 -0.9187509227
C -4.6504580562 -0.5732636383 -0.9095518902
C -6.1960165804 -0.5506854174 -0.5875908621
C -6.3198743594 0.8126551486 0.1893909907
C -4.8311883593 1.3416001396 0.1240392932
O -4.3403329143 0.846801855 -1.1829488079
H -4.423392628 -1.6465453296 1.0281200821
H -4.4456726602 0.452666783 2.1585299229
H -0.6462780957 -3.4473351349 0.0024313603
H -4.3457208229 -1.2153383036 -1.7585238077
H -6.7809396959 -0.5363695593 -1.5211014081
H -6.5121026576 -1.4177601868 0.0138905243
H -6.9999369846 1.5108139617 -0.3238237104
H -6.6663970308 0.6803892909 1.2268938173
H -4.7198854603 2.4412793752 0.1867314271
H -0.4734167877 -2.2782179335 -1.3566627752
H -1.2561077241 -3.8860761362 -1.6419803937
H 7.5777023299 1.752442826 0.7773451188
H 6.1452918014 2.743482231 0.2852490431
H 7.1570056358 1.9455531836 -0.9718763114
H -0.8251644275 2.2645965929 -1.970231156
H 0.6524699946 3.0665519043 -1.2725046169
H -0.0978850952 1.7970428001 1.0080173269
H -0.9404171844 3.3163300454 0.5392003738
$end

$rem
JOBTYPE                   OPT
METHOD                    B3LYP
DFT_D                     d3_op
BASIS                     STO-3G
GEOM_OPT_MAX_CYCLES       100
GEOM_OPT_TOL_GRADIENT     300
GEOM_OPT_TOL_DISPLACEMENT 1200
GEOM_OPT_TOL_ENERGY       100
SYMMETRY                  False
THRESH                    12
SCF_CONVERGENCE           8
MAX_SUB_FILE_NUM          128
MEM_STATIC                400
MEM_TOTAL                 4000
$end
--------------------------------------------------------------

   15   -1510.2858769230      9.67E-09 Convergence criterion met
 Total energy in the final basis set = -1510.28587692
   14   -1510.2059407991      5.73E-09 Convergence criterion met
 Total energy in the final basis set = -1510.20594080
   14   -1510.2872676059      6.63E-09 Convergence criterion met
 Total energy in the final basis set = -1510.28726761
   14   -1510.2860456803      2.69E-09 Convergence criterion met
 Total energy in the final basis set = -1510.28604568
   14   -1510.2885913957      2.11E-09 Convergence criterion met
 Total energy in the final basis set = -1510.28859140
   14   -1510.2892895456      5.43E-09 Convergence criterion met
 Total energy in the final basis set = -1510.28928955
   13   -1510.2902575054      6.56E-09 Convergence criterion met
 Total energy in the final basis set = -1510.29025751
   13   -1510.2922189475      7.62E-09 Convergence criterion met
   12   -1510.2988314093      5.03E-09 Convergence criterion met
 Total energy in the final basis set = -1510.29883141
   12   -1510.2987765245      8.67E-09 Convergence criterion met
 Total energy in the final basis set = -1510.29877652
   12   -1510.2988105299      2.78E-09 Convergence criterion met
 Total energy in the final basis set = -1510.29881053
   11   -1510.2988193589      6.78E-09 Convergence criterion met
 Total energy in the final basis set = -1510.29881936
   11   -1510.2988146030      5.51E-09 Convergence criterion met
 Total energy in the final basis set = -1510.29881460
   10   -1510.2988083854      8.92E-09 Convergence criterion met
 Total energy in the final basis set = -1510.29880839

             Standard Nuclear Orientation (Angstroms)
    I     Atom           X                Y                Z
 ----------------------------------------------------------------
    1      O      -0.9696338393    -0.9907492034     0.5503059530
    2      C      -2.0739393177    -1.1467708885    -0.0255457917
    3      C      -3.4602011617    -0.7314700848     0.5875520532
    4      C      -3.4263680663     0.7334022551     1.2010613825
    5      C      -2.0668489003     1.4822590161     0.9882389155
    6      O      -1.8149424790     1.5667516330    -0.4232008964
    7      C      -0.5531276251     2.2971788548    -0.6817678500
    8      C       0.1168738896     1.7022743606    -1.9676734243
    9      O       0.7234724676     0.3703624597    -1.7382852042
   10      C       2.0221132852     0.4924132753    -1.1346306877
   11      C       2.6072077120    -0.9377936190    -0.9154779440
   12      C       4.1007118966    -0.9376185003    -0.3843209344
   13      C       4.6955112122     0.4987777229    -0.1321563572
   14      O       5.4522308276     1.1330306643    -0.8997919120
   15      O      -2.2535989741    -1.7339540583    -1.3037338499
   16      O       4.3174501075     0.9392923830     1.1772316214
   17      O       2.5489597455     1.5948491623    -0.8707505690
   18      C       4.7974373694     2.3212822775     1.3947553414
   19      C       1.8571916734    -1.7225548744     0.2542335707
   20      C       2.2004767917    -3.2547380175     0.0874280129
   21      C       3.6968189063    -3.2897902234     0.5738696797
   22      C       3.9301802990    -1.7735167548     0.9551544103
   23      O       2.6115009425    -1.3342608350     1.4644895305
   24      H       2.5198460949    -1.4862505859    -1.8710318160
   25      H       4.7653309001    -1.4453001003    -1.1055799818
   26      H       0.7731342498    -1.4717080399     0.3596039429
   27      H       1.5517592567    -3.8636470679     0.7374482287
   28      H       2.0823454189    -3.6017808064    -0.9515930451
   29      H       3.8192115257    -3.9321475357     1.4602864949
   30      H       4.3915367411    -3.6327716859    -0.2095471397
   31      H       4.7193892678    -1.5924790186     1.7095753003
   32      O      -1.3246076035     1.9689798807     1.8677479594
   33      C      -0.9423035230    -2.0588342673    -1.9216710030
   34      C      -4.6304274038    -0.5934408302    -0.4726566476
   35      C      -6.0019307716    -0.5768305323     0.3097265768
   36      C      -5.9802074511     0.8689075664     0.9308884938
   37      C      -4.6049121833     1.4173223435     0.3787556005
   38      O      -4.4934320822     0.7983992552    -0.9605970849
   39      H      -3.7150460044    -1.4714970944     1.3691194366
   40      H      -3.6337586048     0.7230047033     2.2852627810
   41      H      -0.4582752146    -2.9090921164    -1.4001972703
   42      H      -4.5648679407    -1.3086307277    -1.3145219407
   43      H      -6.8442061020    -0.7023388810    -0.3891553456
   44      H      -6.0561799929    -1.3688896237     1.0736364654
   45      H      -6.8158886261     1.4820515986     0.5579101795
   46      H      -6.0112918855     0.8610987077     2.0322142477
   47      H      -4.5324098270     2.5196290512     0.3039685042
   48      H      -0.2646177317    -1.1709162905    -1.9026410255
   49      H      -1.1700398137    -2.3527066041    -2.9623092194
   50      H       4.5076568606     2.5867540536     2.4280678270
   51      H       4.3205157926     3.0250759916     0.6820973864
   52      H       5.8986862517     2.3971648659     1.2841843027
   53      H      -0.6515262101     1.5506038978    -2.7527706107
   54      H       0.8896307122     2.4144941105    -2.3287431975
   55      H       0.1216025437     2.2230557039     0.1980898591
   56      H      -0.7758276937     3.3727387278    -0.8611410565
 ----------------------------------------------------------------

    9   -1510.2988083533      4.39E-09 Convergence criterion met
 Total energy in the final basis set = -1510.29880835
 Final energy is   -1510.29880835331
 **  OPTIMIZATION CONVERGED  **

                    Orbital Energies (a.u.)
 --------------------------------------------------------------

 Alpha MOs
 -- Occupied --
-18.949 -18.944 -18.930 -18.916 -18.891 -18.889 -18.881 -18.876
-18.876 -18.852 -10.110 -10.110 -10.099 -10.084 -10.083 -10.072
-10.062 -10.060 -10.051 -10.049 -10.048 -10.041 -10.038 -10.037
-10.034 -10.027 -10.022 -10.021 -10.012 -10.011  -1.025  -1.018
 -1.008  -0.992  -0.972  -0.958  -0.949  -0.942  -0.935  -0.918
 -0.765  -0.756  -0.729  -0.720  -0.713  -0.704  -0.692  -0.660
 -0.646  -0.618  -0.598  -0.579  -0.548  -0.539  -0.536  -0.529
 -0.517  -0.506  -0.494  -0.474  -0.470  -0.456  -0.444  -0.437
 -0.435  -0.432  -0.426  -0.415  -0.411  -0.406  -0.403  -0.397
 -0.395  -0.384  -0.374  -0.369  -0.361  -0.358  -0.353  -0.352
 -0.341  -0.333  -0.333  -0.330  -0.323  -0.322  -0.314  -0.312
 -0.306  -0.305  -0.300  -0.299  -0.295  -0.292  -0.277  -0.273
 -0.271  -0.262  -0.249  -0.248  -0.236  -0.235  -0.221  -0.193
 -0.182  -0.172  -0.163  -0.161  -0.158  -0.151  -0.145  -0.135
 -0.132

          Ground-State Mulliken Net Atomic Charges

     Atom                 Charge (a.u.)
  ----------------------------------------
      1 O                    -0.218205
      2 C                     0.222533
      3 C                    -0.077208
      4 C                    -0.078945
      5 C                     0.212086
      6 O                    -0.174550
      7 C                    -0.052452
      8 C                    -0.047100
      9 O                    -0.173084
     10 C                     0.219301
     11 C                    -0.081043
     12 C                    -0.081511
     13 C                     0.212180
     14 O                    -0.223168
     15 O                    -0.165493
     16 O                    -0.167353
     17 O                    -0.204233
     18 C                    -0.127134
     19 C                     0.005881
     20 C                    -0.145616
     21 C                    -0.145058
     22 C                     0.026720
     23 O                    -0.187310
     24 H                     0.082808
     25 H                     0.080946
     26 H                     0.113442
     27 H                     0.074694
     28 H                     0.067249
     29 H                     0.075824
     30 H                     0.070736
     31 H                     0.084222
     32 O                    -0.208365
     33 C                    -0.146840
     34 C                     0.023724
     35 C                    -0.144116
     36 C                    -0.144049
     37 C                     0.026181
     38 O                    -0.187048
     39 H                     0.085598
     40 H                     0.086239
     41 H                     0.080141
     42 H                     0.092630
     43 H                     0.077966
     44 H                     0.073251
     45 H                     0.078095
     46 H                     0.074356
     47 H                     0.082652
     48 H                     0.115016
     49 H                     0.084831
     50 H                     0.087997
     51 H                     0.090925
     52 H                     0.084973
     53 H                     0.097708
     54 H                     0.097426
     55 H                     0.106325
     56 H                     0.085226
  ----------------------------------------
  Sum of atomic charges =    -0.000000

                    Cartesian Multipole Moments
 -----------------------------------------------------------------
    Charge (ESU x 10^10)
                -0.0000
    Dipole Moment (Debye)
         X      -2.6991      Y      -1.5843      Z      -1.1407
       Tot       3.3311
    Quadrupole Moments (Debye-Ang)
        XX    -156.6136     XY      -4.5403     YY    -150.9332
        XZ      -3.3759     YZ       1.5391     ZZ    -161.8128

 Total job time:  99.91s(wall), 4767.14s(cpu)
        *  Thank you very much for using Q-Chem.  Have a nice day.  *
