 Q-Chem 5.0, Q-Chem, Inc., Pleasanton, CA (2017)
 Q-Chem 5.0.1 for Intel X86 EM64T Linux

User input:
--------------------------------------------------------------
$molecule
0  1
O -3.94934 -3.66094 2.70899
C -3.26408 -4.56952 2.26188
C -3.36658 -6.02376 2.66595
C -4.57193 -6.42971 3.52977
C -5.63372 -5.37401 3.74466
O -6.26635 -5.10519 2.56443
C -7.36238 -4.19551 2.70745
C -7.76107 -3.63473 1.34631
O -6.89015 -2.54968 0.98987
C -7.16715 -1.36118 1.58137
C -6.13982 -0.29765 1.2745
C -6.61109 1.14478 1.51024
C -7.87198 1.30131 2.3363
O -8.81598 0.52454 2.34295
O -2.27613 -4.26503 1.38001
O -8.04619 2.50936 2.93813
O -7.65716 -1.39886 2.7016
C -9.16076 2.86528 3.66877
C -4.89924 -0.35971 2.1813
C -3.71595 0.30166 1.48001
C -4.13881 1.75343 1.53405
C -5.41989 1.63489 2.36993
O -5.17708 0.54267 3.21921
H -5.83113 -0.44312 0.21376
H -6.72659 1.75534 0.58819
H -4.64136 -1.38535 2.49419
H -2.82946 0.16332 2.13988
H -3.4815 -0.08556 0.46536
H -3.35768 2.32409 2.084
H -4.33769 2.22902 0.54926
H -5.61551 2.60373 2.87813
O -5.97549 -4.96498 4.84821
C -2.02798 -2.99527 0.9024
C -3.58858 -6.96316 1.45725
C -3.10612 -8.37238 1.80164
C -4.18413 -8.8121 2.77209
C -5.12593 -7.60516 2.70402
O -4.98213 -7.14037 1.38372
H -2.39371 -6.28122 3.14202
H -4.23885 -6.74949 4.54259
H -1.77552 -2.31239 1.74156
H -3.09336 -6.61031 0.52648
H -3.19548 -8.98397 0.87511
H -2.0649 -8.4397 2.1839
H -4.68085 -9.71812 2.35917
H -3.83815 -9.00767 3.81014
H -6.155 -7.8885 3.01706
H -2.91873 -2.61173 0.36036
H -1.17029 -3.03133 0.20007
H -9.03276 3.90044 4.04628
H -9.2834 2.18082 4.53534
H -10.06775 2.82763 3.02835
H -7.72059 -4.4398 0.58198
H -8.81394 -3.26851 1.37231
H -7.18808 -3.42927 3.4846
H -8.21964 -4.80588 3.06818
$end

$opt
CONSTRAINT
tors           1           2           3           4     +10.580
tors           3           4           5           6     +67.232
tors           4           5           6           7    +175.065
tors           5           6           7           8    +163.868
tors           6           7           8           9     -81.764
tors           7           8           9          10     -79.125
tors           8           9          10          11    +174.326
tors           9          10          11          12    +160.774
tors          11          12          13          14     -33.449
ENDCONSTRAINT
$end

$rem
JOBTYPE                   OPT
METHOD                    B3LYP
DFT_D                     d3_op
BASIS                     STO-3G
GEOM_OPT_MAX_CYCLES       100
GEOM_OPT_TOL_GRADIENT     300
GEOM_OPT_TOL_DISPLACEMENT 1200
GEOM_OPT_TOL_ENERGY       100
SYMMETRY                  False
THRESH                    12
SCF_CONVERGENCE           8
MAX_SUB_FILE_NUM          128
MEM_STATIC                400
MEM_TOTAL                 4000
$end
--------------------------------------------------------------

   16   -1510.1283887715      2.26E-09 Convergence criterion met
 Total energy in the final basis set = -1510.12838877
   14   -1510.2015783508      3.37E-09 Convergence criterion met
 Total energy in the final basis set = -1510.20157835
   14   -1510.2403374216      3.12E-09 Convergence criterion met
 Total energy in the final basis set = -1510.24033742
   14   -1510.2626908531      6.88E-09 Convergence criterion met
 Total energy in the final basis set = -1510.26269085
   13   -1510.2718660730      9.19E-09 Convergence criterion met
 Total energy in the final basis set = -1510.27186607
   13   -1510.2766307938      7.92E-09 Convergence criterion met
 Total energy in the final basis set = -1510.27663079
   13   -1510.2797587193      2.35E-09 Convergence criterion met
 Total energy in the final basis set = -1510.27975872
   12   -1510.2816991475      8.10E-09 Convergence criterion met
   12   -1510.2856013969      7.13E-09 Convergence criterion met
 Total energy in the final basis set = -1510.28560140
   11   -1510.2856920685      8.32E-09 Convergence criterion met
 Total energy in the final basis set = -1510.28569207
   11   -1510.2857443301      7.03E-09 Convergence criterion met
 Total energy in the final basis set = -1510.28574433
   10   -1510.2857832583      7.05E-09 Convergence criterion met
 Total energy in the final basis set = -1510.28578326
    9   -1510.2857991499      5.69E-09 Convergence criterion met
 Total energy in the final basis set = -1510.28579915
    9   -1510.2858081397      9.23E-09 Convergence criterion met
 Total energy in the final basis set = -1510.28580814

             Standard Nuclear Orientation (Angstroms)
    I     Atom           X                Y                Z
 ----------------------------------------------------------------
    1      O      -1.3504916794    -0.9690596702     0.7149105397
    2      C      -2.4173259288    -1.4159646553     0.2335828601
    3      C      -3.8785779626    -0.8781947705     0.4478442048
    4      C      -3.9552724424     0.5314082116     1.1730231296
    5      C      -2.5460436523     1.1908000821     1.3791839048
    6      O      -2.0226445456     1.5306051983     0.0901021840
    7      C      -0.7476910810     2.2624969351     0.2366719070
    8      C      -0.0578710541     2.2179826591    -1.1716111686
    9      O       0.6409850918     0.9218418851    -1.3393393137
   10      C       1.8954077329     0.9142937812    -0.6545067614
   11      C       2.4531478678    -0.5459436311    -0.7879500419
   12      C       4.0044430644    -0.6862964057    -0.5367347994
   13      C       4.8286427905     0.6415952304    -0.6981494650
   14      O       4.6063989086     1.5805203356    -1.4920355992
   15      O      -2.4862516905    -2.5394152294    -0.6458500244
   16      O       5.9460864174     0.6037960149     0.1975323566
   17      O       2.3546843234     1.8756459710    -0.0029417702
   18      C       6.7467420641     1.8408402208     0.0534940536
   19      C       1.8830881395    -1.3658565542     0.4542532876
   20      C       2.2579247831    -2.8940956301     0.2955091263
   21      C       3.7726965404    -2.8939809887     0.7212579647
   22      C       4.0220421443    -1.3476270065     0.9116961237
   23      O       2.7637118466    -0.8910367799     1.5480514955
   24      H       2.1366719423    -0.9670446090    -1.7579851561
   25      H       4.4268818252    -1.4001313637    -1.2696140753
   26      H       0.8109802934    -1.1657866613     0.6763317245
   27      H       1.6472936790    -3.5138745315     0.9711503502
   28      H       2.1088592349    -3.2483599984    -0.7371055965
   29      H       3.9216337972    -3.4259411495     1.6747041059
   30      H       4.4330023659    -3.3384572594    -0.0403522017
   31      H       4.8985997087    -1.0697846972     1.5273789168
   32      O      -1.9949194274     1.4653105151     2.4667371057
   33      C      -1.1266983128    -3.0601437504    -0.9187509227
   34      C      -4.6504580562    -0.5732636383    -0.9095518902
   35      C      -6.1960165804    -0.5506854174    -0.5875908621
   36      C      -6.3198743594     0.8126551486     0.1893909907
   37      C      -4.8311883593     1.3416001396     0.1240392932
   38      O      -4.3403329143     0.8468018550    -1.1829488079
   39      H      -4.4233926280    -1.6465453296     1.0281200821
   40      H      -4.4456726602     0.4526667830     2.1585299229
   41      H      -0.6462780957    -3.4473351349     0.0024313603
   42      H      -4.3457208229    -1.2153383036    -1.7585238077
   43      H      -6.7809396959    -0.5363695593    -1.5211014081
   44      H      -6.5121026576    -1.4177601868     0.0138905243
   45      H      -6.9999369846     1.5108139617    -0.3238237104
   46      H      -6.6663970308     0.6803892909     1.2268938173
   47      H      -4.7198854603     2.4412793752     0.1867314271
   48      H      -0.4734167877    -2.2782179335    -1.3566627752
   49      H      -1.2561077241    -3.8860761362    -1.6419803937
   50      H       7.5777023299     1.7524428260     0.7773451188
   51      H       6.1452918014     2.7434822310     0.2852490431
   52      H       7.1570056358     1.9455531836    -0.9718763114
   53      H      -0.8251644275     2.2645965929    -1.9702311560
   54      H       0.6524699946     3.0665519043    -1.2725046169
   55      H      -0.0978850952     1.7970428001     1.0080173269
   56      H      -0.9404171844     3.3163300454     0.5392003738
 ----------------------------------------------------------------

    9   -1510.2858089267      4.30E-09 Convergence criterion met
 Total energy in the final basis set = -1510.28580893
 Final energy is   -1510.28580892666
 **  OPTIMIZATION CONVERGED  **

                    Orbital Energies (a.u.)
 --------------------------------------------------------------

 Alpha MOs
 -- Occupied --
-18.945 -18.928 -18.923 -18.919 -18.889 -18.889 -18.880 -18.867
-18.866 -18.861 -10.109 -10.093 -10.091 -10.090 -10.071 -10.067
-10.061 -10.061 -10.061 -10.059 -10.051 -10.048 -10.041 -10.034
-10.031 -10.030 -10.021 -10.020 -10.017 -10.015  -1.021  -1.007
 -1.003  -0.998  -0.971  -0.962  -0.945  -0.933  -0.927  -0.922
 -0.764  -0.757  -0.725  -0.719  -0.712  -0.703  -0.690  -0.668
 -0.655  -0.611  -0.596  -0.574  -0.546  -0.538  -0.538  -0.532
 -0.516  -0.506  -0.487  -0.467  -0.464  -0.454  -0.446  -0.440
 -0.434  -0.430  -0.418  -0.417  -0.414  -0.408  -0.404  -0.403
 -0.391  -0.383  -0.369  -0.365  -0.360  -0.355  -0.349  -0.344
 -0.341  -0.335  -0.332  -0.330  -0.325  -0.320  -0.316  -0.314
 -0.306  -0.306  -0.301  -0.297  -0.290  -0.284  -0.283  -0.275
 -0.267  -0.261  -0.249  -0.243  -0.238  -0.235  -0.226  -0.187
 -0.173  -0.168  -0.164  -0.160  -0.151  -0.144  -0.141  -0.140
 -0.136

          Ground-State Mulliken Net Atomic Charges

     Atom                 Charge (a.u.)
  ----------------------------------------
      1 O                    -0.208402
      2 C                     0.217953
      3 C                    -0.077641
      4 C                    -0.081199
      5 C                     0.212915
      6 O                    -0.173941
      7 C                    -0.047739
      8 C                    -0.047456
      9 O                    -0.176105
     10 C                     0.214220
     11 C                    -0.078186
     12 C                    -0.080465
     13 C                     0.213442
     14 O                    -0.213189
     15 O                    -0.168733
     16 O                    -0.171736
     17 O                    -0.211520
     18 C                    -0.127801
     19 C                     0.015830
     20 C                    -0.145753
     21 C                    -0.142785
     22 C                     0.023926
     23 O                    -0.189767
     24 H                     0.082681
     25 H                     0.081408
     26 H                     0.099629
     27 H                     0.073995
     28 H                     0.069378
     29 H                     0.076928
     30 H                     0.071519
     31 H                     0.091856
     32 O                    -0.216139
     33 C                    -0.129027
     34 C                     0.025365
     35 C                    -0.143265
     36 C                    -0.144612
     37 C                     0.026895
     38 O                    -0.186039
     39 H                     0.085380
     40 H                     0.084263
     41 H                     0.089317
     42 H                     0.088653
     43 H                     0.078066
     44 H                     0.073506
     45 H                     0.077962
     46 H                     0.073990
     47 H                     0.083576
     48 H                     0.093876
     49 H                     0.091810
     50 H                     0.089068
     51 H                     0.092820
     52 H                     0.086929
     53 H                     0.097209
     54 H                     0.093748
     55 H                     0.101470
     56 H                     0.081918
  ----------------------------------------
  Sum of atomic charges =    -0.000000

                    Cartesian Multipole Moments
 -----------------------------------------------------------------
    Charge (ESU x 10^10)
                -0.0000
    Dipole Moment (Debye)
         X      -1.4317      Y      -2.6987      Z      -1.4594
       Tot       3.3857
    Quadrupole Moments (Debye-Ang)
        XX    -137.4592     XY      -2.3378     YY    -150.5960
        XZ      -3.9725     YZ       1.3625     ZZ    -168.0476

 Total job time:  56.91s(wall), 2711.72s(cpu)
        *  Thank you very much for using Q-Chem.  Have a nice day.  *
