 Q-Chem 5.0, Q-Chem, Inc., Pleasanton, CA (2017)
 Q-Chem 5.0.1 for Intel X86 EM64T Linux

User input:
--------------------------------------------------------------
$molecule
0  1
O -1.449943953 -1.0081213564 0.874302606
C -2.4906545683 -1.4513135603 0.3374736293
C -3.9510924954 -0.878861031 0.4299632037
C -4.0509371547 0.536871666 1.1380984691
C -2.649920214 1.1913857916 1.4114004421
O -2.0334468039 1.462728345 0.1477079597
C -0.7907769635 2.2378991706 0.3388762893
C -0.0564750283 2.2149867997 -1.0465579911
O 0.6234270243 0.9092291899 -1.2204586308
C 1.8697943188 0.8736859625 -0.5248763316
C 2.4535320865 -0.5660746714 -0.7345578515
C 4.0250434444 -0.6595687184 -0.6142325751
C 4.7691113565 0.7196265152 -0.7391329669
O 4.4980591655 1.6482296794 -1.5305983233
O -2.5182791669 -2.6055790826 -0.5063285033
O 5.8660339181 0.7505378021 0.1800658875
O 2.3264586964 1.8074505077 0.1682280435
C 6.5785650705 2.0436519434 0.068572616
C 2.010635358 -1.4416071976 0.5194672428
C 2.3870673675 -2.9552765144 0.2622824722
C 3.9372415237 -2.9413389368 0.5345947222
C 4.1801111466 -1.4020030613 0.7845372212
O 2.9772883141 -1.0004642831 1.5518898895
H 2.0733425524 -0.9718507971 -1.6881658111
H 4.4172066015 -1.3027081382 -1.4248800914
H 0.9640384391 -1.2646043829 0.8464545442
H 1.8555549464 -3.6114699772 0.9695184494
H 2.142034056 -3.2722283671 -0.7643539786
H 4.1907125328 -3.5196324668 1.4375625971
H 4.5251389073 -3.3302590455 -0.3121016295
H 5.1031325395 -1.1381347155 1.3348000922
O -2.1766368361 1.5216213756 2.5199420876
C -1.1491836302 -3.1487381239 -0.6650856437
C -4.6153813405 -0.5709875848 -0.9829715955
C -6.1806994738 -0.5327353896 -0.7765307862
C -6.3454592134 0.8265894163 -0.0003771475
C -4.8531218759 1.3477973927 0.032046937
O -4.2763447267 0.8463283635 -1.2370420737
H -4.5566108299 -1.6284331281 0.9734151913
H -4.5960478292 0.4754561089 2.0957567814
H -0.7223314867 -3.472881295 0.305741258
H -4.2547687452 -1.2184878689 -1.8055404099
H -6.6943864598 -0.5042989595 -1.7508036333
H -6.5508965012 -1.3997202447 -0.2067318437
H -6.9897011217 1.5313862223 -0.5494270427
H -6.7554795253 0.6889772712 1.0129593473
H -4.740666055 2.4471275069 0.0992015965
H -0.4666724725 -2.400839369 -1.1178325708
H -1.2434788679 -4.0213570799 -1.3371588973
H 7.4012564895 2.0029310487 0.8060295637
H 5.9096921884 2.8966302782 0.3032799322
H 6.9971530232 2.1936836773 -0.9477098368
H -0.7955294712 2.2939741697 -1.8688197538
H 0.6732006237 3.0512698494 -1.102900272
H -0.1480686158 1.793255706 1.1286560906
H -1.0262867337 3.2849012034 0.6350920955
$end

$rem
JOBTYPE                   OPT
METHOD                    B3LYP
DFT_D                     d3_op
BASIS                     STO-3G
GEOM_OPT_MAX_CYCLES       100
GEOM_OPT_TOL_GRADIENT     300
GEOM_OPT_TOL_DISPLACEMENT 1200
GEOM_OPT_TOL_ENERGY       100
SYMMETRY                  False
THRESH                    12
SCF_CONVERGENCE           8
MAX_SUB_FILE_NUM          128
MEM_STATIC                400
MEM_TOTAL                 4000
$end
--------------------------------------------------------------

   15   -1510.2850267688      9.57E-09 Convergence criterion met
 Total energy in the final basis set = -1510.28502677
   14   -1510.2276350404      7.39E-09 Convergence criterion met
 Total energy in the final basis set = -1510.22763504
   14   -1510.2871587958      5.85E-09 Convergence criterion met
 Total energy in the final basis set = -1510.28715880
   13   -1510.2886420309      8.00E-09 Convergence criterion met
 Total energy in the final basis set = -1510.28864203
   13   -1510.2891863506      4.93E-09 Convergence criterion met
 Total energy in the final basis set = -1510.28918635
   13   -1510.2903491151      8.49E-09 Convergence criterion met
 Total energy in the final basis set = -1510.29034912
   13   -1510.2919638395      6.98E-09 Convergence criterion met
 Total energy in the final basis set = -1510.29196384
   13   -1510.2916354361      9.70E-09 Convergence criterion met
   12   -1510.2988117786      8.63E-09 Convergence criterion met
 Total energy in the final basis set = -1510.29881178
   12   -1510.2987687149      6.32E-09 Convergence criterion met
 Total energy in the final basis set = -1510.29876871
   10   -1510.2987920595      9.21E-09 Convergence criterion met
 Total energy in the final basis set = -1510.29879206
   10   -1510.2987935088      8.38E-09 Convergence criterion met
 Total energy in the final basis set = -1510.29879351
    9   -1510.2987892365      5.57E-09 Convergence criterion met
 Total energy in the final basis set = -1510.29878924
    9   -1510.2987881284      5.19E-09 Convergence criterion met
 Total energy in the final basis set = -1510.29878813

             Standard Nuclear Orientation (Angstroms)
    I     Atom           X                Y                Z
 ----------------------------------------------------------------
    1      O      -0.9570590977    -1.0036598898     0.5436589264
    2      C      -2.0581828213    -1.1669735716    -0.0362380286
    3      C      -3.4496833262    -0.7613409928     0.5716807138
    4      C      -3.4316619196     0.7072706719     1.1766427015
    5      C      -2.0817666156     1.4712599912     0.9577712661
    6      O      -1.8254827267     1.5384774568    -0.4538018443
    7      C      -0.5762323844     2.2878393981    -0.7188699636
    8      C       0.1026800604     1.6936677606    -2.0003532426
    9      O       0.7283115324     0.3720593479    -1.7624384285
   10      C       2.0174881754     0.5152756913    -1.1433269651
   11      C       2.6222637479    -0.9054792085    -0.9168646387
   12      C       4.1143389050    -0.8821738822    -0.3824012896
   13      C       4.6873990866     0.5638293245    -0.1348745755
   14      O       5.4317304920     1.2080728091    -0.9063372936
   15      O      -2.2294113795    -1.7561765846    -1.3147159274
   16      O       4.3061151147     1.0016711760     1.1744122296
   17      O       2.5228583288     1.6260653655    -0.8726244341
   18      C       4.7635030941     2.3921913383     1.3863837936
   19      C       1.8809060578    -1.6962607622     0.2545356520
   20      C       2.2466744537    -3.2239491517     0.0930403877
   21      C       3.7418333272    -3.2364213432     0.5838529425
   22      C       3.9531223457    -1.7155878902     0.9597429782
   23      O       2.6272976092    -1.2931393380     1.4648494331
   24      H       2.5449434367    -1.4592523438    -1.8701400038
   25      H       4.7877094782    -1.3827469114    -1.1005187002
   26      H       0.7930927863    -1.4608582755     0.3571345839
   27      H       1.6047985877    -3.8404064753     0.7427638504
   28      H       2.1362252592    -3.5750189038    -0.9454559695
   29      H       3.8704442276    -3.8734145895     1.4732769240
   30      H       4.4435262894    -3.5730238516    -0.1961343682
   31      H       4.7381466942    -1.5204462528     1.7150208967
   32      O      -1.3501445955     1.9814906310     1.8328140979
   33      C      -0.9138132672    -2.0734604989    -1.9274065958
   34      C      -4.6197555430    -0.6414386477    -0.4911409151
   35      C      -5.9924039861    -0.6366422346     0.2892013024
   36      C      -5.9871258615     0.8116280238     0.9048446992
   37      C      -4.6179896092     1.3734554094     0.3508821805
   38      O      -4.4981191370     0.7495624577    -0.9854667496
   39      H      -3.6988824938    -1.4990013839     1.3572548286
   40      H      -3.6380985449     0.7013625829     2.2610617987
   41      H      -0.4231398476    -2.9156581884    -1.3991411498
   42      H      -4.5448226448    -1.3598361398    -1.3294625814
   43      H      -6.8322193302    -0.7736564932    -0.4104730255
   44      H      -6.0394522176    -1.4263461413     1.0560421299
   45      H      -6.8296278046     1.4138914555     0.5295019180
   46      H      -6.0181684414     0.8075544749     2.0061799531
   47      H      -4.5583043925     2.4761747640     0.2709597300
   48      H      -0.2443614682    -1.1792120762    -1.9131914574
   49      H      -1.1365804398    -2.3764229618    -2.9665027725
   50      H       4.4748187328     2.6550580898     2.4206640051
   51      H       4.2705229039     3.0859153522     0.6747808911
   52      H       5.8626630843     2.4867456315     1.2695603307
   53      H      -0.6631123782     1.5251725155    -2.7845572288
   54      H       0.8646109222     2.4148252783    -2.3667669057
   55      H       0.1009119754     2.2324096588     0.1604558687
   56      H      -0.8166817140     3.3581151117    -0.9067645955
 ----------------------------------------------------------------

    9   -1510.2987885554      2.52E-09 Convergence criterion met
 Total energy in the final basis set = -1510.29878856
 Final energy is   -1510.29878855538
 **  OPTIMIZATION CONVERGED  **

                    Orbital Energies (a.u.)
 --------------------------------------------------------------

 Alpha MOs
 -- Occupied --
-18.949 -18.944 -18.930 -18.916 -18.891 -18.889 -18.881 -18.876
-18.876 -18.852 -10.110 -10.109 -10.099 -10.084 -10.083 -10.072
-10.062 -10.060 -10.051 -10.049 -10.048 -10.041 -10.038 -10.037
-10.034 -10.027 -10.022 -10.021 -10.012 -10.011  -1.025  -1.018
 -1.008  -0.992  -0.972  -0.958  -0.949  -0.942  -0.935  -0.918
 -0.765  -0.756  -0.729  -0.720  -0.713  -0.704  -0.692  -0.660
 -0.646  -0.618  -0.598  -0.579  -0.548  -0.539  -0.536  -0.529
 -0.517  -0.506  -0.494  -0.474  -0.470  -0.456  -0.444  -0.437
 -0.435  -0.432  -0.426  -0.415  -0.411  -0.406  -0.403  -0.397
 -0.395  -0.384  -0.374  -0.369  -0.361  -0.358  -0.353  -0.352
 -0.341  -0.333  -0.333  -0.330  -0.323  -0.322  -0.314  -0.312
 -0.306  -0.305  -0.300  -0.299  -0.295  -0.292  -0.277  -0.273
 -0.271  -0.262  -0.249  -0.248  -0.237  -0.235  -0.221  -0.193
 -0.182  -0.172  -0.162  -0.161  -0.158  -0.151  -0.145  -0.135
 -0.132

          Ground-State Mulliken Net Atomic Charges

     Atom                 Charge (a.u.)
  ----------------------------------------
      1 O                    -0.218461
      2 C                     0.222511
      3 C                    -0.077227
      4 C                    -0.078926
      5 C                     0.212038
      6 O                    -0.174463
      7 C                    -0.052426
      8 C                    -0.046970
      9 O                    -0.173068
     10 C                     0.219277
     11 C                    -0.081077
     12 C                    -0.081509
     13 C                     0.212153
     14 O                    -0.223230
     15 O                    -0.165520
     16 O                    -0.167280
     17 O                    -0.204220
     18 C                    -0.127123
     19 C                     0.005923
     20 C                    -0.145589
     21 C                    -0.145055
     22 C                     0.026721
     23 O                    -0.187286
     24 H                     0.082830
     25 H                     0.080950
     26 H                     0.113417
     27 H                     0.074687
     28 H                     0.067278
     29 H                     0.075844
     30 H                     0.070743
     31 H                     0.084279
     32 O                    -0.208311
     33 C                    -0.146880
     34 C                     0.023742
     35 C                    -0.144101
     36 C                    -0.144057
     37 C                     0.026157
     38 O                    -0.187045
     39 H                     0.085556
     40 H                     0.086284
     41 H                     0.080115
     42 H                     0.092657
     43 H                     0.077962
     44 H                     0.073252
     45 H                     0.078103
     46 H                     0.074373
     47 H                     0.082596
     48 H                     0.114937
     49 H                     0.084781
     50 H                     0.087999
     51 H                     0.090960
     52 H                     0.085014
     53 H                     0.097809
     54 H                     0.097218
     55 H                     0.106376
     56 H                     0.085286
  ----------------------------------------
  Sum of atomic charges =    -0.000000

                    Cartesian Multipole Moments
 -----------------------------------------------------------------
    Charge (ESU x 10^10)
                -0.0000
    Dipole Moment (Debye)
         X      -2.6661      Y      -1.6177      Z      -1.1471
       Tot       3.3228
    Quadrupole Moments (Debye-Ang)
        XX    -156.3791     XY      -4.6608     YY    -151.1150
        XZ      -3.3629     YZ       1.4207     ZZ    -161.7779

 Total job time:  103.10s(wall), 4920.69s(cpu)
        *  Thank you very much for using Q-Chem.  Have a nice day.  *
