 Q-Chem 5.0, Q-Chem, Inc., Pleasanton, CA (2017)
 Q-Chem 5.0.1 for Intel X86 EM64T Linux

User input:
--------------------------------------------------------------
$molecule
0  1
O -3.94934 -3.66094 2.70899
C -3.26408 -4.56952 2.26188
C -3.36658 -6.02376 2.66595
C -4.54798 -6.42133 3.56599
C -5.59339 -5.35703 3.81598
O -6.22144 -5.03953 2.64544
C -7.33747 -4.16128 2.8254
C -7.80731 -3.62527 1.47704
O -6.93756 -2.56902 1.04028
C -7.17415 -1.35307 1.59221
C -6.19268 -0.29936 1.13719
C -6.71321 1.14368 1.20769
C -7.96449 1.35503 2.03614
O -8.93079 0.60668 2.06419
O -2.28763 -4.2675 1.36651
O -7.98547 2.43616 2.86348
O -7.6778 -1.28627 2.70698
C -9.02994 2.7587 3.70486
C -4.93278 -0.19214 2.02041
C -3.78362 0.37724 1.19288
C -4.2593 1.80247 0.99871
C -5.50072 1.80387 1.90229
O -5.19949 0.86692 2.90689
H -5.87778 -0.56849 0.10203
H -6.9354 1.54429 0.19475
H -4.63648 -1.15484 2.48647
H -2.8894 0.38495 1.85711
H -3.53546 -0.16708 0.25687
H -3.47209 2.4882 1.38321
H -4.53023 2.07471 -0.04451
H -5.7035 2.8409 2.24576
O -5.91462 -4.95816 4.92922
C -2.0528 -3.00055 0.87482
C -3.63063 -6.95707 1.46218
C -3.15561 -8.37273 1.7902
C -4.21465 -8.80397 2.785
C -5.14105 -7.58397 2.74891
O -5.02782 -7.11583 1.42667
H -2.38372 -6.28818 3.11699
H -4.19126 -6.75398 4.56652
H -1.79868 -2.30696 1.70482
H -3.15634 -6.60654 0.51966
H -3.27307 -8.98113 0.86474
H -2.10636 -8.45064 2.1477
H -4.73579 -9.69896 2.37809
H -3.84502 -9.01358 3.8121
H -6.16482 -7.85552 3.08873
H -2.95122 -2.62968 0.33693
H -1.20125 -3.03711 0.16507
H -8.77774 3.68631 4.25837
H -9.1986 1.93993 4.43662
H -9.95558 2.9337 3.11589
H -7.82409 -4.45024 0.73344
H -8.85121 -3.2417 1.55566
H -7.12147 -3.34718 3.54519
H -8.16288 -4.77187 3.25446
$end

$opt
CONSTRAINT
tors           1           2           3           4      +8.727
tors           3           4           5           6     +64.687
tors           4           5           6           7    +172.656
tors           5           6           7           8    +168.413
tors           6           7           8           9     -78.458
tors           7           8           9          10     -80.680
tors           8           9          10          11    +177.621
tors           9          10          11          12    +154.873
tors          11          12          13          14     -40.322
ENDCONSTRAINT
$end

$rem
JOBTYPE                   OPT
METHOD                    B3LYP
DFT_D                     d3_op
BASIS                     STO-3G
GEOM_OPT_MAX_CYCLES       100
GEOM_OPT_TOL_GRADIENT     300
GEOM_OPT_TOL_DISPLACEMENT 1200
GEOM_OPT_TOL_ENERGY       100
SYMMETRY                  False
THRESH                    12
SCF_CONVERGENCE           8
MAX_SUB_FILE_NUM          128
MEM_STATIC                400
MEM_TOTAL                 4000
$end
--------------------------------------------------------------

   16   -1510.1420770175      1.89E-09 Convergence criterion met
 Total energy in the final basis set = -1510.14207702
   14   -1510.2131197478      4.06E-09 Convergence criterion met
 Total energy in the final basis set = -1510.21311975
   14   -1510.2509953112      5.91E-09 Convergence criterion met
 Total energy in the final basis set = -1510.25099531
   14   -1510.2677417615      5.74E-09 Convergence criterion met
 Total energy in the final basis set = -1510.26774176
   14   -1510.2740304516      6.93E-09 Convergence criterion met
 Total energy in the final basis set = -1510.27403045
   13   -1510.2780202181      5.33E-09 Convergence criterion met
 Total energy in the final basis set = -1510.27802022
   13   -1510.2804382604      3.78E-09 Convergence criterion met
 Total energy in the final basis set = -1510.28043826
   12   -1510.2816760128      9.36E-09 Convergence criterion met
   10   -1510.2849591136      9.87E-09 Convergence criterion met
 Total energy in the final basis set = -1510.28495911
   10   -1510.2849995947      9.86E-09 Convergence criterion met
 Total energy in the final basis set = -1510.28499959
   10   -1510.2850246691      5.97E-09 Convergence criterion met
 Total energy in the final basis set = -1510.28502467
    9   -1510.2850356558      7.68E-09 Convergence criterion met
 Total energy in the final basis set = -1510.28503566
    9   -1510.2850397660      6.98E-09 Convergence criterion met
 Total energy in the final basis set = -1510.28503977
    9   -1510.2850408108      4.94E-09 Convergence criterion met
 Total energy in the final basis set = -1510.28504081

             Standard Nuclear Orientation (Angstroms)
    I     Atom           X                Y                Z
 ----------------------------------------------------------------
    1      O      -1.4499439530    -1.0081213564     0.8743026060
    2      C      -2.4906545683    -1.4513135603     0.3374736293
    3      C      -3.9510924954    -0.8788610310     0.4299632037
    4      C      -4.0509371547     0.5368716660     1.1380984691
    5      C      -2.6499202140     1.1913857916     1.4114004421
    6      O      -2.0334468039     1.4627283450     0.1477079597
    7      C      -0.7907769635     2.2378991706     0.3388762893
    8      C      -0.0564750283     2.2149867997    -1.0465579911
    9      O       0.6234270243     0.9092291899    -1.2204586308
   10      C       1.8697943188     0.8736859625    -0.5248763316
   11      C       2.4535320865    -0.5660746714    -0.7345578515
   12      C       4.0250434444    -0.6595687184    -0.6142325751
   13      C       4.7691113565     0.7196265152    -0.7391329669
   14      O       4.4980591655     1.6482296794    -1.5305983233
   15      O      -2.5182791669    -2.6055790826    -0.5063285033
   16      O       5.8660339181     0.7505378021     0.1800658875
   17      O       2.3264586964     1.8074505077     0.1682280435
   18      C       6.5785650705     2.0436519434     0.0685726160
   19      C       2.0106353580    -1.4416071976     0.5194672428
   20      C       2.3870673675    -2.9552765144     0.2622824722
   21      C       3.9372415237    -2.9413389368     0.5345947222
   22      C       4.1801111466    -1.4020030613     0.7845372212
   23      O       2.9772883141    -1.0004642831     1.5518898895
   24      H       2.0733425524    -0.9718507971    -1.6881658111
   25      H       4.4172066015    -1.3027081382    -1.4248800914
   26      H       0.9640384391    -1.2646043829     0.8464545442
   27      H       1.8555549464    -3.6114699772     0.9695184494
   28      H       2.1420340560    -3.2722283671    -0.7643539786
   29      H       4.1907125328    -3.5196324668     1.4375625971
   30      H       4.5251389073    -3.3302590455    -0.3121016295
   31      H       5.1031325395    -1.1381347155     1.3348000922
   32      O      -2.1766368361     1.5216213756     2.5199420876
   33      C      -1.1491836302    -3.1487381239    -0.6650856437
   34      C      -4.6153813405    -0.5709875848    -0.9829715955
   35      C      -6.1806994738    -0.5327353896    -0.7765307862
   36      C      -6.3454592134     0.8265894163    -0.0003771475
   37      C      -4.8531218759     1.3477973927     0.0320469370
   38      O      -4.2763447267     0.8463283635    -1.2370420737
   39      H      -4.5566108299    -1.6284331281     0.9734151913
   40      H      -4.5960478292     0.4754561089     2.0957567814
   41      H      -0.7223314867    -3.4728812950     0.3057412580
   42      H      -4.2547687452    -1.2184878689    -1.8055404099
   43      H      -6.6943864598    -0.5042989595    -1.7508036333
   44      H      -6.5508965012    -1.3997202447    -0.2067318437
   45      H      -6.9897011217     1.5313862223    -0.5494270427
   46      H      -6.7554795253     0.6889772712     1.0129593473
   47      H      -4.7406660550     2.4471275069     0.0992015965
   48      H      -0.4666724725    -2.4008393690    -1.1178325708
   49      H      -1.2434788679    -4.0213570799    -1.3371588973
   50      H       7.4012564895     2.0029310487     0.8060295637
   51      H       5.9096921884     2.8966302782     0.3032799322
   52      H       6.9971530232     2.1936836773    -0.9477098368
   53      H      -0.7955294712     2.2939741697    -1.8688197538
   54      H       0.6732006237     3.0512698494    -1.1029002720
   55      H      -0.1480686158     1.7932557060     1.1286560906
   56      H      -1.0262867337     3.2849012034     0.6350920955
 ----------------------------------------------------------------

    9   -1510.2850409913      2.53E-09 Convergence criterion met
 Total energy in the final basis set = -1510.28504099
 Final energy is   -1510.28504099127
 **  OPTIMIZATION CONVERGED  **

                    Orbital Energies (a.u.)
 --------------------------------------------------------------

 Alpha MOs
 -- Occupied --
-18.942 -18.929 -18.925 -18.918 -18.889 -18.885 -18.882 -18.867
-18.866 -18.861 -10.106 -10.094 -10.092 -10.089 -10.070 -10.068
-10.062 -10.061 -10.060 -10.059 -10.053 -10.052 -10.040 -10.034
-10.033 -10.031 -10.021 -10.020 -10.018 -10.016  -1.019  -1.008
 -1.003  -0.998  -0.970  -0.964  -0.942  -0.933  -0.928  -0.922
 -0.763  -0.758  -0.725  -0.720  -0.712  -0.704  -0.691  -0.667
 -0.656  -0.611  -0.596  -0.574  -0.546  -0.540  -0.538  -0.533
 -0.515  -0.506  -0.487  -0.468  -0.464  -0.455  -0.446  -0.439
 -0.434  -0.431  -0.419  -0.416  -0.414  -0.407  -0.405  -0.403
 -0.391  -0.380  -0.370  -0.365  -0.359  -0.354  -0.349  -0.344
 -0.341  -0.335  -0.332  -0.330  -0.325  -0.322  -0.316  -0.315
 -0.307  -0.305  -0.301  -0.298  -0.290  -0.284  -0.283  -0.274
 -0.269  -0.260  -0.250  -0.243  -0.238  -0.235  -0.228  -0.185
 -0.174  -0.167  -0.164  -0.158  -0.151  -0.143  -0.142  -0.140
 -0.138

          Ground-State Mulliken Net Atomic Charges

     Atom                 Charge (a.u.)
  ----------------------------------------
      1 O                    -0.208905
      2 C                     0.215831
      3 C                    -0.077948
      4 C                    -0.080962
      5 C                     0.213091
      6 O                    -0.173443
      7 C                    -0.046856
      8 C                    -0.046954
      9 O                    -0.174279
     10 C                     0.213884
     11 C                    -0.078216
     12 C                    -0.080197
     13 C                     0.213786
     14 O                    -0.215208
     15 O                    -0.169673
     16 O                    -0.170527
     17 O                    -0.212847
     18 C                    -0.127481
     19 C                     0.019668
     20 C                    -0.145305
     21 C                    -0.143087
     22 C                     0.023591
     23 O                    -0.188765
     24 H                     0.083616
     25 H                     0.081883
     26 H                     0.094989
     27 H                     0.075151
     28 H                     0.070125
     29 H                     0.077246
     30 H                     0.071801
     31 H                     0.092938
     32 O                    -0.216691
     33 C                    -0.128667
     34 C                     0.025540
     35 C                    -0.143058
     36 C                    -0.144732
     37 C                     0.026710
     38 O                    -0.185747
     39 H                     0.084962
     40 H                     0.084100
     41 H                     0.089013
     42 H                     0.088372
     43 H                     0.077990
     44 H                     0.073526
     45 H                     0.077856
     46 H                     0.073943
     47 H                     0.082944
     48 H                     0.092212
     49 H                     0.091160
     50 H                     0.089403
     51 H                     0.093362
     52 H                     0.087152
     53 H                     0.097558
     54 H                     0.094221
     55 H                     0.099858
     56 H                     0.082066
  ----------------------------------------
  Sum of atomic charges =    -0.000000

                    Cartesian Multipole Moments
 -----------------------------------------------------------------
    Charge (ESU x 10^10)
                 0.0000
    Dipole Moment (Debye)
         X      -1.2769      Y      -2.5466      Z      -1.6085
       Tot       3.2715
    Quadrupole Moments (Debye-Ang)
        XX    -137.1641     XY      -2.0776     YY    -149.9558
        XZ      -3.7160     YZ       1.0309     ZZ    -169.0766

 Total job time:  59.77s(wall), 2847.34s(cpu)
        *  Thank you very much for using Q-Chem.  Have a nice day.  *
