 Q-Chem 5.0, Q-Chem, Inc., Pleasanton, CA (2017)
 Q-Chem 5.0.1 for Intel X86 EM64T Linux

User input:
--------------------------------------------------------------
$molecule
0  1
O -1.3602877414 -0.9658637547 0.8208643719
C -2.4040218402 -1.4538897553 0.3314989763
C -3.8804591737 -0.9230278149 0.422993506
C -4.0396603751 0.5366309485 1.0173408131
C -2.6876102136 1.2517379063 1.3654469895
O -2.0118144821 1.5782439103 0.1478342014
C -0.7642250118 2.3135761232 0.4516585925
C 0.0365465769 2.4171946742 -0.8899965011
O 0.6396026545 1.0984201631 -1.2048448041
C 1.8740788708 0.9426084355 -0.497488505
C 2.4165900918 -0.4948881986 -0.8027459978
C 3.9831055931 -0.6297337498 -0.6529050679
C 4.7678401564 0.7302146974 -0.7211005326
O 4.4979028502 1.7230735912 -1.4305454322
O -2.4444710072 -2.6609487795 -0.4356168463
O 5.9101582677 0.6530994254 0.1392171519
O 2.3491974717 1.793054441 0.2854451382
C 6.6691881682 1.9231487318 0.0814334189
C 1.9315932585 -1.4307279018 0.3922882648
C 2.3102084879 -2.9336706788 0.074737342
C 3.8486356814 -2.9482172879 0.4032657357
C 4.0933532172 -1.4230925851 0.7223432592
O 2.8716816799 -1.0450091069 1.4708569606
H 2.0456761947 -0.8288894522 -1.7874694131
H 4.3771744861 -1.257632052 -1.4746970607
H 0.875590841 -1.2606632712 0.6972464592
H 1.7511309994 -3.6204152919 0.7294667204
H 2.1007371392 -3.1998983269 -0.9738450474
H 4.0631847066 -3.5643725056 1.2911887522
H 4.4638974749 -3.3088422544 -0.4363839712
H 5.0024344228 -1.1890850428 1.3082462658
O -2.2788908063 1.5583416085 2.5065894719
C -1.0855688148 -3.222926158 -0.5943696256
C -4.5431840841 -0.7436580043 -1.013800535
C -6.1109759253 -0.6927892648 -0.830436528
C -6.2941493694 0.7407316765 -0.2076496572
C -4.7999278144 1.255736918 -0.1787206321
O -4.1950967228 0.645202937 -1.3847529732
H -4.4533281132 -1.6548843913 1.0226262362
H -4.6476723328 0.5195870666 1.9386865077
H -0.6128575246 -3.4323394021 0.3859476719
H -4.1728228028 -1.4606958333 -1.7718296917
H -6.6136628394 -0.7770654197 -1.8072118574
H -6.4811003066 -1.4953880551 -0.1728907824
H -6.912583275 1.3861962463 -0.8514826634
H -6.7415806628 0.7123713617 0.7986439846
H -4.681037505 2.3560458186 -0.2011202912
H -0.4277814207 -2.5374549895 -1.1659035104
H -1.2094030975 -4.1677404914 -1.1549830192
H 7.530670162 1.7950133583 0.7623176055
H 6.0517249608 2.7802618984 0.419335821
H 7.0342708755 2.1354714153 -0.9443304211
H -0.6477742529 2.6576615567 -1.7280437994
H 0.8230379217 3.1962619821 -0.7963535749
H -0.1619141415 1.7835733628 1.220325426
H -0.996758256 3.3308195038 0.8395932049
$end

$rem
JOBTYPE                   OPT
METHOD                    B3LYP
DFT_D                     d3_op
BASIS                     STO-3G
GEOM_OPT_MAX_CYCLES       100
GEOM_OPT_TOL_GRADIENT     300
GEOM_OPT_TOL_DISPLACEMENT 1200
GEOM_OPT_TOL_ENERGY       100
SYMMETRY                  False
THRESH                    12
SCF_CONVERGENCE           8
MAX_SUB_FILE_NUM          128
MEM_STATIC                400
MEM_TOTAL                 4000
$end
--------------------------------------------------------------

   16   -1510.2862947928      5.62E-09 Convergence criterion met
 Total energy in the final basis set = -1510.28629479
   14   -1510.2446063512      5.23E-09 Convergence criterion met
 Total energy in the final basis set = -1510.24460635
   14   -1510.2866700511      4.07E-09 Convergence criterion met
 Total energy in the final basis set = -1510.28667005
   14   -1510.2850023590      3.83E-09 Convergence criterion met
 Total energy in the final basis set = -1510.28500236
   14   -1510.2878603967      2.10E-09 Convergence criterion met
 Total energy in the final basis set = -1510.28786040
   14   -1510.2884862083      6.88E-09 Convergence criterion met
 Total energy in the final basis set = -1510.28848621
   13   -1510.2888875354      5.79E-09 Convergence criterion met
 Total energy in the final basis set = -1510.28888754
   13   -1510.2902282935      7.07E-09 Convergence criterion met
   12   -1510.2987726662      9.24E-09 Convergence criterion met
 Total energy in the final basis set = -1510.29877267
   10   -1510.2987736267      7.87E-09 Convergence criterion met
 Total energy in the final basis set = -1510.29877363
   11   -1510.2987829039      8.13E-09 Convergence criterion met
 Total energy in the final basis set = -1510.29878290
   11   -1510.2987731457      4.02E-09 Convergence criterion met
 Total energy in the final basis set = -1510.29877315
    9   -1510.2987729454      4.87E-09 Convergence criterion met
 Total energy in the final basis set = -1510.29877295
   10   -1510.2987760234      3.91E-09 Convergence criterion met
 Total energy in the final basis set = -1510.29877602

             Standard Nuclear Orientation (Angstroms)
    I     Atom           X                Y                Z
 ----------------------------------------------------------------
    1      O      -0.9668334879    -0.9983192889     0.5508118832
    2      C      -2.0651243307    -1.1590609364    -0.0351291271
    3      C      -3.4580917038    -0.7392130800     0.5596937047
    4      C      -3.4354092754     0.7345336035     1.1518709627
    5      C      -2.0787224050     1.4878631033     0.9378188905
    6      O      -1.8088518670     1.5403194325    -0.4718407379
    7      C      -0.5505971424     2.2766898261    -0.7314019519
    8      C       0.1315041917     1.6697354943    -2.0051235869
    9      O       0.7432770831     0.3440703908    -1.7542011484
   10      C       2.0356980324     0.4800672986    -1.1402096874
   11      C       2.6235108670    -0.9447870237    -0.8946877522
   12      C       4.1134951448    -0.9321747577    -0.3537400996
   13      C       4.7033508116     0.5100035772    -0.1242366114
   14      O       5.4595428218     1.1335744213    -0.9010863233
   15      O      -2.2321235785    -1.7579876891    -1.3096526919
   16      O       4.3209575664     0.9716625522     1.1765935115
   17      O       2.5554586776     1.5882069113    -0.8864384471
   18      C       4.7942916930     2.3594592216     1.3705570318
   19      C       1.8675322086    -1.7117178465     0.2830488062
   20      C       2.2166951386    -3.2454710969     0.1436968791
   21      C       3.7089457651    -3.2683201649     0.6430664584
   22      C       3.9357987109    -1.7449652145     0.9991448206
   23      O       2.6124980940    -1.3005764252     1.4915315314
   24      H       2.5438029600    -1.5091070665    -1.8415791277
   25      H       4.7837916307    -1.4512853025    -1.0615267316
   26      H       0.7817437880    -1.4634332651     0.3769467007
   27      H       1.5642180915    -3.8461588906     0.7975578663
   28      H       2.1080939523    -3.6084409774    -0.8908663235
   29      H       3.8251704610    -3.8942746842     1.5419893107
   30      H       4.4109066953    -3.6239521610    -0.1281210655
   31      H       4.7192302122    -1.5484724015     1.7557370223
   32      O      -1.3517998671     2.0014351717     1.8148234576
   33      C      -0.9150453223    -2.0903369411    -1.9109083412
   34      C      -4.6197760635    -0.6214414775    -0.5125546982
   35      C      -5.9979639667    -0.6008085664     0.2577507391
   36      C      -5.9879291585     0.8531500007     0.8598217399
   37      C      -4.6109382460     1.4008738261     0.3110542323
   38      O      -4.4852547666     0.7640979387    -1.0186296461
   39      H      -3.7173944799    -1.4683862175     1.3499262740
   40      H      -3.6505565847     0.7394302650     2.2345898281
   41      H      -0.4340750364    -2.9313038577    -1.3719248864
   42      H      -4.5432756714    -1.3479145928    -1.3437373323
   43      H      -6.8336247473    -0.7392365014    -0.4465892635
   44      H      -6.0551984121    -1.3830726392     1.0314598745
   45      H      -6.8236473872     1.4572409861     0.4724388087
   46      H      -6.0273309442     0.8595197954     1.9608900934
   47      H      -4.5434462616     2.5024192633     0.2216252131
   48      H      -0.2390820515    -1.2009456773    -1.9002681393
   49      H      -1.1333314563    -2.4009842391    -2.9486829842
   50      H       4.5039148591     2.6408226602     2.3995041019
   51      H       4.3132085683     3.0486826827     0.6465402013
   52      H       5.8950469619     2.4389378822     1.2577685585
   53      H      -0.6303377054     1.5040252737    -2.7937542227
   54      H       0.9031295491     2.3814474131    -2.3695695720
   55      H       0.1196774134     2.2187340943     0.1530360815
   56      H      -0.7793089038     3.3484151854    -0.9256531611
 ----------------------------------------------------------------

    8   -1510.2987753905      9.47E-09 Convergence criterion met
 Total energy in the final basis set = -1510.29877539
 Final energy is   -1510.29877539054
 **  OPTIMIZATION CONVERGED  **

                    Orbital Energies (a.u.)
 --------------------------------------------------------------

 Alpha MOs
 -- Occupied --
-18.949 -18.944 -18.930 -18.916 -18.891 -18.889 -18.881 -18.876
-18.876 -18.852 -10.110 -10.109 -10.099 -10.084 -10.083 -10.073
-10.062 -10.060 -10.051 -10.050 -10.048 -10.041 -10.038 -10.037
-10.034 -10.027 -10.022 -10.021 -10.012 -10.011  -1.025  -1.018
 -1.008  -0.992  -0.972  -0.958  -0.949  -0.942  -0.935  -0.918
 -0.765  -0.756  -0.729  -0.720  -0.713  -0.704  -0.692  -0.660
 -0.646  -0.618  -0.598  -0.579  -0.548  -0.539  -0.536  -0.529
 -0.517  -0.506  -0.494  -0.474  -0.470  -0.456  -0.444  -0.437
 -0.435  -0.432  -0.425  -0.415  -0.411  -0.406  -0.403  -0.397
 -0.395  -0.384  -0.373  -0.369  -0.361  -0.358  -0.353  -0.352
 -0.341  -0.333  -0.333  -0.330  -0.323  -0.322  -0.314  -0.312
 -0.306  -0.305  -0.300  -0.299  -0.295  -0.292  -0.277  -0.273
 -0.271  -0.262  -0.249  -0.248  -0.237  -0.235  -0.221  -0.193
 -0.182  -0.172  -0.163  -0.161  -0.158  -0.151  -0.145  -0.135
 -0.132

          Ground-State Mulliken Net Atomic Charges

     Atom                 Charge (a.u.)
  ----------------------------------------
      1 O                    -0.218433
      2 C                     0.222564
      3 C                    -0.077232
      4 C                    -0.078950
      5 C                     0.212013
      6 O                    -0.174408
      7 C                    -0.052308
      8 C                    -0.047063
      9 O                    -0.173069
     10 C                     0.219273
     11 C                    -0.081050
     12 C                    -0.081526
     13 C                     0.212160
     14 O                    -0.223174
     15 O                    -0.165527
     16 O                    -0.167347
     17 O                    -0.204230
     18 C                    -0.127141
     19 C                     0.005852
     20 C                    -0.145608
     21 C                    -0.145056
     22 C                     0.026748
     23 O                    -0.187382
     24 H                     0.082842
     25 H                     0.080957
     26 H                     0.113501
     27 H                     0.074705
     28 H                     0.067248
     29 H                     0.075842
     30 H                     0.070749
     31 H                     0.084272
     32 O                    -0.208364
     33 C                    -0.146908
     34 C                     0.023745
     35 C                    -0.144120
     36 C                    -0.144044
     37 C                     0.026151
     38 O                    -0.187061
     39 H                     0.085542
     40 H                     0.086285
     41 H                     0.080102
     42 H                     0.092674
     43 H                     0.077964
     44 H                     0.073258
     45 H                     0.078109
     46 H                     0.074375
     47 H                     0.082593
     48 H                     0.114967
     49 H                     0.084769
     50 H                     0.087974
     51 H                     0.090943
     52 H                     0.085041
     53 H                     0.097812
     54 H                     0.097477
     55 H                     0.106183
     56 H                     0.085313
  ----------------------------------------
  Sum of atomic charges =    -0.000000

                    Cartesian Multipole Moments
 -----------------------------------------------------------------
    Charge (ESU x 10^10)
                -0.0000
    Dipole Moment (Debye)
         X      -2.6778      Y      -1.6062      Z      -1.1371
       Tot       3.3232
    Quadrupole Moments (Debye-Ang)
        XX    -156.4893     XY      -4.5756     YY    -150.9353
        XZ      -3.2029     YZ       1.3061     ZZ    -161.9415

 Total job time:  113.85s(wall), 5430.70s(cpu)
        *  Thank you very much for using Q-Chem.  Have a nice day.  *
