 Q-Chem 5.0, Q-Chem, Inc., Pleasanton, CA (2017)
 Q-Chem 5.0.1 for Intel X86 EM64T Linux

User input:
--------------------------------------------------------------
$molecule
0  1
O -3.94934 -3.66094 2.70899
C -3.26408 -4.56952 2.26188
C -3.36658 -6.02376 2.66595
C -4.57193 -6.42971 3.52977
C -5.63372 -5.37401 3.74466
O -6.31118 -5.15334 2.57943
C -7.37783 -4.20877 2.71839
C -7.93102 -3.8351 1.34708
O -7.01743 -2.95451 0.67417
C -7.12359 -1.64286 1.00193
C -6.08644 -0.78078 0.32236
C -6.48335 0.69228 0.14676
C -7.66557 1.16086 0.97107
O -8.65179 0.49063 1.24075
O -2.23565 -4.29152 1.42069
O -7.72998 2.49663 1.22589
O -7.51572 -1.34909 2.12546
C -8.76571 3.11747 1.89286
C -4.76273 -0.63037 1.09035
C -3.64647 -0.2333 0.11724
C -4.01987 1.19567 -0.18329
C -5.22111 1.35773 0.74557
O -4.92568 0.53797 1.84843
H -5.87477 -1.25158 -0.66519
H -6.65575 1.00777 -0.90549
H -4.4893 -1.53908 1.65438
H -2.69066 -0.22886 0.68731
H -3.54356 -0.8753 -0.78316
H -3.18471 1.85469 0.14431
H -4.2816 1.4096 -1.24227
H -5.34942 2.43798 0.97279
O -5.95325 -4.93572 4.84353
C -1.97826 -3.06213 0.86996
C -3.58403 -6.96731 1.45995
C -3.0956 -8.37322 1.80898
C -4.17064 -8.81382 2.7826
C -5.11916 -7.61228 2.70944
O -4.97699 -7.1515 1.38728
H -2.39602 -6.27884 3.14856
H -4.23485 -6.74115 4.54389
H -1.82625 -2.30558 1.66882
H -3.09058 -6.61456 0.52818
H -3.184 -8.98811 0.88454
H -2.05359 -8.43568 2.18992
H -4.66217 -9.72505 2.37504
H -3.82285 -9.00147 3.82152
H -6.1467 -7.89969 3.02363
H -2.82265 -2.78681 0.21236
H -1.05913 -3.12489 0.25244
H -8.55383 4.20407 1.9625
H -8.85971 2.70458 2.92007
H -9.71897 2.97353 1.34081
H -8.08797 -4.75694 0.74768
H -8.92758 -3.34612 1.45144
H -7.06338 -3.31065 3.28845
H -8.19151 -4.70564 3.2925
$end

$opt
CONSTRAINT
tors           1           2           3           4     +10.580
tors           3           4           5           6     +70.242
tors           4           5           6           7    +177.235
tors           5           6           7           8    +170.415
tors           6           7           8           9     -74.738
tors           7           8           9          10     -83.339
tors           8           9          10          11    +176.711
tors           9          10          11          12    +154.873
tors          11          12          13          14     -35.707
ENDCONSTRAINT
$end

$rem
JOBTYPE                   OPT
METHOD                    B3LYP
DFT_D                     d3_op
BASIS                     STO-3G
GEOM_OPT_MAX_CYCLES       100
GEOM_OPT_TOL_GRADIENT     300
GEOM_OPT_TOL_DISPLACEMENT 1200
GEOM_OPT_TOL_ENERGY       100
SYMMETRY                  False
THRESH                    12
SCF_CONVERGENCE           8
MAX_SUB_FILE_NUM          128
MEM_STATIC                400
MEM_TOTAL                 4000
$end
--------------------------------------------------------------

   16   -1510.1345935864      2.09E-09 Convergence criterion met
 Total energy in the final basis set = -1510.13459359
   13   -1510.2074338678      7.99E-09 Convergence criterion met
 Total energy in the final basis set = -1510.20743387
   13   -1510.2463649293      9.83E-09 Convergence criterion met
 Total energy in the final basis set = -1510.24636493
   14   -1510.2638168100      5.52E-09 Convergence criterion met
 Total energy in the final basis set = -1510.26381681
   14   -1510.2738905941      2.79E-09 Convergence criterion met
 Total energy in the final basis set = -1510.27389059
   13   -1510.2785612441      5.68E-09 Convergence criterion met
 Total energy in the final basis set = -1510.27856124
   13   -1510.2811796552      2.54E-09 Convergence criterion met
 Total energy in the final basis set = -1510.28117966
   13   -1510.2829338338      2.24E-09 Convergence criterion met
   12   -1510.2861704128      3.28E-09 Convergence criterion met
 Total energy in the final basis set = -1510.28617041
   10   -1510.2862164126      8.89E-09 Convergence criterion met
 Total energy in the final basis set = -1510.28621641
   11   -1510.2862449127      4.88E-09 Convergence criterion met
 Total energy in the final basis set = -1510.28624491
    9   -1510.2862655930      5.70E-09 Convergence criterion met
 Total energy in the final basis set = -1510.28626559
    9   -1510.2862783593      9.73E-09 Convergence criterion met
 Total energy in the final basis set = -1510.28627836
    9   -1510.2862811363      7.58E-09 Convergence criterion met
 Total energy in the final basis set = -1510.28628114

             Standard Nuclear Orientation (Angstroms)
    I     Atom           X                Y                Z
 ----------------------------------------------------------------
    1      O      -1.3602877414    -0.9658637547     0.8208643719
    2      C      -2.4040218402    -1.4538897553     0.3314989763
    3      C      -3.8804591737    -0.9230278149     0.4229935060
    4      C      -4.0396603751     0.5366309485     1.0173408131
    5      C      -2.6876102136     1.2517379063     1.3654469895
    6      O      -2.0118144821     1.5782439103     0.1478342014
    7      C      -0.7642250118     2.3135761232     0.4516585925
    8      C       0.0365465769     2.4171946742    -0.8899965011
    9      O       0.6396026545     1.0984201631    -1.2048448041
   10      C       1.8740788708     0.9426084355    -0.4974885050
   11      C       2.4165900918    -0.4948881986    -0.8027459978
   12      C       3.9831055931    -0.6297337498    -0.6529050679
   13      C       4.7678401564     0.7302146974    -0.7211005326
   14      O       4.4979028502     1.7230735912    -1.4305454322
   15      O      -2.4444710072    -2.6609487795    -0.4356168463
   16      O       5.9101582677     0.6530994254     0.1392171519
   17      O       2.3491974717     1.7930544410     0.2854451382
   18      C       6.6691881682     1.9231487318     0.0814334189
   19      C       1.9315932585    -1.4307279018     0.3922882648
   20      C       2.3102084879    -2.9336706788     0.0747373420
   21      C       3.8486356814    -2.9482172879     0.4032657357
   22      C       4.0933532172    -1.4230925851     0.7223432592
   23      O       2.8716816799    -1.0450091069     1.4708569606
   24      H       2.0456761947    -0.8288894522    -1.7874694131
   25      H       4.3771744861    -1.2576320520    -1.4746970607
   26      H       0.8755908410    -1.2606632712     0.6972464592
   27      H       1.7511309994    -3.6204152919     0.7294667204
   28      H       2.1007371392    -3.1998983269    -0.9738450474
   29      H       4.0631847066    -3.5643725056     1.2911887522
   30      H       4.4638974749    -3.3088422544    -0.4363839712
   31      H       5.0024344228    -1.1890850428     1.3082462658
   32      O      -2.2788908063     1.5583416085     2.5065894719
   33      C      -1.0855688148    -3.2229261580    -0.5943696256
   34      C      -4.5431840841    -0.7436580043    -1.0138005350
   35      C      -6.1109759253    -0.6927892648    -0.8304365280
   36      C      -6.2941493694     0.7407316765    -0.2076496572
   37      C      -4.7999278144     1.2557369180    -0.1787206321
   38      O      -4.1950967228     0.6452029370    -1.3847529732
   39      H      -4.4533281132    -1.6548843913     1.0226262362
   40      H      -4.6476723328     0.5195870666     1.9386865077
   41      H      -0.6128575246    -3.4323394021     0.3859476719
   42      H      -4.1728228028    -1.4606958333    -1.7718296917
   43      H      -6.6136628394    -0.7770654197    -1.8072118574
   44      H      -6.4811003066    -1.4953880551    -0.1728907824
   45      H      -6.9125832750     1.3861962463    -0.8514826634
   46      H      -6.7415806628     0.7123713617     0.7986439846
   47      H      -4.6810375050     2.3560458186    -0.2011202912
   48      H      -0.4277814207    -2.5374549895    -1.1659035104
   49      H      -1.2094030975    -4.1677404914    -1.1549830192
   50      H       7.5306701620     1.7950133583     0.7623176055
   51      H       6.0517249608     2.7802618984     0.4193358210
   52      H       7.0342708755     2.1354714153    -0.9443304211
   53      H      -0.6477742529     2.6576615567    -1.7280437994
   54      H       0.8230379217     3.1962619821    -0.7963535749
   55      H      -0.1619141415     1.7835733628     1.2203254260
   56      H      -0.9967582560     3.3308195038     0.8395932049
 ----------------------------------------------------------------

    9   -1510.2862820926      3.95E-09 Convergence criterion met
 Total energy in the final basis set = -1510.28628209
 Final energy is   -1510.28628209255
 **  OPTIMIZATION CONVERGED  **

                    Orbital Energies (a.u.)
 --------------------------------------------------------------

 Alpha MOs
 -- Occupied --
-18.942 -18.929 -18.924 -18.921 -18.888 -18.887 -18.881 -18.867
-18.865 -18.862 -10.108 -10.094 -10.090 -10.090 -10.070 -10.066
-10.062 -10.060 -10.060 -10.059 -10.052 -10.051 -10.040 -10.034
-10.032 -10.031 -10.021 -10.020 -10.018 -10.016  -1.019  -1.008
 -1.003  -0.998  -0.970  -0.964  -0.944  -0.933  -0.928  -0.922
 -0.763  -0.758  -0.725  -0.720  -0.713  -0.704  -0.691  -0.668
 -0.656  -0.610  -0.597  -0.573  -0.545  -0.539  -0.538  -0.533
 -0.516  -0.506  -0.487  -0.468  -0.463  -0.454  -0.447  -0.440
 -0.434  -0.431  -0.421  -0.417  -0.414  -0.408  -0.405  -0.403
 -0.390  -0.381  -0.370  -0.366  -0.359  -0.355  -0.350  -0.343
 -0.342  -0.335  -0.332  -0.329  -0.325  -0.321  -0.315  -0.315
 -0.307  -0.306  -0.302  -0.298  -0.288  -0.284  -0.283  -0.274
 -0.268  -0.260  -0.250  -0.245  -0.239  -0.235  -0.227  -0.185
 -0.173  -0.167  -0.165  -0.160  -0.151  -0.144  -0.141  -0.141
 -0.137

          Ground-State Mulliken Net Atomic Charges

     Atom                 Charge (a.u.)
  ----------------------------------------
      1 O                    -0.208694
      2 C                     0.216889
      3 C                    -0.077526
      4 C                    -0.081423
      5 C                     0.212067
      6 O                    -0.171403
      7 C                    -0.046830
      8 C                    -0.047921
      9 O                    -0.171763
     10 C                     0.213472
     11 C                    -0.078318
     12 C                    -0.079939
     13 C                     0.213738
     14 O                    -0.214794
     15 O                    -0.170565
     16 O                    -0.171153
     17 O                    -0.213652
     18 C                    -0.127705
     19 C                     0.017342
     20 C                    -0.145564
     21 C                    -0.142945
     22 C                     0.023927
     23 O                    -0.189088
     24 H                     0.083735
     25 H                     0.081758
     26 H                     0.097228
     27 H                     0.073937
     28 H                     0.069868
     29 H                     0.076983
     30 H                     0.071836
     31 H                     0.092433
     32 O                    -0.216211
     33 C                    -0.128528
     34 C                     0.025369
     35 C                    -0.143614
     36 C                    -0.144474
     37 C                     0.026819
     38 O                    -0.186562
     39 H                     0.085888
     40 H                     0.083844
     41 H                     0.089814
     42 H                     0.088630
     43 H                     0.077998
     44 H                     0.073488
     45 H                     0.077764
     46 H                     0.073874
     47 H                     0.083629
     48 H                     0.090748
     49 H                     0.091488
     50 H                     0.089305
     51 H                     0.092807
     52 H                     0.087338
     53 H                     0.095361
     54 H                     0.096580
     55 H                     0.099827
     56 H                     0.082891
  ----------------------------------------
  Sum of atomic charges =     0.000000

                    Cartesian Multipole Moments
 -----------------------------------------------------------------
    Charge (ESU x 10^10)
                 0.0000
    Dipole Moment (Debye)
         X      -1.1801      Y      -2.5322      Z      -1.5718
       Tot       3.2054
    Quadrupole Moments (Debye-Ang)
        XX    -137.3868     XY      -1.7709     YY    -149.4745
        XZ      -3.7035     YZ       1.2398     ZZ    -169.1671

 Total job time:  56.46s(wall), 2687.67s(cpu)
        *  Thank you very much for using Q-Chem.  Have a nice day.  *
