 Q-Chem 5.0, Q-Chem, Inc., Pleasanton, CA (2017)
 Q-Chem 5.0.1 for Intel X86 EM64T Linux

User input:
--------------------------------------------------------------
$molecule
0  1
O -1.443255865 -0.9805290834 0.8160713695
C -2.4845716519 -1.4152118235 0.2728510399
C -3.9504671546 -0.8650619886 0.4080119585
C -4.0485922737 0.5412184488 1.1368473502
C -2.6430764343 1.1818543681 1.4178264046
O -2.0500446589 1.5184583936 0.1581153183
C -0.7622959382 2.2091584774 0.373911291
C -0.0406762905 2.2314970803 -1.0194241789
O 0.6545460859 0.9411280353 -1.2407839283
C 1.8968036475 0.892660671 -0.5366939959
C 2.454001002 -0.5604704575 -0.7310135777
C 4.0216484372 -0.6910752259 -0.603360806
C 4.8071013777 0.6614980904 -0.7535082426
O 4.5246503824 1.617639851 -1.5069952674
O -2.5071051414 -2.5340600848 -0.6163572078
O 5.9641831065 0.62564919 0.0893922334
O 2.3535842941 1.8191778028 0.1655233113
C 6.7251349943 1.8884317276 -0.0472901302
C 1.9860394965 -1.4129650088 0.5297385889
C 2.3362669427 -2.936757135 0.2949269569
C 3.8833385117 -2.9499686674 0.5837174171
C 4.1539585082 -1.4116299889 0.8099576766
O 2.9539558202 -0.975889476 1.5630104817
H 2.0688706339 -0.9665982953 -1.6825266795
H 4.3995507774 -1.3617506991 -1.3984065757
H 0.9396905277 -1.2147813509 0.8457972039
H 1.7844167071 -3.5737415657 1.0041958693
H 2.0960969224 -3.2617450034 -0.7303095973
H 4.1155236271 -3.5172532936 1.4993383694
H 4.4720573796 -3.3650566267 -0.2498954825
H 5.0787829777 -1.1570665511 1.3617764423
O -2.1455775618 1.4490448293 2.5326807704
C -1.1329782789 -3.052633891 -0.8111257529
C -4.642876689 -0.5426028801 -0.9874533715
C -6.2038066061 -0.5037802869 -0.7510245524
C -6.3538820124 0.8540853269 0.0306887512
C -4.8586676063 1.3675392811 0.0486244199
O -4.3028659239 0.8759103866 -1.2335900837
H -4.5351654789 -1.6298672142 0.9530473554
H -4.5895991462 0.4636984112 2.0957082105
H -0.7003424959 -3.4293605073 0.1378552387
H -4.2990040325 -1.1827654049 -1.8228280325
H -6.7367064854 -0.4743421476 -1.7148591962
H -6.5625212558 -1.3717685841 -0.1753935064
H -6.999527733 1.5637288421 -0.5104372545
H -6.7548784465 0.7161758739 1.0475942607
H -4.7395851778 2.4655225258 0.1252756778
H -0.4597718197 -2.2717569882 -1.2201226297
H -1.2204517858 -3.8850786354 -1.5332053274
H 7.5928595467 1.7962275933 0.6315254703
H 6.1131285038 2.7651731418 0.2473830543
H 7.0810045262 2.041127192 -1.0868110795
H -0.7898104385 2.325506049 -1.8309693251
H 0.6777119971 3.0782690599 -1.0608830482
H -0.140378037 1.6820774712 1.1286811101
H -0.9345875632 3.2475106125 0.7363571564
$end

$rem
JOBTYPE                   OPT
METHOD                    B3LYP
DFT_D                     d3_op
BASIS                     STO-3G
GEOM_OPT_MAX_CYCLES       100
GEOM_OPT_TOL_GRADIENT     300
GEOM_OPT_TOL_DISPLACEMENT 1200
GEOM_OPT_TOL_ENERGY       100
SYMMETRY                  False
THRESH                    12
SCF_CONVERGENCE           8
MAX_SUB_FILE_NUM          128
MEM_STATIC                400
MEM_TOTAL                 4000
$end
--------------------------------------------------------------

   16   -1510.2853187672      5.49E-09 Convergence criterion met
 Total energy in the final basis set = -1510.28531877
   14   -1510.2244480053      5.84E-09 Convergence criterion met
 Total energy in the final basis set = -1510.22444801
   14   -1510.2871247570      5.73E-09 Convergence criterion met
 Total energy in the final basis set = -1510.28712476
   13   -1510.2886227151      3.69E-09 Convergence criterion met
 Total energy in the final basis set = -1510.28862272
   13   -1510.2892732680      9.95E-09 Convergence criterion met
 Total energy in the final basis set = -1510.28927327
   13   -1510.2903300148      3.33E-09 Convergence criterion met
 Total energy in the final basis set = -1510.29033001
   13   -1510.2921876210      6.65E-09 Convergence criterion met
 Total energy in the final basis set = -1510.29218762
   13   -1510.2911135706      8.49E-09 Convergence criterion met
   12   -1510.2987951276      3.91E-09 Convergence criterion met
 Total energy in the final basis set = -1510.29879513
   12   -1510.2988085637      1.99E-09 Convergence criterion met
 Total energy in the final basis set = -1510.29880856
   11   -1510.2988133916      3.86E-09 Convergence criterion met
 Total energy in the final basis set = -1510.29881339
   10   -1510.2988110709      7.44E-09 Convergence criterion met
 Total energy in the final basis set = -1510.29881107
   11   -1510.2988130169      3.46E-09 Convergence criterion met
 Total energy in the final basis set = -1510.29881302
   10   -1510.2988099320      7.43E-09 Convergence criterion met
 Total energy in the final basis set = -1510.29880993

             Standard Nuclear Orientation (Angstroms)
    I     Atom           X                Y                Z
 ----------------------------------------------------------------
    1      O      -0.9582158406    -1.0036291173     0.5376434006
    2      C      -2.0605739271    -1.1630400754    -0.0410093602
    3      C      -3.4505005780    -0.7590336112     0.5715050679
    4      C      -3.4281467431     0.7048267115     1.1878320794
    5      C      -2.0752332657     1.4655919228     0.9759707722
    6      O      -1.8212511962     1.5493491066    -0.4351346662
    7      C      -0.5676591714     2.2939675001    -0.6930062313
    8      C       0.1078100868     1.7080790968    -1.9801723274
    9      O       0.7276994887     0.3817156795    -1.7540360861
   10      C       2.0200476089     0.5144242717    -1.1392158577
   11      C       2.6190672864    -0.9105845504    -0.9245677565
   12      C       4.1121741398    -0.8973676364    -0.3925771030
   13      C       4.6923464469     0.5442177983    -0.1359250143
   14      O       5.4388644577     1.1902350140    -0.9037848592
   15      O      -2.2345223573    -1.7451236767    -1.3223528888
   16      O       4.3151586608     0.9745304624     1.1770419580
   17      O       2.5320659084     1.6209307159    -0.8634879265
   18      C       4.7807910573     2.3607603713     1.3987679331
   19      C       1.8764719340    -1.7068572021     0.2422902169
   20      C       2.2358190746    -3.2348397012     0.0701338469
   21      C       3.7318797603    -3.2564782733     0.5580116665
   22      C       3.9496591900    -1.7391424998     0.9440969821
   23      O       2.6262583445    -1.3149707852     1.4541997909
   24      H       2.5377170677    -1.4567934453    -1.8818777765
   25      H       4.7820695998    -1.3960028708    -1.1152697252
   26      H       0.7897949300    -1.4677252148     0.3480547258
   27      H       1.5926963266    -3.8528340514     0.7171627867
   28      H       2.1221677181    -3.5790642413    -0.9703214374
   29      H       3.8597653711    -3.9002256878     1.4426464410
   30      H       4.4308157615    -3.5901961557    -0.2256914847
   31      H       4.7366119263    -1.5522880086     1.6994511156
   32      O      -1.3395431805     1.9614188517     1.8558820681
   33      C      -0.9201552702    -2.0592659976    -1.9392288605
   34      C      -4.6209640922    -0.6278023501    -0.4893992315
   35      C      -5.9931106313    -0.6239775532     0.2918817187
   36      C      -5.9831027804     0.8201469029     0.9170493827
   37      C      -4.6121121075     1.3810745045     0.3668517960
   38      O      -4.4948956363     0.7662814874    -0.9739419952
   39      H      -3.7006350310    -1.5022534413     1.3515425428
   40      H      -3.6352366774     0.6908545567     2.2720582972
   41      H      -0.4304107672    -2.9068759873    -1.4188012261
   42      H      -4.5490577920    -1.3404647017    -1.3328584647
   43      H      -6.8338013741    -0.7539270552    -0.4080942300
   44      H      -6.0420442598    -1.4185245024     1.0535828563
   45      H      -6.8235636990     1.4276521011     0.5455879310
   46      H      -6.0143487078     0.8089993328     2.0183353539
   47      H      -4.5485379562     2.4841109271     0.2947338130
   48      H      -0.2492278569    -1.1662839260    -1.9177877708
   49      H      -1.1445322332    -2.3527887566    -2.9806875824
   50      H       4.4923902326     2.6184873317     2.4344171939
   51      H       4.2932132770     3.0623465090     0.6911839441
   52      H       5.8806954845     2.4492320025     1.2841037601
   53      H      -0.6593543558     1.5499943615    -2.7652155753
   54      H       0.8728914130     2.4288319770    -2.3407460711
   55      H       0.1087633591     2.2260330682     0.1860114195
   56      H      -0.8019682291     3.3673431413    -0.8706661547
 ----------------------------------------------------------------

    9   -1510.2988111234      2.91E-09 Convergence criterion met
 Total energy in the final basis set = -1510.29881112
 Final energy is   -1510.29881112337
 **  OPTIMIZATION CONVERGED  **

                    Orbital Energies (a.u.)
 --------------------------------------------------------------

 Alpha MOs
 -- Occupied --
-18.949 -18.944 -18.930 -18.916 -18.891 -18.889 -18.881 -18.876
-18.876 -18.852 -10.110 -10.110 -10.099 -10.084 -10.083 -10.072
-10.062 -10.060 -10.051 -10.049 -10.048 -10.041 -10.038 -10.037
-10.034 -10.027 -10.022 -10.021 -10.012 -10.011  -1.025  -1.018
 -1.008  -0.992  -0.971  -0.958  -0.949  -0.942  -0.935  -0.918
 -0.765  -0.756  -0.729  -0.720  -0.713  -0.704  -0.692  -0.660
 -0.646  -0.618  -0.598  -0.579  -0.548  -0.539  -0.536  -0.529
 -0.517  -0.506  -0.494  -0.474  -0.470  -0.456  -0.444  -0.437
 -0.435  -0.432  -0.426  -0.415  -0.411  -0.406  -0.403  -0.397
 -0.395  -0.384  -0.374  -0.369  -0.361  -0.358  -0.353  -0.352
 -0.341  -0.333  -0.333  -0.330  -0.323  -0.322  -0.314  -0.312
 -0.306  -0.305  -0.300  -0.299  -0.295  -0.292  -0.277  -0.273
 -0.271  -0.262  -0.249  -0.248  -0.237  -0.235  -0.221  -0.193
 -0.182  -0.172  -0.162  -0.161  -0.158  -0.151  -0.145  -0.135
 -0.132

          Ground-State Mulliken Net Atomic Charges

     Atom                 Charge (a.u.)
  ----------------------------------------
      1 O                    -0.218360
      2 C                     0.222508
      3 C                    -0.077218
      4 C                    -0.078936
      5 C                     0.212051
      6 O                    -0.174520
      7 C                    -0.052442
      8 C                    -0.047009
      9 O                    -0.173073
     10 C                     0.219284
     11 C                    -0.081067
     12 C                    -0.081509
     13 C                     0.212166
     14 O                    -0.223232
     15 O                    -0.165506
     16 O                    -0.167309
     17 O                    -0.204212
     18 C                    -0.127114
     19 C                     0.005922
     20 C                    -0.145597
     21 C                    -0.145053
     22 C                     0.026705
     23 O                    -0.187296
     24 H                     0.082827
     25 H                     0.080949
     26 H                     0.113406
     27 H                     0.074695
     28 H                     0.067272
     29 H                     0.075835
     30 H                     0.070736
     31 H                     0.084283
     32 O                    -0.208336
     33 C                    -0.146853
     34 C                     0.023724
     35 C                    -0.144109
     36 C                    -0.144052
     37 C                     0.026168
     38 O                    -0.187042
     39 H                     0.085578
     40 H                     0.086260
     41 H                     0.080124
     42 H                     0.092645
     43 H                     0.077965
     44 H                     0.073252
     45 H                     0.078097
     46 H                     0.074363
     47 H                     0.082624
     48 H                     0.114970
     49 H                     0.084810
     50 H                     0.088004
     51 H                     0.090967
     52 H                     0.084965
     53 H                     0.097776
     54 H                     0.097272
     55 H                     0.106379
     56 H                     0.085260
  ----------------------------------------
  Sum of atomic charges =    -0.000000

                    Cartesian Multipole Moments
 -----------------------------------------------------------------
    Charge (ESU x 10^10)
                -0.0000
    Dipole Moment (Debye)
         X      -2.6752      Y      -1.6017      Z      -1.1517
       Tot       3.3240
    Quadrupole Moments (Debye-Ang)
        XX    -156.4399     XY      -4.5985     YY    -151.0638
        XZ      -3.3897     YZ       1.5305     ZZ    -161.7831

 Total job time:  101.14s(wall), 4823.94s(cpu)
        *  Thank you very much for using Q-Chem.  Have a nice day.  *
