 Q-Chem 5.0, Q-Chem, Inc., Pleasanton, CA (2017)
 Q-Chem 5.0.1 for Intel X86 EM64T Linux

User input:
--------------------------------------------------------------
$molecule
0  1
O -3.94934 -3.66094 2.70899
C -3.26408 -4.56952 2.26188
C -3.36658 -6.02376 2.66595
C -4.57193 -6.42971 3.52977
C -5.63372 -5.37401 3.74466
O -6.26402 -5.10271 2.56375
C -7.34376 -4.17308 2.70233
C -7.78673 -3.67376 1.33098
O -6.93252 -2.6022 0.90092
C -7.20174 -1.38853 1.44283
C -6.18974 -0.33529 1.05916
C -6.71003 1.10887 1.10329
C -8.01253 1.31948 1.84885
O -8.95028 0.53551 1.87281
O -2.2765 -4.26485 1.37968
O -8.22648 2.56992 2.34172
O -7.74692 -1.33766 2.53926
C -9.37899 2.97039 2.9853
C -4.99872 -0.26193 2.03091
C -3.79396 0.34648 1.31805
C -4.25232 1.78157 1.17475
C -5.57235 1.7273 1.9552
O -5.35055 0.74833 2.93915
H -5.81354 -0.59471 0.04265
H -6.79679 1.6034 0.11132
H -4.73321 -1.24322 2.47429
H -2.94266 0.31234 2.03545
H -3.49381 -0.14935 0.37036
H -3.51299 2.43628 1.68754
H -4.41223 2.12901 0.13106
H -5.81171 2.74381 2.33519
O -5.97435 -4.95812 4.84591
C -2.03468 -2.99634 0.89548
C -3.58887 -6.9632 1.4573
C -3.1064 -8.37243 1.80165
C -4.18421 -8.81207 2.77238
C -5.12608 -7.60519 2.70434
O -4.98245 -7.14045 1.38399
H -2.39367 -6.28136 3.14186
H -4.23873 -6.74871 4.54277
H -1.78972 -2.30616 1.73105
H -3.0938 -6.6104 0.52643
H -3.19605 -8.98403 0.87514
H -2.06509 -8.43987 2.18363
H -4.68092 -9.71822 2.35974
H -3.83801 -9.00739 3.81042
H -6.15511 -7.88846 3.01757
H -2.92626 -2.62254 0.34824
H -1.17469 -3.03114 0.19589
H -9.27798 4.03394 3.28379
H -9.53965 2.3564 3.89727
H -10.25242 2.87082 2.30605
H -7.77242 -4.51097 0.60108
H -8.83947 -3.30892 1.37565
H -7.10812 -3.34879 3.4041
H -8.19292 -4.74313 3.14064
$end

$opt
CONSTRAINT
tors           1           2           3           4     +10.580
tors           3           4           5           6     +67.077
tors           4           5           6           7    +176.193
tors           5           6           7           8    +166.995
tors           6           7           8           9     -82.807
tors           7           8           9          10     -79.468
tors           8           9          10          11    +174.326
tors           9          10          11          12    +154.873
tors          11          12          13          14     -35.707
ENDCONSTRAINT
$end

$rem
JOBTYPE                   OPT
METHOD                    B3LYP
DFT_D                     d3_op
BASIS                     STO-3G
GEOM_OPT_MAX_CYCLES       100
GEOM_OPT_TOL_GRADIENT     300
GEOM_OPT_TOL_DISPLACEMENT 1200
GEOM_OPT_TOL_ENERGY       100
SYMMETRY                  False
THRESH                    12
SCF_CONVERGENCE           8
MAX_SUB_FILE_NUM          128
MEM_STATIC                400
MEM_TOTAL                 4000
$end
--------------------------------------------------------------

   16   -1510.1373744331      2.03E-09 Convergence criterion met
 Total energy in the final basis set = -1510.13737443
   14   -1510.2091467285      3.20E-09 Convergence criterion met
 Total energy in the final basis set = -1510.20914673
   14   -1510.2471997368      4.15E-09 Convergence criterion met
 Total energy in the final basis set = -1510.24719974
   14   -1510.2662259631      4.44E-09 Convergence criterion met
 Total energy in the final basis set = -1510.26622596
   14   -1510.2735990464      4.68E-09 Convergence criterion met
 Total energy in the final basis set = -1510.27359905
   13   -1510.2780744545      6.31E-09 Convergence criterion met
 Total energy in the final basis set = -1510.27807445
   13   -1510.2805819703      2.61E-09 Convergence criterion met
 Total energy in the final basis set = -1510.28058197
   13   -1510.2821831590      3.55E-09 Convergence criterion met
   11   -1510.2851904781      8.43E-09 Convergence criterion met
 Total energy in the final basis set = -1510.28519048
   11   -1510.2852380433      6.79E-09 Convergence criterion met
 Total energy in the final basis set = -1510.28523804
   10   -1510.2852705765      5.15E-09 Convergence criterion met
 Total energy in the final basis set = -1510.28527058
    9   -1510.2852965303      8.92E-09 Convergence criterion met
 Total energy in the final basis set = -1510.28529653
   10   -1510.2853068711      5.58E-09 Convergence criterion met
 Total energy in the final basis set = -1510.28530687
    9   -1510.2853109554      6.37E-09 Convergence criterion met
 Total energy in the final basis set = -1510.28531096

             Standard Nuclear Orientation (Angstroms)
    I     Atom           X                Y                Z
 ----------------------------------------------------------------
    1      O      -1.4432558650    -0.9805290834     0.8160713695
    2      C      -2.4845716519    -1.4152118235     0.2728510399
    3      C      -3.9504671546    -0.8650619886     0.4080119585
    4      C      -4.0485922737     0.5412184488     1.1368473502
    5      C      -2.6430764343     1.1818543681     1.4178264046
    6      O      -2.0500446589     1.5184583936     0.1581153183
    7      C      -0.7622959382     2.2091584774     0.3739112910
    8      C      -0.0406762905     2.2314970803    -1.0194241789
    9      O       0.6545460859     0.9411280353    -1.2407839283
   10      C       1.8968036475     0.8926606710    -0.5366939959
   11      C       2.4540010020    -0.5604704575    -0.7310135777
   12      C       4.0216484372    -0.6910752259    -0.6033608060
   13      C       4.8071013777     0.6614980904    -0.7535082426
   14      O       4.5246503824     1.6176398510    -1.5069952674
   15      O      -2.5071051414    -2.5340600848    -0.6163572078
   16      O       5.9641831065     0.6256491900     0.0893922334
   17      O       2.3535842941     1.8191778028     0.1655233113
   18      C       6.7251349943     1.8884317276    -0.0472901302
   19      C       1.9860394965    -1.4129650088     0.5297385889
   20      C       2.3362669427    -2.9367571350     0.2949269569
   21      C       3.8833385117    -2.9499686674     0.5837174171
   22      C       4.1539585082    -1.4116299889     0.8099576766
   23      O       2.9539558202    -0.9758894760     1.5630104817
   24      H       2.0688706339    -0.9665982953    -1.6825266795
   25      H       4.3995507774    -1.3617506991    -1.3984065757
   26      H       0.9396905277    -1.2147813509     0.8457972039
   27      H       1.7844167071    -3.5737415657     1.0041958693
   28      H       2.0960969224    -3.2617450034    -0.7303095973
   29      H       4.1155236271    -3.5172532936     1.4993383694
   30      H       4.4720573796    -3.3650566267    -0.2498954825
   31      H       5.0787829777    -1.1570665511     1.3617764423
   32      O      -2.1455775618     1.4490448293     2.5326807704
   33      C      -1.1329782789    -3.0526338910    -0.8111257529
   34      C      -4.6428766890    -0.5426028801    -0.9874533715
   35      C      -6.2038066061    -0.5037802869    -0.7510245524
   36      C      -6.3538820124     0.8540853269     0.0306887512
   37      C      -4.8586676063     1.3675392811     0.0486244199
   38      O      -4.3028659239     0.8759103866    -1.2335900837
   39      H      -4.5351654789    -1.6298672142     0.9530473554
   40      H      -4.5895991462     0.4636984112     2.0957082105
   41      H      -0.7003424959    -3.4293605073     0.1378552387
   42      H      -4.2990040325    -1.1827654049    -1.8228280325
   43      H      -6.7367064854    -0.4743421476    -1.7148591962
   44      H      -6.5625212558    -1.3717685841    -0.1753935064
   45      H      -6.9995277330     1.5637288421    -0.5104372545
   46      H      -6.7548784465     0.7161758739     1.0475942607
   47      H      -4.7395851778     2.4655225258     0.1252756778
   48      H      -0.4597718197    -2.2717569882    -1.2201226297
   49      H      -1.2204517858    -3.8850786354    -1.5332053274
   50      H       7.5928595467     1.7962275933     0.6315254703
   51      H       6.1131285038     2.7651731418     0.2473830543
   52      H       7.0810045262     2.0411271920    -1.0868110795
   53      H      -0.7898104385     2.3255060490    -1.8309693251
   54      H       0.6777119971     3.0782690599    -1.0608830482
   55      H      -0.1403780370     1.6820774712     1.1286811101
   56      H      -0.9345875632     3.2475106125     0.7363571564
 ----------------------------------------------------------------

    9   -1510.2853110147      2.38E-09 Convergence criterion met
 Total energy in the final basis set = -1510.28531101
 Final energy is   -1510.28531101469
 **  OPTIMIZATION CONVERGED  **

                    Orbital Energies (a.u.)
 --------------------------------------------------------------

 Alpha MOs
 -- Occupied --
-18.943 -18.929 -18.924 -18.918 -18.889 -18.886 -18.882 -18.868
-18.867 -18.861 -10.107 -10.094 -10.092 -10.089 -10.070 -10.067
-10.061 -10.061 -10.060 -10.060 -10.053 -10.053 -10.040 -10.034
-10.033 -10.031 -10.021 -10.020 -10.018 -10.016  -1.020  -1.008
 -1.003  -0.998  -0.970  -0.965  -0.943  -0.933  -0.928  -0.922
 -0.763  -0.759  -0.725  -0.720  -0.712  -0.704  -0.690  -0.667
 -0.656  -0.611  -0.596  -0.574  -0.546  -0.540  -0.538  -0.533
 -0.515  -0.507  -0.487  -0.468  -0.465  -0.455  -0.447  -0.440
 -0.434  -0.431  -0.417  -0.416  -0.414  -0.408  -0.406  -0.403
 -0.391  -0.381  -0.371  -0.366  -0.359  -0.354  -0.349  -0.344
 -0.342  -0.335  -0.331  -0.329  -0.325  -0.322  -0.315  -0.315
 -0.307  -0.305  -0.301  -0.298  -0.289  -0.285  -0.283  -0.275
 -0.268  -0.261  -0.250  -0.243  -0.239  -0.235  -0.228  -0.186
 -0.174  -0.168  -0.163  -0.159  -0.152  -0.144  -0.141  -0.140
 -0.138

          Ground-State Mulliken Net Atomic Charges

     Atom                 Charge (a.u.)
  ----------------------------------------
      1 O                    -0.209545
      2 C                     0.216333
      3 C                    -0.077828
      4 C                    -0.081177
      5 C                     0.212947
      6 O                    -0.173950
      7 C                    -0.047132
      8 C                    -0.047650
      9 O                    -0.175151
     10 C                     0.213793
     11 C                    -0.078209
     12 C                    -0.080215
     13 C                     0.213539
     14 O                    -0.213664
     15 O                    -0.169174
     16 O                    -0.171148
     17 O                    -0.212095
     18 C                    -0.127699
     19 C                     0.019334
     20 C                    -0.145349
     21 C                    -0.142946
     22 C                     0.023831
     23 O                    -0.188731
     24 H                     0.083197
     25 H                     0.082002
     26 H                     0.095392
     27 H                     0.075206
     28 H                     0.070018
     29 H                     0.077330
     30 H                     0.071851
     31 H                     0.092533
     32 O                    -0.216798
     33 C                    -0.128780
     34 C                     0.025291
     35 C                    -0.143241
     36 C                    -0.144634
     37 C                     0.026763
     38 O                    -0.185987
     39 H                     0.085118
     40 H                     0.084032
     41 H                     0.088993
     42 H                     0.088574
     43 H                     0.077996
     44 H                     0.073434
     45 H                     0.077865
     46 H                     0.073907
     47 H                     0.083449
     48 H                     0.092983
     49 H                     0.091319
     50 H                     0.089426
     51 H                     0.093088
     52 H                     0.087295
     53 H                     0.097691
     54 H                     0.094170
     55 H                     0.099847
     56 H                     0.082556
  ----------------------------------------
  Sum of atomic charges =    -0.000000

                    Cartesian Multipole Moments
 -----------------------------------------------------------------
    Charge (ESU x 10^10)
                 0.0000
    Dipole Moment (Debye)
         X      -1.2398      Y      -2.6355      Z      -1.6189
       Tot       3.3323
    Quadrupole Moments (Debye-Ang)
        XX    -136.8172     XY      -2.1339     YY    -150.4605
        XZ      -4.1550     YZ       1.2965     ZZ    -168.9144

 Total job time:  57.26s(wall), 2724.43s(cpu)
        *  Thank you very much for using Q-Chem.  Have a nice day.  *
