 Q-Chem 5.0, Q-Chem, Inc., Pleasanton, CA (2017)
 Q-Chem 5.0.1 for Intel X86 EM64T Linux

User input:
--------------------------------------------------------------
$molecule
0  1
O -3.94934 -3.66094 2.70899
C -3.26408 -4.56952 2.26188
C -3.36658 -6.02376 2.66595
C -4.60708 -6.44342 3.47149
C -5.69221 -5.40164 3.63039
O -6.33421 -5.21498 2.43941
C -7.49114 -4.37897 2.54829
C -7.93577 -3.91414 1.16541
O -7.14069 -2.79372 0.74662
C -7.49874 -1.5958 1.27191
C -6.57696 -0.47311 0.85894
C -7.2016 0.92888 0.90892
C -8.49801 1.0474 1.6848
O -9.41921 0.24433 1.65272
O -2.26116 -4.25948 1.39879
O -8.60437 2.08525 2.5598
O -8.06717 -1.5599 2.35641
C -9.69448 2.31633 3.37294
C -5.36552 -0.27919 1.79395
C -4.22513 0.36645 1.01217
C -4.79181 1.75453 0.78834
C -6.06517 1.67414 1.64372
O -5.73979 0.76175 2.66384
H -6.20124 -0.71611 -0.16235
H -7.41577 1.30599 -0.11474
H -5.02342 -1.22004 2.27552
H -3.36354 0.43945 1.71451
H -3.89821 -0.16398 0.09218
H -4.06924 2.49582 1.19582
H -5.04157 2.00066 -0.26658
H -6.35415 2.69529 1.97303
O -6.07067 -4.97506 4.71523
C -2.00885 -2.98697 0.92945
C -3.52148 -6.97155 1.45163
C -3.0289 -8.37056 1.82215
C -4.13615 -8.82398 2.75243
C -5.09904 -7.63758 2.63336
O -4.90665 -7.17703 1.31804
H -2.41083 -6.27004 3.18104
H -4.31402 -6.74544 4.502
H -1.77409 -2.30507 1.77467
H -2.99342 -6.61461 0.54073
H -3.07318 -8.98658 0.89523
H -2.00206 -8.42125 2.24382
H -4.59459 -9.7459 2.33065
H -3.82924 -8.99909 3.80632
H -6.13488 -7.93972 2.9035
H -2.89113 -2.60393 0.37319
H -1.13878 -3.01804 0.24221
H -9.51009 3.22762 3.9779
H -9.8491 1.45645 4.05925
H -10.605 2.47414 2.75621
H -7.85023 -4.75214 0.44132
H -9.01036 -3.61736 1.1854
H -7.34885 -3.5362 3.25319
H -8.30159 -5.0181 2.96355
$end

$opt
CONSTRAINT
tors           1           2           3           4     +13.489
tors           3           4           5           6     +71.553
tors           4           5           6           7    +172.025
tors           5           6           7           8    +165.029
tors           6           7           8           9     -81.436
tors           7           8           9          10     -79.716
tors           8           9          10          11    +176.592
tors           9          10          11          12    +155.873
tors          11          12          13          14     -41.770
ENDCONSTRAINT
$end

$rem
JOBTYPE                   OPT
METHOD                    B3LYP
DFT_D                     d3_op
BASIS                     STO-3G
GEOM_OPT_MAX_CYCLES       100
GEOM_OPT_TOL_GRADIENT     300
GEOM_OPT_TOL_DISPLACEMENT 1200
GEOM_OPT_TOL_ENERGY       100
SYMMETRY                  False
THRESH                    12
SCF_CONVERGENCE           8
MAX_SUB_FILE_NUM          128
MEM_STATIC                400
MEM_TOTAL                 4000
$end
--------------------------------------------------------------

   16   -1510.1402356149      1.92E-09 Convergence criterion met
 Total energy in the final basis set = -1510.14023561
   13   -1510.2115610551      9.59E-09 Convergence criterion met
 Total energy in the final basis set = -1510.21156106
   13   -1510.2501403612      9.28E-09 Convergence criterion met
 Total energy in the final basis set = -1510.25014036
   14   -1510.2679333958      2.00E-09 Convergence criterion met
 Total energy in the final basis set = -1510.26793340
   14   -1510.2745016932      4.38E-09 Convergence criterion met
 Total energy in the final basis set = -1510.27450169
   13   -1510.2782259017      5.33E-09 Convergence criterion met
 Total energy in the final basis set = -1510.27822590
   13   -1510.2803636537      3.99E-09 Convergence criterion met
 Total energy in the final basis set = -1510.28036365
   12   -1510.2817881099      9.74E-09 Convergence criterion met
   12   -1510.2849098183      3.77E-09 Convergence criterion met
 Total energy in the final basis set = -1510.28490982
   11   -1510.2849708353      7.17E-09 Convergence criterion met
 Total energy in the final basis set = -1510.28497084
   11   -1510.2850040092      4.53E-09 Convergence criterion met
 Total energy in the final basis set = -1510.28500401
    9   -1510.2850359690      9.54E-09 Convergence criterion met
 Total energy in the final basis set = -1510.28503597
   10   -1510.2850420287      6.97E-09 Convergence criterion met
 Total energy in the final basis set = -1510.28504203
    9   -1510.2850434007      6.69E-09 Convergence criterion met
 Total energy in the final basis set = -1510.28504340

             Standard Nuclear Orientation (Angstroms)
    I     Atom           X                Y                Z
 ----------------------------------------------------------------
    1      O      -1.4920970766    -1.0162077036     0.8256115501
    2      C      -2.5460178536    -1.4429890494     0.3001237774
    3      C      -3.9988091549    -0.8654594832     0.4581944037
    4      C      -4.0353302778     0.5803346881     1.1142299096
    5      C      -2.6010321752     1.1665755341     1.3693880930
    6      O      -2.0265986247     1.5089972717     0.1007363391
    7      C      -0.7581695695     2.2390595402     0.3013704813
    8      C      -0.0238254862     2.2251972761    -1.0850678317
    9      O       0.6761580625     0.9310850685    -1.2614605135
   10      C       1.9148548012     0.8985553583    -0.5525629333
   11      C       2.4907798302    -0.5452197215    -0.7576937175
   12      C       4.0578575268    -0.6663332830    -0.6025041450
   13      C       4.8266450224     0.7038644219    -0.6664157666
   14      O       4.6061963190     1.6509339388    -1.4516122882
   15      O      -2.5946361299    -2.5754673256    -0.5694330090
   16      O       5.8784877796     0.7033448622     0.3046795735
   17      O       2.3632888022     1.8316600834     0.1464142319
   18      C       6.6120265783     1.9884993870     0.2503591386
   19      C       2.0019682024    -1.4336283592     0.4701623055
   20      C       2.3444971247    -2.9498425652     0.1850634467
   21      C       3.8907780441    -2.9789442569     0.4766742334
   22      C       4.1657491460    -1.4531918445     0.7759458551
   23      O       2.9586105826    -1.0418507200     1.5308518359
   24      H       2.1298364975    -0.9353974735    -1.7252840049
   25      H       4.4596985709    -1.2907652878    -1.4229605906
   26      H       0.9537947240    -1.2390398331     0.7811985182
   27      H       1.7884242186    -3.6071340970     0.8722133783
   28      H       2.1039582772    -3.2389621295    -0.8507692353
   29      H       4.1203230696    -3.5899756777     1.3643278951
   30      H       4.4807528923    -3.3544055298    -0.3746043171
   31      H       5.0832853388    -1.2302394374     1.3527760407
   32      O      -2.0800355929     1.4189734252     2.4770180888
   33      C      -1.2300555474    -3.1197743680    -0.7649857565
   34      C      -4.7187838867    -0.5926159294    -0.9331855934
   35      C      -6.2689896226    -0.4677311363    -0.6617356006
   36      C      -6.3399360554     0.9431461299     0.0321572581
   37      C      -4.8213682451     1.3831266400    -0.0070481837
   38      O      -4.3183969734     0.7915940917    -1.2688631884
   39      H      -4.5809791319    -1.5893870447     1.0587624571
   40      H      -4.5742393064     0.5688599213     2.0773606712
   41      H      -0.7969067637    -3.4875219098     0.1874596008
   42      H      -4.4265266897    -1.2944295478    -1.7382005694
   43      H      -6.8264850637    -0.4776960162    -1.6119219147
   44      H      -6.6486826689    -1.2799000981    -0.0215799207
   45      H      -6.9603315473     1.6469095170    -0.5451245564
   46      H      -6.7285373134     0.8915206021     1.0617552604
   47      H      -4.6475004733     2.4762371257     0.0037456508
   48      H      -0.5467716835    -2.3571853413    -1.1913205979
   49      H      -1.3365334831    -3.9626292272    -1.4722544467
   50      H       7.3929276895     1.9271253909     1.0305581685
   51      H       5.9418578240     2.8468808704     0.4602900540
   52      H       7.0872782007     2.1467275598    -0.7394747979
   53      H      -0.7647064850     2.2930852549    -1.9067588699
   54      H       0.6922689952     3.0730531142    -1.1435897613
   55      H      -0.1304920272     1.7595238035     1.0824677751
   56      H      -0.9617829174     3.2862995424     0.6195507234
 ----------------------------------------------------------------

    9   -1510.2850437677      3.58E-09 Convergence criterion met
 Total energy in the final basis set = -1510.28504377
 Final energy is   -1510.28504376774
 **  OPTIMIZATION CONVERGED  **

                    Orbital Energies (a.u.)
 --------------------------------------------------------------

 Alpha MOs
 -- Occupied --
-18.944 -18.929 -18.924 -18.917 -18.888 -18.886 -18.882 -18.868
-18.866 -18.859 -10.107 -10.094 -10.092 -10.089 -10.071 -10.068
-10.061 -10.060 -10.060 -10.059 -10.053 -10.052 -10.040 -10.033
-10.033 -10.031 -10.021 -10.020 -10.018 -10.016  -1.020  -1.008
 -1.003  -0.997  -0.970  -0.964  -0.943  -0.933  -0.927  -0.922
 -0.763  -0.758  -0.725  -0.720  -0.712  -0.704  -0.690  -0.668
 -0.656  -0.611  -0.596  -0.574  -0.546  -0.539  -0.538  -0.533
 -0.515  -0.506  -0.487  -0.468  -0.465  -0.455  -0.446  -0.441
 -0.434  -0.431  -0.418  -0.417  -0.414  -0.407  -0.405  -0.403
 -0.391  -0.381  -0.370  -0.365  -0.360  -0.355  -0.349  -0.344
 -0.341  -0.335  -0.332  -0.329  -0.325  -0.322  -0.316  -0.315
 -0.306  -0.305  -0.301  -0.298  -0.291  -0.284  -0.283  -0.275
 -0.269  -0.261  -0.250  -0.242  -0.239  -0.234  -0.228  -0.186
 -0.174  -0.168  -0.162  -0.160  -0.151  -0.144  -0.142  -0.139
 -0.138

          Ground-State Mulliken Net Atomic Charges

     Atom                 Charge (a.u.)
  ----------------------------------------
      1 O                    -0.208339
      2 C                     0.216404
      3 C                    -0.077780
      4 C                    -0.081367
      5 C                     0.213096
      6 O                    -0.175138
      7 C                    -0.047804
      8 C                    -0.047185
      9 O                    -0.175151
     10 C                     0.213691
     11 C                    -0.078203
     12 C                    -0.080272
     13 C                     0.213722
     14 O                    -0.214886
     15 O                    -0.168523
     16 O                    -0.170389
     17 O                    -0.212231
     18 C                    -0.127505
     19 C                     0.020115
     20 C                    -0.145116
     21 C                    -0.143250
     22 C                     0.023597
     23 O                    -0.188757
     24 H                     0.083845
     25 H                     0.081897
     26 H                     0.094664
     27 H                     0.075111
     28 H                     0.070201
     29 H                     0.077214
     30 H                     0.071773
     31 H                     0.092921
     32 O                    -0.217370
     33 C                    -0.128485
     34 C                     0.024861
     35 C                    -0.143484
     36 C                    -0.144487
     37 C                     0.026833
     38 O                    -0.186580
     39 H                     0.085399
     40 H                     0.083968
     41 H                     0.089167
     42 H                     0.088733
     43 H                     0.077983
     44 H                     0.073377
     45 H                     0.077738
     46 H                     0.073871
     47 H                     0.083769
     48 H                     0.093284
     49 H                     0.091648
     50 H                     0.089358
     51 H                     0.093556
     52 H                     0.086970
     53 H                     0.097647
     54 H                     0.093664
     55 H                     0.100632
     56 H                     0.081590
  ----------------------------------------
  Sum of atomic charges =     0.000000

                    Cartesian Multipole Moments
 -----------------------------------------------------------------
    Charge (ESU x 10^10)
                -0.0000
    Dipole Moment (Debye)
         X      -1.3628      Y      -2.5010      Z      -1.5342
       Tot       3.2351
    Quadrupole Moments (Debye-Ang)
        XX    -137.3977     XY      -2.5304     YY    -149.7694
        XZ      -3.8691     YZ       1.6583     ZZ    -168.8748

 Total job time:  56.47s(wall), 2689.60s(cpu)
        *  Thank you very much for using Q-Chem.  Have a nice day.  *
