 Q-Chem 5.0, Q-Chem, Inc., Pleasanton, CA (2017)
 Q-Chem 5.0.1 for Intel X86 EM64T Linux

User input:
--------------------------------------------------------------
$molecule
0  1
O -1.4920970766 -1.0162077036 0.8256115501
C -2.5460178536 -1.4429890494 0.3001237774
C -3.9988091549 -0.8654594832 0.4581944037
C -4.0353302778 0.5803346881 1.1142299096
C -2.6010321752 1.1665755341 1.369388093
O -2.0265986247 1.5089972717 0.1007363391
C -0.7581695695 2.2390595402 0.3013704813
C -0.0238254862 2.2251972761 -1.0850678317
O 0.6761580625 0.9310850685 -1.2614605135
C 1.9148548012 0.8985553583 -0.5525629333
C 2.4907798302 -0.5452197215 -0.7576937175
C 4.0578575268 -0.666333283 -0.602504145
C 4.8266450224 0.7038644219 -0.6664157666
O 4.606196319 1.6509339388 -1.4516122882
O -2.5946361299 -2.5754673256 -0.569433009
O 5.8784877796 0.7033448622 0.3046795735
O 2.3632888022 1.8316600834 0.1464142319
C 6.6120265783 1.988499387 0.2503591386
C 2.0019682024 -1.4336283592 0.4701623055
C 2.3444971247 -2.9498425652 0.1850634467
C 3.8907780441 -2.9789442569 0.4766742334
C 4.165749146 -1.4531918445 0.7759458551
O 2.9586105826 -1.04185072 1.5308518359
H 2.1298364975 -0.9353974735 -1.7252840049
H 4.4596985709 -1.2907652878 -1.4229605906
H 0.953794724 -1.2390398331 0.7811985182
H 1.7884242186 -3.607134097 0.8722133783
H 2.1039582772 -3.2389621295 -0.8507692353
H 4.1203230696 -3.5899756777 1.3643278951
H 4.4807528923 -3.3544055298 -0.3746043171
H 5.0832853388 -1.2302394374 1.3527760407
O -2.0800355929 1.4189734252 2.4770180888
C -1.2300555474 -3.119774368 -0.7649857565
C -4.7187838867 -0.5926159294 -0.9331855934
C -6.2689896226 -0.4677311363 -0.6617356006
C -6.3399360554 0.9431461299 0.0321572581
C -4.8213682451 1.38312664 -0.0070481837
O -4.3183969734 0.7915940917 -1.2688631884
H -4.5809791319 -1.5893870447 1.0587624571
H -4.5742393064 0.5688599213 2.0773606712
H -0.7969067637 -3.4875219098 0.1874596008
H -4.4265266897 -1.2944295478 -1.7382005694
H -6.8264850637 -0.4776960162 -1.6119219147
H -6.6486826689 -1.2799000981 -0.0215799207
H -6.9603315473 1.646909517 -0.5451245564
H -6.7285373134 0.8915206021 1.0617552604
H -4.6475004733 2.4762371257 0.0037456508
H -0.5467716835 -2.3571853413 -1.1913205979
H -1.3365334831 -3.9626292272 -1.4722544467
H 7.3929276895 1.9271253909 1.0305581685
H 5.941857824 2.8468808704 0.460290054
H 7.0872782007 2.1467275598 -0.7394747979
H -0.764706485 2.2930852549 -1.9067588699
H 0.6922689952 3.0730531142 -1.1435897613
H -0.1304920272 1.7595238035 1.0824677751
H -0.9617829174 3.2862995424 0.6195507234
$end

$rem
JOBTYPE                   OPT
METHOD                    B3LYP
DFT_D                     d3_op
BASIS                     STO-3G
GEOM_OPT_MAX_CYCLES       100
GEOM_OPT_TOL_GRADIENT     300
GEOM_OPT_TOL_DISPLACEMENT 1200
GEOM_OPT_TOL_ENERGY       100
SYMMETRY                  False
THRESH                    12
SCF_CONVERGENCE           8
MAX_SUB_FILE_NUM          128
MEM_STATIC                400
MEM_TOTAL                 4000
$end
--------------------------------------------------------------

   16   -1510.2850571108      4.10E-09 Convergence criterion met
 Total energy in the final basis set = -1510.28505711
   14   -1510.2301232454      7.05E-09 Convergence criterion met
 Total energy in the final basis set = -1510.23012325
   14   -1510.2875627312      5.77E-09 Convergence criterion met
 Total energy in the final basis set = -1510.28756273
   13   -1510.2889218517      8.56E-09 Convergence criterion met
 Total energy in the final basis set = -1510.28892185
   13   -1510.2897682429      5.06E-09 Convergence criterion met
 Total energy in the final basis set = -1510.28976824
   13   -1510.2910501794      7.63E-09 Convergence criterion met
 Total energy in the final basis set = -1510.29105018
   13   -1510.2929943811      8.45E-09 Convergence criterion met
 Total energy in the final basis set = -1510.29299438
   13   -1510.2925659996      8.88E-09 Convergence criterion met
   11   -1510.2988573439      6.99E-09 Convergence criterion met
 Total energy in the final basis set = -1510.29885734
   12   -1510.2988419290      7.23E-09 Convergence criterion met
 Total energy in the final basis set = -1510.29884193
   12   -1510.2987895069      9.34E-09 Convergence criterion met
 Total energy in the final basis set = -1510.29878951
   11   -1510.2987975741      4.32E-09 Convergence criterion met
 Total energy in the final basis set = -1510.29879757
   10   -1510.2987948095      5.51E-09 Convergence criterion met
 Total energy in the final basis set = -1510.29879481
    9   -1510.2987937383      4.79E-09 Convergence criterion met
 Total energy in the final basis set = -1510.29879374

             Standard Nuclear Orientation (Angstroms)
    I     Atom           X                Y                Z
 ----------------------------------------------------------------
    1      O      -0.9705670957    -0.9817599813     0.5526258235
    2      C      -2.0748636147    -1.1415032059    -0.0222146103
    3      C      -3.4613959655    -0.7248403301     0.5893566383
    4      C      -3.4295274976     0.7433607058     1.1947821025
    5      C      -2.0722506028     1.4942313021     0.9749549965
    6      O      -1.8207511714     1.5669279374    -0.4372141580
    7      C      -0.5619880388     2.3001670002    -0.7027605860
    8      C       0.1078973386     1.6990316773    -1.9857883878
    9      O       0.7183368569     0.3702786651    -1.7483222780
   10      C       2.0173621122     0.4992629823    -1.1469398088
   11      C       2.6052580402    -0.9283131259    -0.9180079346
   12      C       4.0996366026    -0.9217223735    -0.3893308314
   13      C       4.6928242948     0.5176213150    -0.1507550177
   14      O       5.4458118413     1.1468026850    -0.9261923465
   15      O      -2.2545552196    -1.7352175675    -1.2973710854
   16      O       4.3182991143     0.9683959343     1.1561938012
   17      O       2.5423234279     1.6045341044    -0.8913085591
   18      C       4.7958380610     2.3532878507     1.3602279777
   19      C       1.8583764687    -1.7050855923     0.2590199368
   20      C       2.2044529512    -3.2378712358     0.1034431308
   21      C       3.7011536094    -3.2665538746     0.5891018412
   22      C       3.9324992402    -1.7467732660     0.9573933608
   23      O       2.6137677204    -1.3056987646     1.4649787578
   24      H       2.5170903764    -1.4842426940    -1.8691537621
   25      H       4.7637102500    -1.4346493789    -1.1073910047
   26      H       0.7738856367    -1.4558494547     0.3640358151
   27      H       1.5572462288    -3.8432814473     0.7582057804
   28      H       2.0862123294    -3.5924347083    -0.9330009855
   29      H       3.8250619193    -3.9010800460     1.4809532778
   30      H       4.3959016719    -3.6152292698    -0.1917518386
   31      H       4.7224900972    -1.5580707664     1.7091240153
   32      O      -1.3314066069     1.9909615162     1.8500246479
   33      C      -0.9432823634    -2.0623411196    -1.9141623365
   34      C      -4.6327067881    -0.5946021124    -0.4707727596
   35      C      -6.0035740461    -0.5772913271     0.3126688945
   36      C      -5.9842128691     0.8712908212     0.9272714216
   37      C      -4.6108988104     1.4203094154     0.3707386691
   38      O      -4.4993833864     0.7950889432    -0.9656843140
   39      H      -3.7147552097    -1.4609331425     1.3750998105
   40      H      -3.6348250071     0.7387097959     2.2794204332
   41      H      -0.4574958938    -2.9082843295    -1.3873568235
   42      H      -4.5660890669    -1.3137920107    -1.3091460923
   43      H      -6.8461617349    -0.7075480709    -0.3849640626
   44      H      -6.0556185556    -1.3660403572     1.0801544352
   45      H      -6.8218345612     1.4808619061     0.5528025175
   46      H      -6.0136041774     0.8682887545     2.0286610137
   47      H      -4.5412123485     2.5224136436     0.2904720219
   48      H      -0.2669586392    -1.1732578042    -1.9017527009
   49      H      -1.1714496949    -2.3636041632    -2.9525885691
   50      H       4.5097554719     2.6266271888     2.3925262114
   51      H       4.3141001886     3.0499092173     0.6437725302
   52      H       5.8964090604     2.4309284357     1.2443101414
   53      H      -0.6609990812     1.5403493273    -2.7690149753
   54      H       0.8783957540     2.4109473550    -2.3522121364
   55      H       0.1147741335     2.2344674744     0.1762064972
   56      H      -0.7887913276     3.3737277504    -0.8888528243
 ----------------------------------------------------------------

    9   -1510.2987952117      2.76E-09 Convergence criterion met
 Total energy in the final basis set = -1510.29879521
 Final energy is   -1510.29879521167
 **  OPTIMIZATION CONVERGED  **

                    Orbital Energies (a.u.)
 --------------------------------------------------------------

 Alpha MOs
 -- Occupied --
-18.949 -18.944 -18.930 -18.916 -18.891 -18.889 -18.881 -18.876
-18.875 -18.852 -10.110 -10.110 -10.099 -10.084 -10.083 -10.072
-10.062 -10.060 -10.051 -10.049 -10.048 -10.041 -10.038 -10.037
-10.034 -10.027 -10.022 -10.021 -10.012 -10.011  -1.025  -1.018
 -1.008  -0.992  -0.972  -0.958  -0.949  -0.942  -0.935  -0.918
 -0.765  -0.756  -0.729  -0.720  -0.713  -0.704  -0.692  -0.660
 -0.646  -0.618  -0.598  -0.579  -0.548  -0.539  -0.536  -0.529
 -0.517  -0.506  -0.494  -0.474  -0.470  -0.456  -0.444  -0.437
 -0.435  -0.432  -0.426  -0.415  -0.411  -0.406  -0.403  -0.397
 -0.395  -0.384  -0.374  -0.369  -0.361  -0.358  -0.353  -0.352
 -0.341  -0.333  -0.333  -0.330  -0.323  -0.322  -0.314  -0.312
 -0.306  -0.305  -0.300  -0.299  -0.295  -0.292  -0.277  -0.273
 -0.271  -0.262  -0.249  -0.248  -0.237  -0.235  -0.221  -0.193
 -0.182  -0.172  -0.163  -0.161  -0.158  -0.151  -0.145  -0.135
 -0.132

          Ground-State Mulliken Net Atomic Charges

     Atom                 Charge (a.u.)
  ----------------------------------------
      1 O                    -0.218271
      2 C                     0.222568
      3 C                    -0.077221
      4 C                    -0.078939
      5 C                     0.212081
      6 O                    -0.174518
      7 C                    -0.052415
      8 C                    -0.047088
      9 O                    -0.173092
     10 C                     0.219301
     11 C                    -0.081031
     12 C                    -0.081523
     13 C                     0.212172
     14 O                    -0.223173
     15 O                    -0.165506
     16 O                    -0.167357
     17 O                    -0.204232
     18 C                    -0.127137
     19 C                     0.005859
     20 C                    -0.145615
     21 C                    -0.145054
     22 C                     0.026728
     23 O                    -0.187342
     24 H                     0.082811
     25 H                     0.080946
     26 H                     0.113488
     27 H                     0.074693
     28 H                     0.067243
     29 H                     0.075829
     30 H                     0.070740
     31 H                     0.084240
     32 O                    -0.208364
     33 C                    -0.146864
     34 C                     0.023735
     35 C                    -0.144110
     36 C                    -0.144054
     37 C                     0.026172
     38 O                    -0.187052
     39 H                     0.085579
     40 H                     0.086258
     41 H                     0.080127
     42 H                     0.092637
     43 H                     0.077964
     44 H                     0.073251
     45 H                     0.078100
     46 H                     0.074362
     47 H                     0.082630
     48 H                     0.115014
     49 H                     0.084810
     50 H                     0.087987
     51 H                     0.090932
     52 H                     0.084994
     53 H                     0.097738
     54 H                     0.097446
     55 H                     0.106279
     56 H                     0.085245
  ----------------------------------------
  Sum of atomic charges =    -0.000000

                    Cartesian Multipole Moments
 -----------------------------------------------------------------
    Charge (ESU x 10^10)
                -0.0000
    Dipole Moment (Debye)
         X      -2.6969      Y      -1.5961      Z      -1.1272
       Tot       3.3304
    Quadrupole Moments (Debye-Ang)
        XX    -156.5690     XY      -4.5730     YY    -150.9660
        XZ      -3.3143     YZ       1.4499     ZZ    -161.8330

 Total job time:  100.11s(wall), 4777.24s(cpu)
        *  Thank you very much for using Q-Chem.  Have a nice day.  *
