 Q-Chem 5.0, Q-Chem, Inc., Pleasanton, CA (2017)
 Q-Chem 5.0.1 for Intel X86 EM64T Linux

User input:
--------------------------------------------------------------
$molecule
0  1
O -1.304168419 -0.9797568635 0.6606519233
C -2.3784622162 -1.484181001 0.260747922
C -3.8395470639 -0.9348181779 0.4224039241
C -3.9499740431 0.4905032057 1.1034580991
C -2.5699650231 1.1862720451 1.3816536117
O -1.9942312867 1.574747515 0.130809232
C -0.7515934683 2.3432465262 0.3620977265
C -0.0016906419 2.4066330905 -1.0114727629
O 0.624725966 1.0947311829 -1.307058613
C 1.8758893949 0.9823870397 -0.6185097083
C 2.4141118198 -0.4717776595 -0.8513355683
C 3.9616768555 -0.6265507385 -0.5816365897
C 4.7984725741 0.6978813319 -0.6970239956
O 4.5703206897 1.6835540567 -1.4301918749
O -2.4736563789 -2.7103927468 -0.4671798691
O 5.9404282886 0.5926287082 0.1623381067
O 2.3519736811 1.8717257775 0.1188088562
C 6.7572081265 1.8236805065 0.0652052307
C 1.8315417118 -1.3604634419 0.3377508578
C 2.2401662521 -2.8742816502 0.1216646164
C 3.739955926 -2.8728732521 0.5960594534
C 3.960259915 -1.3319541992 0.8456000483
O 2.681094108 -0.9187963925 1.4700238571
H 2.1089032138 -0.8302558282 -1.8499608908
H 4.390077419 -1.3218256672 -1.3288423361
H 0.7506478045 -1.188537569 0.5467979505
H 1.6213127669 -3.5350157945 0.7487395958
H 2.1297788618 -3.1842432903 -0.9299947703
H 3.8637238653 -3.4351388398 1.5355969746
H 4.4303622689 -3.2834560267 -0.1579352847
H 4.8196592107 -1.0616364618 1.4882365995
O -2.0750141116 1.4403996537 2.5011308911
C -1.1311325423 -3.2887218126 -0.6955764698
C -4.5580302332 -0.6695944952 -0.9745883697
C -6.1159857148 -0.6397652725 -0.7187775304
C -6.2715136942 0.7436116473 0.0150762229
C -4.7814853572 1.2715660494 -0.0026155283
O -4.2352362623 0.7420698545 -1.273636884
H -4.4046775255 -1.6887577464 1.0015159286
H -4.4914103953 0.4291563212 2.0634563844
H -0.6203502561 -3.5199469668 0.2603562847
H -4.2195562659 -1.3357085199 -1.7917250833
H -6.6608391286 -0.6516117582 -1.6763021778
H -6.4572275787 -1.4905409538 -0.1078951398
H -6.9301000641 1.4268105963 -0.5442604433
H -6.6601949488 0.6385767442 1.0406288872
H -4.67235919 2.3724633219 0.0354294619
H -0.4876833153 -2.6047279237 -1.2849939432
H -1.2938968726 -4.2236877681 -1.262652958
H 7.6081282552 1.6811260014 0.756434839
H 6.1782909408 2.7202256155 0.3671146287
H 7.1380924036 1.982047159 -0.9645941494
H -0.7240983439 2.5981675072 -1.830074202
H 0.7655160023 3.2098490781 -0.9798485532
H -0.1142799857 1.8579322166 1.1318887967
H -0.9929137704 3.371777231 0.7133050785
$end

$rem
JOBTYPE                   OPT
METHOD                    B3LYP
DFT_D                     d3_op
BASIS                     STO-3G
GEOM_OPT_MAX_CYCLES       100
GEOM_OPT_TOL_GRADIENT     300
GEOM_OPT_TOL_DISPLACEMENT 1200
GEOM_OPT_TOL_ENERGY       100
SYMMETRY                  False
THRESH                    12
SCF_CONVERGENCE           8
MAX_SUB_FILE_NUM          128
MEM_STATIC                400
MEM_TOTAL                 4000
$end
--------------------------------------------------------------

   16   -1510.2862789593      3.94E-09 Convergence criterion met
 Total energy in the final basis set = -1510.28627896
   14   -1510.2410193702      4.79E-09 Convergence criterion met
 Total energy in the final basis set = -1510.24101937
   14   -1510.2867503275      4.19E-09 Convergence criterion met
 Total energy in the final basis set = -1510.28675033
   14   -1510.2840464595      4.15E-09 Convergence criterion met
 Total energy in the final basis set = -1510.28404646
   13   -1510.2866892903      8.03E-09 Convergence criterion met
 Total energy in the final basis set = -1510.28668929
   14   -1510.2878073107      5.49E-09 Convergence criterion met
 Total energy in the final basis set = -1510.28780731
   14   -1510.2881013588      3.09E-09 Convergence criterion met
 Total energy in the final basis set = -1510.28810136
   13   -1510.2896424315      5.75E-09 Convergence criterion met
   10   -1510.2988030847      9.81E-09 Convergence criterion met
 Total energy in the final basis set = -1510.29880308
   11   -1510.2988076514      6.32E-09 Convergence criterion met
 Total energy in the final basis set = -1510.29880765
   11   -1510.2988008293      3.84E-09 Convergence criterion met
 Total energy in the final basis set = -1510.29880083
   10   -1510.2987993827      9.49E-09 Convergence criterion met
 Total energy in the final basis set = -1510.29879938
   10   -1510.2988041048      6.10E-09 Convergence criterion met
 Total energy in the final basis set = -1510.29880410
    9   -1510.2987984376      6.49E-09 Convergence criterion met
 Total energy in the final basis set = -1510.29879844

             Standard Nuclear Orientation (Angstroms)
    I     Atom           X                Y                Z
 ----------------------------------------------------------------
    1      O      -0.9792759551    -0.9797226469     0.5516595728
    2      C      -2.0816968502    -1.1336793493    -0.0283476272
    3      C      -3.4683851633    -0.7054201599     0.5746990046
    4      C      -3.4286631333     0.7633471740     1.1783838779
    5      C      -2.0625799867     1.5014164462     0.9697182332
    6      O      -1.8001768398     1.5752414355    -0.4404230387
    7      C      -0.5298641285     2.2927454072    -0.6942536546
    8      C       0.1421696341     1.6858635038    -1.9734711617
    9      O       0.7347503656     0.3497333437    -1.7323887121
   10      C       2.0379480598     0.4634990345    -1.1369109171
   11      C       2.6059522992    -0.9710151696    -0.9005326309
   12      C       4.0977375274    -0.9823651851    -0.3645262602
   13      C       4.7098764711     0.4495830940    -0.1295339589
   14      O       5.4786091340     1.0629800600    -0.9021200578
   15      O      -2.2590821042    -1.7297380591    -1.3027052427
   16      O       4.3311488511     0.9134481753     1.1716700342
   17      O       2.5803509779     1.5625757711    -0.8911530558
   18      C       4.8273580680     2.2922916765     1.3719549276
   19      C       1.8427664358    -1.7326809965     0.2757117866
   20      C       2.1688291488    -3.2707116069     0.1291628903
   21      C       3.6626710712    -3.3170369921     0.6223747064
   22      C       3.9123637621    -1.7988302308     0.9851801403
   23      O       2.5971753484    -1.3377513266     1.4837552996
   24      H       2.5149643306    -1.5291285404    -1.8501701520
   25      H       4.7582258867    -1.5079554474    -1.0767171058
   26      H       0.7610728595    -1.4687307369     0.3736974637
   27      H       1.5103485306    -3.8641156268     0.7836272236
   28      H       2.0510760552    -3.6287272359    -0.9061447622
   29      H       3.7737852433    -3.9492883513     1.5175067867
   30      H       4.3564350247    -3.6783032670    -0.1535645457
   31      H       4.7008644054    -1.6174202382     1.7402643336
   32      O      -1.3229548438     1.9883462834     1.8513263824
   33      C      -0.9471584037    -2.0680610743    -1.9118886876
   34      C      -4.6319327286    -0.5672317409    -0.4928072030
   35      C      -6.0075780168    -0.5359763700     0.2819178905
   36      C      -5.9798114979     0.9142535358     0.8923408653
   37      C      -4.5976014067     1.4492781474     0.3442361137
   38      O      -4.4826853041     0.8200221561    -0.9899774534
   39      H      -3.7319891427    -1.4385269983     1.3598909471
   40      H      -3.6429627051     0.7616262222     2.2612784394
   41      H      -0.4719185258    -2.9181576784    -1.3822035327
   42      H      -4.5663947476    -1.2888860115    -1.3291462364
   43      H      -6.8468955821    -0.6614267390    -0.4205118794
   44      H      -6.0707784483    -1.3219973052     1.0513282173
   45      H      -6.8091539586     1.5301120081     0.5098157554
   46      H      -6.0174291232     0.9148513621     1.9935018443
   47      H      -4.5172395200     2.5505152692     0.2620058893
   48      H      -0.2632015968    -1.1849383111    -1.8952970957
   49      H      -1.1718015171    -2.3673425061    -2.9516589122
   50      H       4.5362457835     2.5758793404     2.4000954355
   51      H       4.3624990530     2.9918356640     0.6472416765
   52      H       5.9299484184     2.3529627597     1.2655465361
   53      H      -0.6227664713     1.5378423020    -2.7626348174
   54      H       0.9245092817     2.3885392949    -2.3324487873
   55      H       0.1385482461     2.2157612940     0.1902039798
   56      H      -0.7412260856     3.3696635337    -0.8791295505
 ----------------------------------------------------------------

    9   -1510.2988012343      4.88E-09 Convergence criterion met
 Total energy in the final basis set = -1510.29880123
 Final energy is   -1510.29880123429
 **  OPTIMIZATION CONVERGED  **

                    Orbital Energies (a.u.)
 --------------------------------------------------------------

 Alpha MOs
 -- Occupied --
-18.949 -18.944 -18.930 -18.916 -18.891 -18.889 -18.881 -18.876
-18.875 -18.852 -10.110 -10.110 -10.099 -10.084 -10.083 -10.072
-10.062 -10.060 -10.051 -10.049 -10.048 -10.041 -10.038 -10.037
-10.035 -10.027 -10.022 -10.021 -10.012 -10.011  -1.025  -1.018
 -1.008  -0.992  -0.972  -0.958  -0.949  -0.942  -0.935  -0.918
 -0.765  -0.756  -0.729  -0.720  -0.713  -0.704  -0.692  -0.660
 -0.646  -0.617  -0.598  -0.579  -0.548  -0.539  -0.536  -0.529
 -0.517  -0.506  -0.494  -0.474  -0.470  -0.456  -0.444  -0.437
 -0.435  -0.432  -0.426  -0.415  -0.411  -0.406  -0.403  -0.397
 -0.395  -0.384  -0.373  -0.369  -0.361  -0.358  -0.353  -0.352
 -0.341  -0.333  -0.333  -0.330  -0.323  -0.322  -0.314  -0.312
 -0.306  -0.305  -0.300  -0.299  -0.295  -0.292  -0.277  -0.273
 -0.271  -0.262  -0.249  -0.248  -0.237  -0.235  -0.221  -0.193
 -0.182  -0.172  -0.163  -0.161  -0.158  -0.151  -0.145  -0.135
 -0.132

          Ground-State Mulliken Net Atomic Charges

     Atom                 Charge (a.u.)
  ----------------------------------------
      1 O                    -0.218136
      2 C                     0.222620
      3 C                    -0.077215
      4 C                    -0.078968
      5 C                     0.212078
      6 O                    -0.174525
      7 C                    -0.052362
      8 C                    -0.047215
      9 O                    -0.173090
     10 C                     0.219313
     11 C                    -0.081011
     12 C                    -0.081530
     13 C                     0.212185
     14 O                    -0.223104
     15 O                    -0.165486
     16 O                    -0.167428
     17 O                    -0.204248
     18 C                    -0.127151
     19 C                     0.005785
     20 C                    -0.145639
     21 C                    -0.145061
     22 C                     0.026749
     23 O                    -0.187408
     24 H                     0.082813
     25 H                     0.080946
     26 H                     0.113568
     27 H                     0.074704
     28 H                     0.067208
     29 H                     0.075818
     30 H                     0.070739
     31 H                     0.084199
     32 O                    -0.208424
     33 C                    -0.146861
     34 C                     0.023730
     35 C                    -0.144132
     36 C                    -0.144038
     37 C                     0.026178
     38 O                    -0.187064
     39 H                     0.085591
     40 H                     0.086237
     41 H                     0.080132
     42 H                     0.092632
     43 H                     0.077970
     44 H                     0.073255
     45 H                     0.078102
     46 H                     0.074358
     47 H                     0.082657
     48 H                     0.115074
     49 H                     0.084831
     50 H                     0.087967
     51 H                     0.090900
     52 H                     0.084995
     53 H                     0.097681
     54 H                     0.097699
     55 H                     0.106149
     56 H                     0.085229
  ----------------------------------------
  Sum of atomic charges =    -0.000000

                    Cartesian Multipole Moments
 -----------------------------------------------------------------
    Charge (ESU x 10^10)
                -0.0000
    Dipole Moment (Debye)
         X      -2.7163      Y      -1.5712      Z      -1.1292
       Tot       3.3350
    Quadrupole Moments (Debye-Ang)
        XX    -156.7581     XY      -4.4518     YY    -150.7625
        XZ      -3.2190     YZ       1.4479     ZZ    -161.9500

 Total job time:  114.69s(wall), 5469.75s(cpu)
        *  Thank you very much for using Q-Chem.  Have a nice day.  *
