 Q-Chem 5.0, Q-Chem, Inc., Pleasanton, CA (2017)
 Q-Chem 5.0.1 for Intel X86 EM64T Linux

User input:
--------------------------------------------------------------
$molecule
0  1
O -3.94934 -3.66094 2.70899
C -3.26408 -4.56952 2.26188
C -3.36658 -6.02376 2.66595
C -4.48456 -6.40211 3.65125
C -5.48513 -5.31779 3.98469
O -6.27609 -5.06677 2.89989
C -7.32638 -4.13312 3.17273
C -7.93784 -3.63371 1.86781
O -7.05007 -2.69627 1.23857
C -7.11359 -1.42629 1.71
C -6.06567 -0.52161 1.10661
C -6.35791 0.98081 1.23158
C -7.43498 1.36396 2.22647
O -8.40097 0.67673 2.52505
O -2.29361 -4.30001 1.35132
O -7.43521 2.66174 2.6365
O -7.36614 -1.30333 2.90112
C -8.37832 3.21606 3.47679
C -4.66872 -0.57068 1.74423
C -3.61959 -0.06621 0.74782
C -3.91458 1.41173 0.74618
C -5.01077 1.46399 1.8088
O -4.6767 0.44355 2.71187
H -5.98403 -0.80971 0.03349
H -6.5949 1.49016 0.27167
H -4.40802 -1.56171 2.10469
H -2.61919 -0.21277 1.2111
H -3.64141 -0.54497 -0.25419
H -3.00827 1.95456 1.09707
H -4.25628 1.82985 -0.22548
H -5.05064 2.4893 2.23626
O -5.67798 -4.8933 5.11809
C -2.03355 -3.06068 0.82093
C -3.72458 -6.95412 1.48656
C -3.24496 -8.37473 1.78434
C -4.2354 -8.79098 2.85401
C -5.14792 -7.56008 2.88163
O -5.12308 -7.09544 1.55273
H -2.3626 -6.3007 3.06015
H -4.05352 -6.73714 4.62145
H -1.7634 -2.35243 1.63165
H -3.3144 -6.60867 0.51261
H -3.43543 -8.98363 0.87148
H -2.17388 -8.46447 2.06642
H -4.79502 -9.68031 2.48788
H -3.79555 -9.00341 3.85244
H -6.14761 -7.81908 3.29477
H -2.92235 -2.70762 0.26172
H -1.18106 -3.1385 0.11575
H -8.13146 4.28414 3.64621
H -8.37526 2.68843 4.45457
H -9.38765 3.15076 3.01724
H -8.122 -4.49755 1.19425
H -8.92634 -3.15448 2.05813
H -6.99663 -3.31279 3.83775
H -8.11743 -4.6878 3.72432
$end

$opt
CONSTRAINT
tors           1           2           3           4      +4.201
tors           3           4           5           6     +70.242
tors           4           5           6           7    +174.858
tors           5           6           7           8    +165.710
tors           6           7           8           9     -74.978
tors           7           8           9          10     -81.974
tors           8           9          10          11    +174.326
tors           9          10          11          12    +160.895
tors          11          12          13          14     -30.385
ENDCONSTRAINT
$end

$rem
JOBTYPE                   OPT
METHOD                    B3LYP
DFT_D                     d3_op
BASIS                     STO-3G
GEOM_OPT_MAX_CYCLES       100
GEOM_OPT_TOL_GRADIENT     300
GEOM_OPT_TOL_DISPLACEMENT 1200
GEOM_OPT_TOL_ENERGY       100
SYMMETRY                  False
THRESH                    12
SCF_CONVERGENCE           8
MAX_SUB_FILE_NUM          128
MEM_STATIC                400
MEM_TOTAL                 4000
$end
--------------------------------------------------------------

   16   -1510.1230289925      2.44E-09 Convergence criterion met
 Total energy in the final basis set = -1510.12302899
   14   -1510.1979890311      2.40E-09 Convergence criterion met
 Total energy in the final basis set = -1510.19798903
   14   -1510.2375038567      2.07E-09 Convergence criterion met
 Total energy in the final basis set = -1510.23750386
   15   -1510.2574346424      2.66E-09 Convergence criterion met
 Total energy in the final basis set = -1510.25743464
   14   -1510.2663669005      7.21E-09 Convergence criterion met
 Total energy in the final basis set = -1510.26636690
   13   -1510.2743913359      3.34E-09 Convergence criterion met
 Total energy in the final basis set = -1510.27439134
   13   -1510.2788482287      3.00E-09 Convergence criterion met
 Total energy in the final basis set = -1510.27884823
   13   -1510.2810778747      2.32E-09 Convergence criterion met
   12   -1510.2860853943      4.07E-09 Convergence criterion met
 Total energy in the final basis set = -1510.28608539
   11   -1510.2861464047      6.79E-09 Convergence criterion met
 Total energy in the final basis set = -1510.28614640
   11   -1510.2861969693      7.42E-09 Convergence criterion met
 Total energy in the final basis set = -1510.28619697
    9   -1510.2862221712      6.64E-09 Convergence criterion met
 Total energy in the final basis set = -1510.28622217
    9   -1510.2862415623      7.65E-09 Convergence criterion met
 Total energy in the final basis set = -1510.28624156
    9   -1510.2862472292      9.53E-09 Convergence criterion met
 Total energy in the final basis set = -1510.28624723

             Standard Nuclear Orientation (Angstroms)
    I     Atom           X                Y                Z
 ----------------------------------------------------------------
    1      O      -1.3041684190    -0.9797568635     0.6606519233
    2      C      -2.3784622162    -1.4841810010     0.2607479220
    3      C      -3.8395470639    -0.9348181779     0.4224039241
    4      C      -3.9499740431     0.4905032057     1.1034580991
    5      C      -2.5699650231     1.1862720451     1.3816536117
    6      O      -1.9942312867     1.5747475150     0.1308092320
    7      C      -0.7515934683     2.3432465262     0.3620977265
    8      C      -0.0016906419     2.4066330905    -1.0114727629
    9      O       0.6247259660     1.0947311829    -1.3070586130
   10      C       1.8758893949     0.9823870397    -0.6185097083
   11      C       2.4141118198    -0.4717776595    -0.8513355683
   12      C       3.9616768555    -0.6265507385    -0.5816365897
   13      C       4.7984725741     0.6978813319    -0.6970239956
   14      O       4.5703206897     1.6835540567    -1.4301918749
   15      O      -2.4736563789    -2.7103927468    -0.4671798691
   16      O       5.9404282886     0.5926287082     0.1623381067
   17      O       2.3519736811     1.8717257775     0.1188088562
   18      C       6.7572081265     1.8236805065     0.0652052307
   19      C       1.8315417118    -1.3604634419     0.3377508578
   20      C       2.2401662521    -2.8742816502     0.1216646164
   21      C       3.7399559260    -2.8728732521     0.5960594534
   22      C       3.9602599150    -1.3319541992     0.8456000483
   23      O       2.6810941080    -0.9187963925     1.4700238571
   24      H       2.1089032138    -0.8302558282    -1.8499608908
   25      H       4.3900774190    -1.3218256672    -1.3288423361
   26      H       0.7506478045    -1.1885375690     0.5467979505
   27      H       1.6213127669    -3.5350157945     0.7487395958
   28      H       2.1297788618    -3.1842432903    -0.9299947703
   29      H       3.8637238653    -3.4351388398     1.5355969746
   30      H       4.4303622689    -3.2834560267    -0.1579352847
   31      H       4.8196592107    -1.0616364618     1.4882365995
   32      O      -2.0750141116     1.4403996537     2.5011308911
   33      C      -1.1311325423    -3.2887218126    -0.6955764698
   34      C      -4.5580302332    -0.6695944952    -0.9745883697
   35      C      -6.1159857148    -0.6397652725    -0.7187775304
   36      C      -6.2715136942     0.7436116473     0.0150762229
   37      C      -4.7814853572     1.2715660494    -0.0026155283
   38      O      -4.2352362623     0.7420698545    -1.2736368840
   39      H      -4.4046775255    -1.6887577464     1.0015159286
   40      H      -4.4914103953     0.4291563212     2.0634563844
   41      H      -0.6203502561    -3.5199469668     0.2603562847
   42      H      -4.2195562659    -1.3357085199    -1.7917250833
   43      H      -6.6608391286    -0.6516117582    -1.6763021778
   44      H      -6.4572275787    -1.4905409538    -0.1078951398
   45      H      -6.9301000641     1.4268105963    -0.5442604433
   46      H      -6.6601949488     0.6385767442     1.0406288872
   47      H      -4.6723591900     2.3724633219     0.0354294619
   48      H      -0.4876833153    -2.6047279237    -1.2849939432
   49      H      -1.2938968726    -4.2236877681    -1.2626529580
   50      H       7.6081282552     1.6811260014     0.7564348390
   51      H       6.1782909408     2.7202256155     0.3671146287
   52      H       7.1380924036     1.9820471590    -0.9645941494
   53      H      -0.7240983439     2.5981675072    -1.8300742020
   54      H       0.7655160023     3.2098490781    -0.9798485532
   55      H      -0.1142799857     1.8579322166     1.1318887967
   56      H      -0.9929137704     3.3717772310     0.7133050785
 ----------------------------------------------------------------

    9   -1510.2862476624      6.40E-09 Convergence criterion met
 Total energy in the final basis set = -1510.28624766
 Final energy is   -1510.28624766236
 **  OPTIMIZATION CONVERGED  **

                    Orbital Energies (a.u.)
 --------------------------------------------------------------

 Alpha MOs
 -- Occupied --
-18.945 -18.927 -18.922 -18.920 -18.891 -18.889 -18.878 -18.866
-18.864 -18.862 -10.111 -10.093 -10.090 -10.089 -10.072 -10.065
-10.062 -10.061 -10.060 -10.058 -10.051 -10.046 -10.041 -10.035
-10.031 -10.029 -10.022 -10.020 -10.016 -10.014  -1.021  -1.006
 -1.002  -0.997  -0.971  -0.961  -0.946  -0.931  -0.927  -0.921
 -0.764  -0.756  -0.725  -0.719  -0.713  -0.702  -0.690  -0.669
 -0.655  -0.610  -0.597  -0.572  -0.547  -0.538  -0.537  -0.531
 -0.516  -0.504  -0.487  -0.467  -0.462  -0.453  -0.446  -0.440
 -0.435  -0.430  -0.420  -0.418  -0.414  -0.408  -0.404  -0.402
 -0.390  -0.384  -0.369  -0.365  -0.361  -0.354  -0.349  -0.343
 -0.341  -0.335  -0.332  -0.329  -0.326  -0.318  -0.316  -0.313
 -0.307  -0.306  -0.302  -0.296  -0.288  -0.284  -0.282  -0.274
 -0.266  -0.261  -0.249  -0.243  -0.238  -0.235  -0.225  -0.188
 -0.172  -0.167  -0.165  -0.160  -0.150  -0.145  -0.141  -0.139
 -0.135

          Ground-State Mulliken Net Atomic Charges

     Atom                 Charge (a.u.)
  ----------------------------------------
      1 O                    -0.206498
      2 C                     0.218554
      3 C                    -0.077746
      4 C                    -0.081236
      5 C                     0.212487
      6 O                    -0.171551
      7 C                    -0.047526
      8 C                    -0.047824
      9 O                    -0.172748
     10 C                     0.213798
     11 C                    -0.078117
     12 C                    -0.080211
     13 C                     0.213494
     14 O                    -0.213558
     15 O                    -0.169448
     16 O                    -0.172203
     17 O                    -0.212824
     18 C                    -0.127943
     19 C                     0.013225
     20 C                    -0.145910
     21 C                    -0.142625
     22 C                     0.024126
     23 O                    -0.190268
     24 H                     0.083021
     25 H                     0.081116
     26 H                     0.101849
     27 H                     0.072578
     28 H                     0.069060
     29 H                     0.076525
     30 H                     0.071482
     31 H                     0.091360
     32 O                    -0.216293
     33 C                    -0.128655
     34 C                     0.025886
     35 C                    -0.143250
     36 C                    -0.144716
     37 C                     0.027031
     38 O                    -0.185714
     39 H                     0.086165
     40 H                     0.084072
     41 H                     0.089931
     42 H                     0.087641
     43 H                     0.078190
     44 H                     0.073740
     45 H                     0.077956
     46 H                     0.073974
     47 H                     0.083772
     48 H                     0.091799
     49 H                     0.092233
     50 H                     0.088913
     51 H                     0.092419
     52 H                     0.086883
     53 H                     0.094969
     54 H                     0.095570
     55 H                     0.101205
     56 H                     0.081840
  ----------------------------------------
  Sum of atomic charges =    -0.000000

                    Cartesian Multipole Moments
 -----------------------------------------------------------------
    Charge (ESU x 10^10)
                -0.0000
    Dipole Moment (Debye)
         X      -1.4542      Y      -2.6624      Z      -1.4382
       Tot       3.3573
    Quadrupole Moments (Debye-Ang)
        XX    -137.4346     XY      -2.1147     YY    -149.6905
        XZ      -3.6707     YZ       1.6447     ZZ    -168.2463

 Total job time:  60.21s(wall), 2863.62s(cpu)
        *  Thank you very much for using Q-Chem.  Have a nice day.  *
