 Q-Chem 5.0, Q-Chem, Inc., Pleasanton, CA (2017)
 Q-Chem 5.0.1 for Intel X86 EM64T Linux

User input:
--------------------------------------------------------------
$molecule
0  1
O -1.4473806129 -0.9978720528 0.8016028622
C -2.4995880187 -1.4434751576 0.2888894841
C -3.9561554821 -0.8699112838 0.4184718806
C -4.0247489033 0.5590696386 1.1043706797
C -2.608226552 1.1742479529 1.3900219764
O -2.0116782561 1.5306982299 0.1363406989
C -0.773387236 2.3032297107 0.3663297779
C -0.0062484197 2.3129062071 -1.0005564931
O 0.6475757876 0.9977983759 -1.2009009867
C 1.8986375191 0.9275528345 -0.515011319
C 2.446629523 -0.5222884759 -0.7550348153
C 4.0124500127 -0.6709968954 -0.6224136207
C 4.81526986 0.676190281 -0.7240827668
O 4.5512228062 1.6604607594 -1.4473244974
O -2.5486617917 -2.6016727441 -0.5470325698
O 5.9655303432 0.5982521278 0.1257663657
O 2.3709548186 1.8380176604 0.1977742163
C 6.7419391649 1.8559147703 0.0367613503
C 1.9632639268 -1.4142519214 0.472476418
C 2.3027720499 -2.9318961707 0.1872208494
C 3.8477687163 -2.9680977974 0.4842287778
C 4.1291072028 -1.4409028825 0.7660477041
O 2.9280636986 -1.0215869552 1.5262422897
H 2.0642265215 -0.8926792434 -1.722204586
H 4.3881449356 -1.3189374976 -1.4372446571
H 0.9162312604 -1.21816058 0.7882910062
H 1.7421509763 -3.5885405983 0.8711401518
H 2.0656084152 -3.219358551 -0.8498456949
H 4.0698362209 -3.5691927312 1.3805874701
H 4.4383953585 -3.3580979557 -0.3600465837
H 5.0523145768 -1.2141029159 1.3324361061
O -2.1148506644 1.4282997795 2.5099542791
C -1.1866320053 -3.1552609616 -0.7279208557
C -4.6429577758 -0.5745548847 -0.9859319244
C -6.2019997089 -0.4864110163 -0.7520476273
C -6.3163062473 0.9002608051 -0.0165112307
C -4.8073281888 1.3730674786 -0.0118089617
O -4.2634691893 0.8254713072 -1.2764477044
H -4.5511263184 -1.6093371909 0.9866166246
H -4.576530485 0.5192039369 2.0594492482
H -0.7467002335 -3.4803233548 0.2366482942
H -4.3168126773 -1.2500665657 -1.8003633814
H -6.734171341 -0.4757566489 -1.7166713349
H -6.5830513465 -1.3250283131 -0.1478664545
H -6.9415108802 1.6086835884 -0.5827003179
H -6.7224230099 0.8071261925 1.0033718137
H -4.6580931523 2.4690942631 0.0304507823
H -0.5061280503 -2.4137848282 -1.1936850375
H -1.298687743 -4.0287931675 -1.3960627774
H 7.6043110315 1.7307246101 0.7170750974
H 6.1380352164 2.7291157315 0.3574966553
H 7.1059882559 2.0399436069 -0.9948315246
H -0.7214609449 2.4382029338 -1.8380532554
H 0.7440013231 3.1327567639 -1.0080499792
H -0.1479985424 1.8435134879 1.1612214285
H -1.0187548995 3.3432659416 0.6790719938
$end

$rem
JOBTYPE                   OPT
METHOD                    B3LYP
DFT_D                     d3_op
BASIS                     STO-3G
GEOM_OPT_MAX_CYCLES       100
GEOM_OPT_TOL_GRADIENT     300
GEOM_OPT_TOL_DISPLACEMENT 1200
GEOM_OPT_TOL_ENERGY       100
SYMMETRY                  False
THRESH                    12
SCF_CONVERGENCE           8
MAX_SUB_FILE_NUM          128
MEM_STATIC                400
MEM_TOTAL                 4000
$end
--------------------------------------------------------------

   16   -1510.2851473943      5.07E-09 Convergence criterion met
 Total energy in the final basis set = -1510.28514739
   14   -1510.2109445228      5.58E-09 Convergence criterion met
 Total energy in the final basis set = -1510.21094452
   14   -1510.2872325765      6.26E-09 Convergence criterion met
 Total energy in the final basis set = -1510.28723258
   13   -1510.2887007054      7.36E-09 Convergence criterion met
 Total energy in the final basis set = -1510.28870071
   13   -1510.2885908272      7.04E-09 Convergence criterion met
 Total energy in the final basis set = -1510.28859083
   14   -1510.2900944729      3.39E-09 Convergence criterion met
 Total energy in the final basis set = -1510.29009447
   13   -1510.2914074462      7.02E-09 Convergence criterion met
 Total energy in the final basis set = -1510.29140745
   13   -1510.2926139278      6.23E-09 Convergence criterion met
   12   -1510.2988369593      3.97E-09 Convergence criterion met
 Total energy in the final basis set = -1510.29883696
   12   -1510.2988436205      4.43E-09 Convergence criterion met
 Total energy in the final basis set = -1510.29884362
   13   -1510.2988254978      1.67E-09 Convergence criterion met
 Total energy in the final basis set = -1510.29882550
   12   -1510.2987971060      3.44E-09 Convergence criterion met
 Total energy in the final basis set = -1510.29879711
   11   -1510.2988092259      5.07E-09 Convergence criterion met
 Total energy in the final basis set = -1510.29880923
    9   -1510.2988081870      8.55E-09 Convergence criterion met
 Total energy in the final basis set = -1510.29880819

             Standard Nuclear Orientation (Angstroms)
    I     Atom           X                Y                Z
 ----------------------------------------------------------------
    1      O      -0.9675064779    -0.9859725623     0.5378019142
    2      C      -2.0714925119    -1.1440601311    -0.0381186102
    3      C      -3.4584142186    -0.7301310308     0.5743879648
    4      C      -3.4263905094     0.7350316176     1.1872073922
    5      C      -2.0676149371     1.4852520566     0.9744101169
    6      O      -1.8155897128     1.5698483386    -0.4369942331
    7      C      -0.5547195195     2.3018973698    -0.6956390533
    8      C       0.1168285266     1.7067012108    -1.9805799291
    9      O       0.7244911436     0.3756184964    -1.7491641301
   10      C       2.0238308887     0.4994943001    -1.1474339262
   11      C       2.6099083453    -0.9300071897    -0.9262073864
   12      C       4.1035150562    -0.9278686980    -0.3952886737
   13      C       4.6975409299     0.5093171010    -0.1459779459
   14      O       5.4540495773     1.1423326606    -0.9148378197
   15      O      -2.2501212871    -1.7321169375    -1.3160331850
   16      O       4.3193393829     0.9522442951     1.1625895673
   17      O       2.5506149502     1.6026665188    -0.8865436146
   18      C       4.7985139392     2.3349418653     1.3772273012
   19      C       1.8607024688    -1.7134974748     0.2448427744
   20      C       2.2054214120    -3.2456259866     0.0803394259
   21      C       3.7016656019    -3.2786669432     0.5671394328
   22      C       3.9337838526    -1.7615367061     0.9457281310
   23      O       2.6147945423    -1.3224861864     1.4543982409
   24      H       2.5228033734    -1.4799162957    -1.8809586106
   25      H       4.7683246195    -1.4364882382    -1.1157150822
   26      H       0.7763510965    -1.4636181782     0.3498521776
   27      H       1.5570706324    -3.8542355165     0.7310059958
   28      H       2.0878358014    -3.5941096969    -0.9582523919
   29      H       3.8243200677    -3.9192692207     1.4547935601
   30      H       4.3968162354    -3.6226168593    -0.2154641218
   31      H       4.7228799859    -1.5784777202     1.6997792497
   32      O      -1.3260253538     1.9728769387     1.8539686891
   33      C      -0.9381983114    -2.0553405076    -1.9334224083
   34      C      -4.6285179674    -0.5939534857    -0.4861910698
   35      C      -6.0002296344    -0.5784292151     0.2958346136
   36      C      -5.9802959473     0.8676876483     0.9161704331
   37      C      -4.6054187543     1.4172709986     0.3641766528
   38      O      -4.4928824932     0.7977659392    -0.9748364190
   39      H      -3.7126521664    -1.4700932892     1.3562125892
   40      H      -3.6340817398     0.7249201010     2.2713556965
   41      H      -0.4534180772    -2.9050899733    -1.4118412667
   42      H      -4.5619060886    -1.3095374554    -1.3276307666
   43      H      -6.8421782359    -0.7052403279    -0.4032040606
   44      H      -6.0538335654    -1.3701067669     1.0601887013
   45      H      -6.8165190969     1.4797251993     0.5425941745
   46      H      -6.0117122457     0.8604402711     2.0174933881
   47      H      -4.5340732771     2.5196153538     0.2888428414
   48      H      -0.2616666088    -1.1665776208    -1.9138679883
   49      H      -1.1651544476    -2.3493052262    -2.9741984652
   50      H       4.5082196400     2.6025253070     2.4098566080
   51      H       4.3215102695     3.0369253586     0.6628489489
   52      H       5.8997692309     2.4111525207     1.2669192991
   53      H      -0.6507583669     1.5537036278    -2.7662146395
   54      H       0.8893781149     2.4192508936    -2.3414311247
   55      H       0.1195716223     2.2296351618     0.1847106298
   56      H      -0.7789530030     3.3769434106    -0.8761840790
 ----------------------------------------------------------------

    9   -1510.2988080807      4.43E-09 Convergence criterion met
 Total energy in the final basis set = -1510.29880808
 Final energy is   -1510.29880808067
 **  OPTIMIZATION CONVERGED  **

                    Orbital Energies (a.u.)
 --------------------------------------------------------------

 Alpha MOs
 -- Occupied --
-18.949 -18.944 -18.930 -18.916 -18.891 -18.889 -18.881 -18.876
-18.876 -18.852 -10.110 -10.110 -10.099 -10.084 -10.083 -10.072
-10.062 -10.060 -10.051 -10.049 -10.048 -10.041 -10.038 -10.037
-10.034 -10.027 -10.022 -10.021 -10.012 -10.011  -1.025  -1.018
 -1.008  -0.992  -0.972  -0.958  -0.949  -0.942  -0.935  -0.918
 -0.765  -0.756  -0.729  -0.720  -0.713  -0.704  -0.692  -0.660
 -0.646  -0.618  -0.598  -0.579  -0.548  -0.539  -0.536  -0.529
 -0.517  -0.506  -0.494  -0.474  -0.470  -0.456  -0.444  -0.437
 -0.435  -0.432  -0.426  -0.415  -0.411  -0.406  -0.403  -0.397
 -0.395  -0.384  -0.374  -0.369  -0.361  -0.358  -0.353  -0.352
 -0.341  -0.333  -0.333  -0.330  -0.323  -0.322  -0.314  -0.312
 -0.306  -0.305  -0.300  -0.299  -0.295  -0.292  -0.277  -0.273
 -0.271  -0.262  -0.249  -0.248  -0.236  -0.235  -0.221  -0.193
 -0.182  -0.172  -0.163  -0.161  -0.158  -0.151  -0.145  -0.135
 -0.132

          Ground-State Mulliken Net Atomic Charges

     Atom                 Charge (a.u.)
  ----------------------------------------
      1 O                    -0.218196
      2 C                     0.222539
      3 C                    -0.077212
      4 C                    -0.078945
      5 C                     0.212091
      6 O                    -0.174559
      7 C                    -0.052449
      8 C                    -0.047114
      9 O                    -0.173083
     10 C                     0.219317
     11 C                    -0.081031
     12 C                    -0.081518
     13 C                     0.212182
     14 O                    -0.223166
     15 O                    -0.165488
     16 O                    -0.167371
     17 O                    -0.204233
     18 C                    -0.127133
     19 C                     0.005879
     20 C                    -0.145614
     21 C                    -0.145058
     22 C                     0.026723
     23 O                    -0.187317
     24 H                     0.082808
     25 H                     0.080942
     26 H                     0.113462
     27 H                     0.074693
     28 H                     0.067244
     29 H                     0.075826
     30 H                     0.070740
     31 H                     0.084222
     32 O                    -0.208378
     33 C                    -0.146853
     34 C                     0.023723
     35 C                    -0.144117
     36 C                    -0.144048
     37 C                     0.026181
     38 O                    -0.187046
     39 H                     0.085592
     40 H                     0.086241
     41 H                     0.080129
     42 H                     0.092628
     43 H                     0.077966
     44 H                     0.073251
     45 H                     0.078095
     46 H                     0.074354
     47 H                     0.082651
     48 H                     0.115045
     49 H                     0.084826
     50 H                     0.087990
     51 H                     0.090924
     52 H                     0.084966
     53 H                     0.097703
     54 H                     0.097470
     55 H                     0.106307
     56 H                     0.085218
  ----------------------------------------
  Sum of atomic charges =    -0.000000

                    Cartesian Multipole Moments
 -----------------------------------------------------------------
    Charge (ESU x 10^10)
                -0.0000
    Dipole Moment (Debye)
         X      -2.6990      Y      -1.5874      Z      -1.1389
       Tot       3.3319
    Quadrupole Moments (Debye-Ang)
        XX    -156.6241     XY      -4.5589     YY    -150.9460
        XZ      -3.3299     YZ       1.5361     ZZ    -161.8004

 Total job time:  101.74s(wall), 4851.16s(cpu)
        *  Thank you very much for using Q-Chem.  Have a nice day.  *
