 Q-Chem 5.0, Q-Chem, Inc., Pleasanton, CA (2017)
 Q-Chem 5.0.1 for Intel X86 EM64T Linux

User input:
--------------------------------------------------------------
$molecule
0  1
O -3.94934 -3.66094 2.70899
C -3.26408 -4.56952 2.26188
C -3.36658 -6.02376 2.66595
C -4.56324 -6.42659 3.54322
C -5.61912 -5.36769 3.77112
O -6.30919 -5.1439 2.6139
C -7.45396 -4.30357 2.79443
C -7.95601 -3.80207 1.44441
O -7.10667 -2.74645 0.96779
C -7.37483 -1.51321 1.46414
C -6.41236 -0.45875 0.97177
C -6.9544 0.97773 1.00311
C -8.20365 1.19463 1.8332
O -9.12281 0.39742 1.95228
O -2.27974 -4.26605 1.37565
O -8.40414 2.45845 2.29669
O -7.83786 -1.43041 2.5956
C -9.51453 2.86382 3.00772
C -5.1536 -0.33308 1.84706
C -4.01749 0.26978 1.02507
C -4.51106 1.69208 0.87105
C -5.76894 1.64299 1.74836
O -5.45627 0.70208 2.74499
H -6.11149 -0.74768 -0.06168
H -7.12051 1.43578 0.00376
H -4.83759 -1.2946 2.3007
H -3.11323 0.2728 1.67533
H -3.78265 -0.25345 0.07358
H -3.74848 2.37462 1.3079
H -4.75233 2.00318 -0.16845
H -5.99862 2.6679 2.11138
O -5.93383 -4.94772 4.87861
C -2.03977 -2.99839 0.88832
C -3.60205 -6.96429 1.46096
C -3.11485 -8.37271 1.8016
C -4.18003 -8.81103 2.78688
C -5.12455 -7.60563 2.727
O -4.99632 -7.14305 1.40415
H -2.3899 -6.28244 3.13363
H -4.21647 -6.74265 4.55266
H -1.79299 -2.30628 1.72174
H -3.11806 -6.61192 0.52412
H -3.21641 -8.98554 0.87713
H -2.0687 -8.43985 2.17018
H -4.6799 -9.71953 2.38338
H -3.82085 -9.00205 3.82129
H -6.14945 -7.88974 3.0527
H -2.93282 -2.62634 0.34268
H -1.18172 -3.03426 0.1864
H -9.41155 3.93882 3.26112
H -9.59824 2.28048 3.94963
H -10.43252 2.72646 2.3973
H -7.97535 -4.64215 0.71802
H -9.00416 -3.43293 1.5361
H -7.2626 -3.46679 3.49545
H -8.252 -4.93515 3.24372
$end

$opt
CONSTRAINT
tors           1           2           3           4      +9.896
tors           3           4           5           6     +70.242
tors           4           5           6           7    +171.195
tors           5           6           7           8    +165.248
tors           6           7           8           9     -76.853
tors           7           8           9          10     -82.800
tors           8           9          10          11    +177.536
tors           9          10          11          12    +156.120
tors          11          12          13          14     -35.707
ENDCONSTRAINT
$end

$rem
JOBTYPE                   OPT
METHOD                    B3LYP
DFT_D                     d3_op
BASIS                     STO-3G
GEOM_OPT_MAX_CYCLES       100
GEOM_OPT_TOL_GRADIENT     300
GEOM_OPT_TOL_DISPLACEMENT 1200
GEOM_OPT_TOL_ENERGY       100
SYMMETRY                  False
THRESH                    12
SCF_CONVERGENCE           8
MAX_SUB_FILE_NUM          128
MEM_STATIC                400
MEM_TOTAL                 4000
$end
--------------------------------------------------------------

   16   -1510.1358310685      2.06E-09 Convergence criterion met
 Total energy in the final basis set = -1510.13583107
   14   -1510.2078062305      3.79E-09 Convergence criterion met
 Total energy in the final basis set = -1510.20780623
   14   -1510.2459589174      5.38E-09 Convergence criterion met
 Total energy in the final basis set = -1510.24595892
   14   -1510.2653111101      5.79E-09 Convergence criterion met
 Total energy in the final basis set = -1510.26531111
   14   -1510.2728723234      5.59E-09 Convergence criterion met
 Total energy in the final basis set = -1510.27287232
   13   -1510.2776156512      7.64E-09 Convergence criterion met
 Total energy in the final basis set = -1510.27761565
   13   -1510.2802685828      2.47E-09 Convergence criterion met
 Total energy in the final basis set = -1510.28026858
   13   -1510.2819664451      2.46E-09 Convergence criterion met
   12   -1510.2850194462      3.40E-09 Convergence criterion met
 Total energy in the final basis set = -1510.28501945
   11   -1510.2850668284      2.36E-09 Convergence criterion met
 Total energy in the final basis set = -1510.28506683
   10   -1510.2850993945      6.75E-09 Convergence criterion met
 Total energy in the final basis set = -1510.28509939
    9   -1510.2851215186      6.73E-09 Convergence criterion met
 Total energy in the final basis set = -1510.28512152
    9   -1510.2851337883      9.80E-09 Convergence criterion met
 Total energy in the final basis set = -1510.28513379
    9   -1510.2851368873      6.04E-09 Convergence criterion met
 Total energy in the final basis set = -1510.28513689

             Standard Nuclear Orientation (Angstroms)
    I     Atom           X                Y                Z
 ----------------------------------------------------------------
    1      O      -1.4473806129    -0.9978720528     0.8016028622
    2      C      -2.4995880187    -1.4434751576     0.2888894841
    3      C      -3.9561554821    -0.8699112838     0.4184718806
    4      C      -4.0247489033     0.5590696386     1.1043706797
    5      C      -2.6082265520     1.1742479529     1.3900219764
    6      O      -2.0116782561     1.5306982299     0.1363406989
    7      C      -0.7733872360     2.3032297107     0.3663297779
    8      C      -0.0062484197     2.3129062071    -1.0005564931
    9      O       0.6475757876     0.9977983759    -1.2009009867
   10      C       1.8986375191     0.9275528345    -0.5150113190
   11      C       2.4466295230    -0.5222884759    -0.7550348153
   12      C       4.0124500127    -0.6709968954    -0.6224136207
   13      C       4.8152698600     0.6761902810    -0.7240827668
   14      O       4.5512228062     1.6604607594    -1.4473244974
   15      O      -2.5486617917    -2.6016727441    -0.5470325698
   16      O       5.9655303432     0.5982521278     0.1257663657
   17      O       2.3709548186     1.8380176604     0.1977742163
   18      C       6.7419391649     1.8559147703     0.0367613503
   19      C       1.9632639268    -1.4142519214     0.4724764180
   20      C       2.3027720499    -2.9318961707     0.1872208494
   21      C       3.8477687163    -2.9680977974     0.4842287778
   22      C       4.1291072028    -1.4409028825     0.7660477041
   23      O       2.9280636986    -1.0215869552     1.5262422897
   24      H       2.0642265215    -0.8926792434    -1.7222045860
   25      H       4.3881449356    -1.3189374976    -1.4372446571
   26      H       0.9162312604    -1.2181605800     0.7882910062
   27      H       1.7421509763    -3.5885405983     0.8711401518
   28      H       2.0656084152    -3.2193585510    -0.8498456949
   29      H       4.0698362209    -3.5691927312     1.3805874701
   30      H       4.4383953585    -3.3580979557    -0.3600465837
   31      H       5.0523145768    -1.2141029159     1.3324361061
   32      O      -2.1148506644     1.4282997795     2.5099542791
   33      C      -1.1866320053    -3.1552609616    -0.7279208557
   34      C      -4.6429577758    -0.5745548847    -0.9859319244
   35      C      -6.2019997089    -0.4864110163    -0.7520476273
   36      C      -6.3163062473     0.9002608051    -0.0165112307
   37      C      -4.8073281888     1.3730674786    -0.0118089617
   38      O      -4.2634691893     0.8254713072    -1.2764477044
   39      H      -4.5511263184    -1.6093371909     0.9866166246
   40      H      -4.5765304850     0.5192039369     2.0594492482
   41      H      -0.7467002335    -3.4803233548     0.2366482942
   42      H      -4.3168126773    -1.2500665657    -1.8003633814
   43      H      -6.7341713410    -0.4757566489    -1.7166713349
   44      H      -6.5830513465    -1.3250283131    -0.1478664545
   45      H      -6.9415108802     1.6086835884    -0.5827003179
   46      H      -6.7224230099     0.8071261925     1.0033718137
   47      H      -4.6580931523     2.4690942631     0.0304507823
   48      H      -0.5061280503    -2.4137848282    -1.1936850375
   49      H      -1.2986877430    -4.0287931675    -1.3960627774
   50      H       7.6043110315     1.7307246101     0.7170750974
   51      H       6.1380352164     2.7291157315     0.3574966553
   52      H       7.1059882559     2.0399436069    -0.9948315246
   53      H      -0.7214609449     2.4382029338    -1.8380532554
   54      H       0.7440013231     3.1327567639    -1.0080499792
   55      H      -0.1479985424     1.8435134879     1.1612214285
   56      H      -1.0187548995     3.3432659416     0.6790719938
 ----------------------------------------------------------------

    9   -1510.2851370196      2.92E-09 Convergence criterion met
 Total energy in the final basis set = -1510.28513702
 Final energy is   -1510.28513701959
 **  OPTIMIZATION CONVERGED  **

                    Orbital Energies (a.u.)
 --------------------------------------------------------------

 Alpha MOs
 -- Occupied --
-18.943 -18.929 -18.923 -18.917 -18.888 -18.887 -18.881 -18.867
-18.866 -18.860 -10.107 -10.094 -10.091 -10.089 -10.070 -10.067
-10.061 -10.061 -10.060 -10.059 -10.053 -10.052 -10.040 -10.033
-10.033 -10.031 -10.021 -10.020 -10.018 -10.016  -1.020  -1.007
 -1.003  -0.997  -0.970  -0.964  -0.943  -0.933  -0.927  -0.922
 -0.763  -0.758  -0.725  -0.720  -0.712  -0.704  -0.690  -0.668
 -0.656  -0.611  -0.596  -0.574  -0.546  -0.539  -0.538  -0.533
 -0.515  -0.506  -0.487  -0.468  -0.464  -0.454  -0.446  -0.440
 -0.434  -0.431  -0.419  -0.417  -0.413  -0.407  -0.405  -0.403
 -0.391  -0.381  -0.370  -0.365  -0.360  -0.355  -0.350  -0.343
 -0.341  -0.335  -0.331  -0.329  -0.325  -0.322  -0.315  -0.315
 -0.307  -0.305  -0.301  -0.298  -0.290  -0.285  -0.283  -0.275
 -0.268  -0.261  -0.250  -0.242  -0.238  -0.235  -0.228  -0.186
 -0.174  -0.167  -0.163  -0.159  -0.152  -0.144  -0.141  -0.140
 -0.138

          Ground-State Mulliken Net Atomic Charges

     Atom                 Charge (a.u.)
  ----------------------------------------
      1 O                    -0.207764
      2 C                     0.216462
      3 C                    -0.077875
      4 C                    -0.081263
      5 C                     0.213082
      6 O                    -0.173918
      7 C                    -0.047481
      8 C                    -0.047210
      9 O                    -0.174527
     10 C                     0.214055
     11 C                    -0.078095
     12 C                    -0.080249
     13 C                     0.213530
     14 O                    -0.213597
     15 O                    -0.169120
     16 O                    -0.171278
     17 O                    -0.212362
     18 C                    -0.127755
     19 C                     0.019175
     20 C                    -0.145297
     21 C                    -0.142990
     22 C                     0.023845
     23 O                    -0.188967
     24 H                     0.083570
     25 H                     0.081880
     26 H                     0.096161
     27 H                     0.074728
     28 H                     0.069910
     29 H                     0.077156
     30 H                     0.071776
     31 H                     0.092423
     32 O                    -0.217339
     33 C                    -0.128527
     34 C                     0.025230
     35 C                    -0.143314
     36 C                    -0.144629
     37 C                     0.026896
     38 O                    -0.186071
     39 H                     0.085382
     40 H                     0.083982
     41 H                     0.089339
     42 H                     0.088307
     43 H                     0.078004
     44 H                     0.073463
     45 H                     0.077778
     46 H                     0.073871
     47 H                     0.083506
     48 H                     0.092447
     49 H                     0.091537
     50 H                     0.089309
     51 H                     0.093001
     52 H                     0.087232
     53 H                     0.096464
     54 H                     0.094677
     55 H                     0.100347
     56 H                     0.081106
  ----------------------------------------
  Sum of atomic charges =    -0.000000

                    Cartesian Multipole Moments
 -----------------------------------------------------------------
    Charge (ESU x 10^10)
                 0.0000
    Dipole Moment (Debye)
         X      -1.3183      Y      -2.5302      Z      -1.6357
       Tot       3.2887
    Quadrupole Moments (Debye-Ang)
        XX    -136.9732     XY      -2.4120     YY    -149.8968
        XZ      -4.2047     YZ       1.4613     ZZ    -168.6934

 Total job time:  57.02s(wall), 2715.02s(cpu)
        *  Thank you very much for using Q-Chem.  Have a nice day.  *
