 Q-Chem 5.0, Q-Chem, Inc., Pleasanton, CA (2017)
 Q-Chem 5.0.1 for Intel X86 EM64T Linux

User input:
--------------------------------------------------------------
$molecule
0  1
O -1.3330141934 -0.9604759516 0.7371723128
C -2.3971359086 -1.4622565543 0.3086849989
C -3.8637336963 -0.9122974151 0.4217145951
C -3.9976449746 0.5246273276 1.0741310904
C -2.626451204 1.2219919007 1.3851471751
O -2.0098652256 1.5923432556 0.1482437935
C -0.7456173358 2.3117753463 0.4163655614
C 0.0206042413 2.404917387 -0.9470685642
O 0.6447929388 1.0967763174 -1.263760594
C 1.8690968664 0.9460485723 -0.5385562434
C 2.4072017777 -0.4990100402 -0.8163290363
C 3.9708855299 -0.6383647104 -0.6446722532
C 4.7623170404 0.7170940008 -0.7221026028
O 4.5056958551 1.7008758669 -1.4489261718
O -2.472265415 -2.6972947714 -0.4086804927
O 5.8931352926 0.6477945462 0.15399773
O 2.3360457604 1.8035943676 0.2415116168
C 6.6581103874 1.9138981401 0.0879294726
C 1.9015442254 -1.4181517358 0.382458019
C 2.2814960312 -2.925766915 0.0891833466
C 3.8145620792 -2.9408846505 0.4415457742
C 4.0590332144 -1.4123019975 0.7431985132
O 2.8275624762 -1.0211859157 1.469414546
H 2.0481640428 -0.8435281386 -1.8018821114
H 4.3728511983 -1.2798508612 -1.4519567182
H 0.8400124216 -1.2433838274 0.6669930805
H 1.7107993606 -3.6029945891 0.7437998192
H 2.0871987534 -3.2045957831 -0.9590608764
H 4.0132435718 -3.5452319471 1.3412133299
H 4.4415784981 -3.3149829153 -0.3834286639
H 4.960207391 -1.1727532795 1.3389907146
O -2.1624684084 1.4851748463 2.5157913111
C -1.1227440485 -3.2754848519 -0.5912895624
C -4.5408321713 -0.6725581397 -1.0003023332
C -6.1061248773 -0.6379483321 -0.7932728318
C -6.2835386921 0.758447168 -0.0897879466
C -4.7934025864 1.2859498463 -0.0711031949
O -4.208117215 0.73358767 -1.3147564201
H -4.443700291 -1.6575950791 0.9973372791
H -4.5696199027 0.4787762232 2.017173714
H -0.6301544384 -3.4764270694 0.3810475132
H -4.1780484234 -1.3533441976 -1.7946173391
H -6.6212160193 -0.6678628482 -1.7667697062
H -6.4662916239 -1.4772687157 -0.177452469
H -6.9247062291 1.4314013564 -0.6809376909
H -6.7031550279 0.6714205098 0.9251414539
H -4.6846775194 2.3873124413 -0.0492161286
H -0.4706879844 -2.6049591567 -1.1866550619
H -1.2691252662 -4.2268031435 -1.1351678803
H 7.5097144466 1.7925361824 0.7823544006
H 6.0396660791 2.7783723241 0.4046201969
H 7.0380380612 2.1095699927 -0.9357427552
H -0.6903062989 2.617932569 -1.7703057638
H 0.790887631 3.2035853557 -0.887935994
H -0.1304255003 1.7773771919 1.1714124289
H -0.9560105338 3.3330013891 0.8065238858
$end

$rem
JOBTYPE                   OPT
METHOD                    B3LYP
DFT_D                     d3_op
BASIS                     STO-3G
GEOM_OPT_MAX_CYCLES       100
GEOM_OPT_TOL_GRADIENT     300
GEOM_OPT_TOL_DISPLACEMENT 1200
GEOM_OPT_TOL_ENERGY       100
SYMMETRY                  False
THRESH                    12
SCF_CONVERGENCE           8
MAX_SUB_FILE_NUM          128
MEM_STATIC                400
MEM_TOTAL                 4000
$end
--------------------------------------------------------------

   15   -1510.2866034641      9.67E-09 Convergence criterion met
 Total energy in the final basis set = -1510.28660346
   14   -1510.2061794316      5.10E-09 Convergence criterion met
 Total energy in the final basis set = -1510.20617943
   14   -1510.2869169278      6.46E-09 Convergence criterion met
 Total energy in the final basis set = -1510.28691693
   14   -1510.2852147500      3.09E-09 Convergence criterion met
 Total energy in the final basis set = -1510.28521475
   14   -1510.2878549837      2.80E-09 Convergence criterion met
 Total energy in the final basis set = -1510.28785498
   14   -1510.2887303775      2.96E-09 Convergence criterion met
 Total energy in the final basis set = -1510.28873038
   13   -1510.2891393176      6.30E-09 Convergence criterion met
 Total energy in the final basis set = -1510.28913932
   13   -1510.2904528708      5.40E-09 Convergence criterion met
   10   -1510.2987969936      9.87E-09 Convergence criterion met
 Total energy in the final basis set = -1510.29879699
   11   -1510.2987922780      4.79E-09 Convergence criterion met
 Total energy in the final basis set = -1510.29879228
   11   -1510.2987955225      6.13E-09 Convergence criterion met
 Total energy in the final basis set = -1510.29879552
   10   -1510.2987934740      7.00E-09 Convergence criterion met
 Total energy in the final basis set = -1510.29879347
    9   -1510.2987949084      5.78E-09 Convergence criterion met
 Total energy in the final basis set = -1510.29879491
    9   -1510.2987961194      6.02E-09 Convergence criterion met
 Total energy in the final basis set = -1510.29879612

             Standard Nuclear Orientation (Angstroms)
    I     Atom           X                Y                Z
 ----------------------------------------------------------------
    1      O      -0.9700458738    -0.9948182724     0.5449560069
    2      C      -2.0707065579    -1.1519174155    -0.0375545655
    3      C      -3.4607650396    -0.7339329356     0.5651877464
    4      C      -3.4321155740     0.7348778475     1.1694049283
    5      C      -2.0727497015     1.4846654303     0.9595549641
    6      O      -1.8090873458     1.5552787997    -0.4505049821
    7      C      -0.5472159762     2.2869680479    -0.7057212508
    8      C       0.1303356439     1.6870923284    -1.9852871730
    9      O       0.7370461062     0.3569716735    -1.7459419065
   10      C       2.0325668983     0.4830285178    -1.1363396773
   11      C       2.6160728423    -0.9458705740    -0.9045072585
   12      C       4.1069518645    -0.9428293946    -0.3658890068
   13      C       4.7015907460     0.4950939739    -0.1223583503
   14      O       5.4610842404     1.1232523891    -0.8922612441
   15      O      -2.2427950297    -1.7434875606    -1.3147546241
   16      O       4.3191867546     0.9457841944     1.1823038450
   17      O       2.5580172642     1.5871272109    -0.8767195787
   18      C       4.7979773263     2.3296540832     1.3903638767
   19      C       1.8595746447    -1.7214965525     0.2671725345
   20      C       2.2029529845    -3.2550508343     0.1131729623
   21      C       3.6965562702    -3.2874090572     0.6081327464
   22      C       3.9289757979    -1.7684380535     0.9790816286
   23      O       2.6080193080    -1.3245603320     1.4782474501
   24      H       2.5331793357    -1.5011084184    -1.8565065278
   25      H       4.7746929530    -1.4567084171    -1.0798620091
   26      H       0.7749620214    -1.4698104060     0.3652525492
   27      H       1.5502557130    -3.8591081180     0.7637181643
   28      H       2.0903189695    -3.6089637895    -0.9241172493
   29      H       3.8134892989    -3.9229345882     1.5001996870
   30      H       4.3953066444    -3.6370528101    -0.1687001315
   31      H       4.7143942580    -1.5821432612     1.7361861053
   32      O      -1.3391240063     1.9823024421     1.8401845469
   33      C      -0.9280108690    -2.0723578803    -1.9229853654
   34      C      -4.6252261273    -0.6040991090    -0.5024570243
   35      C      -6.0011045721    -0.5843269390     0.2720716133
   36      C      -5.9846436900     0.8653381876     0.8842331318
   37      C      -4.6069633708     1.4120095790     0.3362784329
   38      O      -4.4871064378     0.7847543462    -0.9984686778
   39      H      -3.7192305642    -1.4690885249     1.3501459278
   40      H      -3.6454859826     0.7312877582     2.2524845167
   41      H      -0.4472181440    -2.9195108601    -1.3935676141
   42      H      -4.5539254571    -1.3245394314    -1.3393496570
   43      H      -6.8393060750    -0.7152951607    -0.4306819027
   44      H      -6.0585424058    -1.3716951626     1.0405718941
   45      H      -6.8189996044     1.4750555665     0.5027717370
   46      H      -6.0217957321     0.8643126703     1.9854028652
   47      H      -4.5354897801     2.5139267789     0.2549399782
   48      H      -0.2502929140    -1.1844291957    -1.9054043568
   49      H      -1.1497788751    -2.3724369964    -2.9631337993
   50      H       4.5052423516     2.6030589775     2.4207833141
   51      H       4.3226965159     3.0276277425     0.6709148583
   52      H       5.8994900556     2.4051812100     1.2822512033
   53      H      -0.6335473384     1.5309229356    -2.7738979674
   54      H       0.9044110320     2.3983753218    -2.3453464104
   55      H       0.1233088388     2.2180931227     0.1777551943
   56      H      -0.7706491083     3.3613861820    -0.8909756191
 ----------------------------------------------------------------

    9   -1510.2987952736      3.75E-09 Convergence criterion met
 Total energy in the final basis set = -1510.29879527
 Final energy is   -1510.29879527356
 **  OPTIMIZATION CONVERGED  **

                    Orbital Energies (a.u.)
 --------------------------------------------------------------

 Alpha MOs
 -- Occupied --
-18.949 -18.944 -18.930 -18.916 -18.891 -18.889 -18.881 -18.876
-18.875 -18.852 -10.110 -10.110 -10.099 -10.084 -10.083 -10.072
-10.062 -10.060 -10.051 -10.049 -10.048 -10.041 -10.038 -10.037
-10.034 -10.027 -10.022 -10.021 -10.012 -10.011  -1.025  -1.018
 -1.008  -0.992  -0.972  -0.958  -0.949  -0.942  -0.935  -0.918
 -0.765  -0.756  -0.729  -0.720  -0.713  -0.704  -0.692  -0.660
 -0.646  -0.618  -0.598  -0.579  -0.548  -0.539  -0.536  -0.529
 -0.517  -0.506  -0.494  -0.474  -0.470  -0.456  -0.444  -0.437
 -0.435  -0.432  -0.426  -0.415  -0.411  -0.406  -0.403  -0.397
 -0.395  -0.384  -0.373  -0.369  -0.361  -0.358  -0.353  -0.352
 -0.341  -0.333  -0.333  -0.330  -0.323  -0.322  -0.314  -0.312
 -0.306  -0.305  -0.300  -0.299  -0.295  -0.292  -0.277  -0.273
 -0.271  -0.262  -0.249  -0.248  -0.237  -0.235  -0.221  -0.193
 -0.182  -0.172  -0.163  -0.161  -0.158  -0.151  -0.145  -0.135
 -0.132

          Ground-State Mulliken Net Atomic Charges

     Atom                 Charge (a.u.)
  ----------------------------------------
      1 O                    -0.218306
      2 C                     0.222563
      3 C                    -0.077216
      4 C                    -0.078953
      5 C                     0.212040
      6 O                    -0.174483
      7 C                    -0.052376
      8 C                    -0.047097
      9 O                    -0.173084
     10 C                     0.219287
     11 C                    -0.081047
     12 C                    -0.081516
     13 C                     0.212170
     14 O                    -0.223155
     15 O                    -0.165496
     16 O                    -0.167355
     17 O                    -0.204234
     18 C                    -0.127137
     19 C                     0.005849
     20 C                    -0.145613
     21 C                    -0.145060
     22 C                     0.026736
     23 O                    -0.187360
     24 H                     0.082826
     25 H                     0.080949
     26 H                     0.113495
     27 H                     0.074700
     28 H                     0.067241
     29 H                     0.075828
     30 H                     0.070741
     31 H                     0.084237
     32 O                    -0.208377
     33 C                    -0.146872
     34 C                     0.023732
     35 C                    -0.144124
     36 C                    -0.144041
     37 C                     0.026164
     38 O                    -0.187060
     39 H                     0.085575
     40 H                     0.086262
     41 H                     0.080122
     42 H                     0.092647
     43 H                     0.077967
     44 H                     0.073256
     45 H                     0.078102
     46 H                     0.074366
     47 H                     0.082629
     48 H                     0.115012
     49 H                     0.084806
     50 H                     0.087985
     51 H                     0.090938
     52 H                     0.084994
     53 H                     0.097755
     54 H                     0.097481
     55 H                     0.106239
     56 H                     0.085268
  ----------------------------------------
  Sum of atomic charges =    -0.000000

                    Cartesian Multipole Moments
 -----------------------------------------------------------------
    Charge (ESU x 10^10)
                -0.0000
    Dipole Moment (Debye)
         X      -2.6907      Y      -1.5900      Z      -1.1439
       Tot       3.3281
    Quadrupole Moments (Debye-Ang)
        XX    -156.5783     XY      -4.5406     YY    -150.9090
        XZ      -3.2765     YZ       1.4369     ZZ    -161.8840

 Total job time:  122.94s(wall), 5866.99s(cpu)
        *  Thank you very much for using Q-Chem.  Have a nice day.  *
