 Q-Chem 5.0, Q-Chem, Inc., Pleasanton, CA (2017)
 Q-Chem 5.0.1 for Intel X86 EM64T Linux

User input:
--------------------------------------------------------------
$molecule
0  1
O -3.94934 -3.66094 2.70899
C -3.26408 -4.56952 2.26188
C -3.36658 -6.02376 2.66595
C -4.49587 -6.40526 3.63704
C -5.50456 -5.32426 3.95648
O -6.28506 -5.08002 2.86259
C -7.30875 -4.10956 3.10657
C -7.93788 -3.66677 1.78965
O -7.06227 -2.75176 1.1122
C -7.10416 -1.46996 1.55309
C -6.07869 -0.5845 0.88598
C -6.43403 0.90921 0.85698
C -7.5501 1.34109 1.78681
O -8.5417 0.67987 2.05897
O -2.28533 -4.29791 1.36126
O -7.55345 2.65161 2.15547
O -7.42631 -1.25502 2.71548
C -8.52702 3.24384 2.93294
C -4.70803 -0.52682 1.58341
C -3.63609 -0.08943 0.57943
C -3.98183 1.36748 0.40691
C -5.1179 1.49273 1.42033
O -4.78574 0.58291 2.437
H -5.93557 -0.97781 -0.14675
H -6.66412 1.31106 -0.15401
H -4.42981 -1.47571 2.06085
H -2.65167 -0.15255 1.09439
H -3.6004 -0.66377 -0.36988
H -3.10662 1.97784 0.72389
H -4.30466 1.66483 -0.61443
H -5.19775 2.55547 1.73523
O -5.70867 -4.89001 5.08412
C -2.04327 -3.06304 0.81322
C -3.70769 -6.95614 1.48281
C -3.22608 -8.37475 1.78683
C -4.2266 -8.79394 2.84594
C -5.14488 -7.56709 2.86134
O -5.10628 -7.10337 1.53251
H -2.36623 -6.29797 3.07116
H -4.07525 -6.73591 4.61327
H -1.8092 -2.33025 1.61372
H -3.2876 -6.60981 0.51341
H -3.40462 -8.98469 0.87224
H -2.15781 -8.46092 2.08043
H -4.77762 -9.6867 2.47516
H -3.79707 -9.00226 3.84972
H -6.14826 -7.82989 3.26297
H -2.92995 -2.74752 0.23055
H -1.1757 -3.13333 0.12586
H -8.27393 4.31377 3.08003
H -8.57616 2.74786 3.92595
H -9.51481 3.17587 2.42914
H -8.13194 -4.55792 1.15563
H -8.92383 -3.17969 1.97263
H -6.93903 -3.25435 3.70601
H -8.09838 -4.61364 3.70697
$end

$opt
CONSTRAINT
tors           1           2           3           4      +4.974
tors           3           4           5           6     +70.432
tors           4           5           6           7    +177.235
tors           5           6           7           8    +167.819
tors           6           7           8           9     -76.776
tors           7           8           9          10     -80.501
tors           8           9          10          11    +175.000
tors           9          10          11          12    +154.873
tors          11          12          13          14     -35.707
ENDCONSTRAINT
$end

$rem
JOBTYPE                   OPT
METHOD                    B3LYP
DFT_D                     d3_op
BASIS                     STO-3G
GEOM_OPT_MAX_CYCLES       100
GEOM_OPT_TOL_GRADIENT     300
GEOM_OPT_TOL_DISPLACEMENT 1200
GEOM_OPT_TOL_ENERGY       100
SYMMETRY                  False
THRESH                    12
SCF_CONVERGENCE           8
MAX_SUB_FILE_NUM          128
MEM_STATIC                400
MEM_TOTAL                 4000
$end
--------------------------------------------------------------

   15   -1510.1358453402      9.03E-09 Convergence criterion met
 Total energy in the final basis set = -1510.13584534
   13   -1510.2086835282      8.28E-09 Convergence criterion met
 Total energy in the final basis set = -1510.20868353
   14   -1510.2477888698      6.13E-09 Convergence criterion met
 Total energy in the final basis set = -1510.24778887
   14   -1510.2673320768      4.39E-09 Convergence criterion met
 Total energy in the final basis set = -1510.26733208
   13   -1510.2756212468      9.44E-09 Convergence criterion met
 Total energy in the final basis set = -1510.27562125
   14   -1510.2773159164      5.91E-09 Convergence criterion met
 Total energy in the final basis set = -1510.27731592
   13   -1510.2814301363      4.47E-09 Convergence criterion met
 Total energy in the final basis set = -1510.28143014
   13   -1510.2827763342      3.54E-09 Convergence criterion met
   12   -1510.2864636783      3.57E-09 Convergence criterion met
 Total energy in the final basis set = -1510.28646368
   11   -1510.2865007830      7.22E-09 Convergence criterion met
 Total energy in the final basis set = -1510.28650078
   10   -1510.2865233538      7.43E-09 Convergence criterion met
 Total energy in the final basis set = -1510.28652335
   10   -1510.2865500789      6.52E-09 Convergence criterion met
 Total energy in the final basis set = -1510.28655008
   10   -1510.2865669228      6.08E-09 Convergence criterion met
 Total energy in the final basis set = -1510.28656692
   10   -1510.2865769347      7.17E-09 Convergence criterion met
 Total energy in the final basis set = -1510.28657693

             Standard Nuclear Orientation (Angstroms)
    I     Atom           X                Y                Z
 ----------------------------------------------------------------
    1      O      -1.3330141934    -0.9604759516     0.7371723128
    2      C      -2.3971359086    -1.4622565543     0.3086849989
    3      C      -3.8637336963    -0.9122974151     0.4217145951
    4      C      -3.9976449746     0.5246273276     1.0741310904
    5      C      -2.6264512040     1.2219919007     1.3851471751
    6      O      -2.0098652256     1.5923432556     0.1482437935
    7      C      -0.7456173358     2.3117753463     0.4163655614
    8      C       0.0206042413     2.4049173870    -0.9470685642
    9      O       0.6447929388     1.0967763174    -1.2637605940
   10      C       1.8690968664     0.9460485723    -0.5385562434
   11      C       2.4072017777    -0.4990100402    -0.8163290363
   12      C       3.9708855299    -0.6383647104    -0.6446722532
   13      C       4.7623170404     0.7170940008    -0.7221026028
   14      O       4.5056958551     1.7008758669    -1.4489261718
   15      O      -2.4722654150    -2.6972947714    -0.4086804927
   16      O       5.8931352926     0.6477945462     0.1539977300
   17      O       2.3360457604     1.8035943676     0.2415116168
   18      C       6.6581103874     1.9138981401     0.0879294726
   19      C       1.9015442254    -1.4181517358     0.3824580190
   20      C       2.2814960312    -2.9257669150     0.0891833466
   21      C       3.8145620792    -2.9408846505     0.4415457742
   22      C       4.0590332144    -1.4123019975     0.7431985132
   23      O       2.8275624762    -1.0211859157     1.4694145460
   24      H       2.0481640428    -0.8435281386    -1.8018821114
   25      H       4.3728511983    -1.2798508612    -1.4519567182
   26      H       0.8400124216    -1.2433838274     0.6669930805
   27      H       1.7107993606    -3.6029945891     0.7437998192
   28      H       2.0871987534    -3.2045957831    -0.9590608764
   29      H       4.0132435718    -3.5452319471     1.3412133299
   30      H       4.4415784981    -3.3149829153    -0.3834286639
   31      H       4.9602073910    -1.1727532795     1.3389907146
   32      O      -2.1624684084     1.4851748463     2.5157913111
   33      C      -1.1227440485    -3.2754848519    -0.5912895624
   34      C      -4.5408321713    -0.6725581397    -1.0003023332
   35      C      -6.1061248773    -0.6379483321    -0.7932728318
   36      C      -6.2835386921     0.7584471680    -0.0897879466
   37      C      -4.7934025864     1.2859498463    -0.0711031949
   38      O      -4.2081172150     0.7335876700    -1.3147564201
   39      H      -4.4437002910    -1.6575950791     0.9973372791
   40      H      -4.5696199027     0.4787762232     2.0171737140
   41      H      -0.6301544384    -3.4764270694     0.3810475132
   42      H      -4.1780484234    -1.3533441976    -1.7946173391
   43      H      -6.6212160193    -0.6678628482    -1.7667697062
   44      H      -6.4662916239    -1.4772687157    -0.1774524690
   45      H      -6.9247062291     1.4314013564    -0.6809376909
   46      H      -6.7031550279     0.6714205098     0.9251414539
   47      H      -4.6846775194     2.3873124413    -0.0492161286
   48      H      -0.4706879844    -2.6049591567    -1.1866550619
   49      H      -1.2691252662    -4.2268031435    -1.1351678803
   50      H       7.5097144466     1.7925361824     0.7823544006
   51      H       6.0396660791     2.7783723241     0.4046201969
   52      H       7.0380380612     2.1095699927    -0.9357427552
   53      H      -0.6903062989     2.6179325690    -1.7703057638
   54      H       0.7908876310     3.2035853557    -0.8879359940
   55      H      -0.1304255003     1.7773771919     1.1714124289
   56      H      -0.9560105338     3.3330013891     0.8065238858
 ----------------------------------------------------------------

    9   -1510.2865774011      4.51E-09 Convergence criterion met
 Total energy in the final basis set = -1510.28657740
 Final energy is   -1510.28657740111
 **  OPTIMIZATION CONVERGED  **

                    Orbital Energies (a.u.)
 --------------------------------------------------------------

 Alpha MOs
 -- Occupied --
-18.943 -18.929 -18.924 -18.921 -18.889 -18.889 -18.880 -18.866
-18.864 -18.862 -10.109 -10.093 -10.090 -10.090 -10.071 -10.066
-10.061 -10.061 -10.060 -10.059 -10.052 -10.049 -10.041 -10.034
-10.032 -10.030 -10.021 -10.020 -10.017 -10.015  -1.020  -1.007
 -1.003  -0.998  -0.971  -0.963  -0.945  -0.932  -0.927  -0.922
 -0.764  -0.757  -0.725  -0.719  -0.713  -0.703  -0.690  -0.668
 -0.655  -0.610  -0.597  -0.573  -0.546  -0.539  -0.538  -0.532
 -0.516  -0.505  -0.487  -0.467  -0.463  -0.454  -0.446  -0.440
 -0.434  -0.431  -0.419  -0.418  -0.414  -0.408  -0.404  -0.403
 -0.390  -0.382  -0.370  -0.366  -0.359  -0.355  -0.349  -0.343
 -0.341  -0.335  -0.332  -0.329  -0.327  -0.320  -0.315  -0.315
 -0.307  -0.306  -0.302  -0.297  -0.288  -0.284  -0.282  -0.275
 -0.267  -0.260  -0.249  -0.244  -0.238  -0.235  -0.226  -0.186
 -0.173  -0.167  -0.165  -0.160  -0.151  -0.144  -0.141  -0.140
 -0.136

          Ground-State Mulliken Net Atomic Charges

     Atom                 Charge (a.u.)
  ----------------------------------------
      1 O                    -0.208086
      2 C                     0.217046
      3 C                    -0.077742
      4 C                    -0.081325
      5 C                     0.212249
      6 O                    -0.171353
      7 C                    -0.047211
      8 C                    -0.047657
      9 O                    -0.172023
     10 C                     0.213622
     11 C                    -0.078241
     12 C                    -0.080042
     13 C                     0.213680
     14 O                    -0.214853
     15 O                    -0.170149
     16 O                    -0.171173
     17 O                    -0.213741
     18 C                    -0.127717
     19 C                     0.016263
     20 C                    -0.145561
     21 C                    -0.142955
     22 C                     0.023854
     23 O                    -0.189283
     24 H                     0.083473
     25 H                     0.081592
     26 H                     0.098472
     27 H                     0.073460
     28 H                     0.069580
     29 H                     0.076793
     30 H                     0.071657
     31 H                     0.092216
     32 O                    -0.216427
     33 C                    -0.128608
     34 C                     0.025791
     35 C                    -0.143281
     36 C                    -0.144689
     37 C                     0.026933
     38 O                    -0.185874
     39 H                     0.086005
     40 H                     0.083999
     41 H                     0.089802
     42 H                     0.087682
     43 H                     0.078119
     44 H                     0.073689
     45 H                     0.077884
     46 H                     0.073919
     47 H                     0.083784
     48 H                     0.090973
     49 H                     0.091794
     50 H                     0.089227
     51 H                     0.092789
     52 H                     0.087256
     53 H                     0.095769
     54 H                     0.095433
     55 H                     0.100732
     56 H                     0.082452
  ----------------------------------------
  Sum of atomic charges =    -0.000000

                    Cartesian Multipole Moments
 -----------------------------------------------------------------
    Charge (ESU x 10^10)
                -0.0000
    Dipole Moment (Debye)
         X      -1.3288      Y      -2.5827      Z      -1.5145
       Tot       3.2756
    Quadrupole Moments (Debye-Ang)
        XX    -137.4236     XY      -1.8443     YY    -149.4825
        XZ      -3.7931     YZ       1.5532     ZZ    -168.8522

 Total job time:  57.07s(wall), 2718.51s(cpu)
        *  Thank you very much for using Q-Chem.  Have a nice day.  *
