 Q-Chem 5.0, Q-Chem, Inc., Pleasanton, CA (2017)
 Q-Chem 5.0.1 for Intel X86 EM64T Linux

User input:
--------------------------------------------------------------
$molecule
0  1
O -1.2486572637 -0.9312630269 0.6923478195
C -2.3029674528 -1.4078532818 0.2121505321
C -3.7854030384 -0.9534174539 0.4766119044
C -3.9357639893 0.5032034472 1.0842904964
C -2.5795335457 1.2515558837 1.3232230321
O -2.0193115247 1.6001774227 0.0534954889
C -0.7508208159 2.3358095852 0.2510200241
C 0.0024510288 2.3150633823 -1.1228893139
O 0.6191630208 0.9812998954 -1.3330912161
C 1.8402268578 0.8843418816 -0.5914832858
C 2.414730785 -0.5576968323 -0.8016470518
C 3.972458203 -0.6612331497 -0.563279131
C 4.7471653564 0.7019524512 -0.6702117274
O 4.5065858208 1.6489775288 -1.4494227995
O -2.3482812996 -2.4997978838 -0.7072130751
O 5.840976324 0.6894454877 0.2541018884
O 2.2853420746 1.7866300568 0.1498866751
C 6.5904526789 1.9630661971 0.1635870945
C 1.8786898909 -1.4387491799 0.4144702813
C 2.2974500775 -2.9488778655 0.1978754182
C 3.8152138459 -2.920247495 0.6109128663
C 4.0205336355 -1.3760134497 0.8573267293
O 2.7546422824 -0.9794287761 1.5181128136
H 2.1012653782 -0.9439521159 -1.7871401144
H 4.4140689204 -1.3289014877 -1.3275212328
H 0.8030047414 -1.2703147606 0.6506299466
H 1.7121756016 -3.6106285331 0.8560229178
H 2.1510774265 -3.2721073151 -0.8452573871
H 3.9887568006 -3.4833371008 1.5420305622
H 4.4807600797 -3.3157683276 -0.1729399983
H 4.8933760118 -1.0947019892 1.476514364
O -2.0803355642 1.5583629327 2.4275068375
C -0.9829206871 -2.9550888475 -1.0499692076
C -4.6180925012 -0.8091396765 -0.8708955963
C -6.154461122 -0.7885865622 -0.5044750657
C -6.3028087119 0.6583915358 0.0961824001
C -4.82331295 1.197340797 -0.0375123486
O -4.342254513 0.5812778131 -1.2948529801
H -4.2481991485 -1.7059508879 1.1423538209
H -4.4632494261 0.4666483066 2.0532786031
H -0.4644517891 -3.3842988181 -0.1696095028
H -4.3207342795 -1.5283216833 -1.6582407047
H -6.7673342756 -0.9161311849 -1.4109517384
H -6.4199078879 -1.5784062966 0.2163764868
H -6.9920514487 1.275498047 -0.5020471658
H -6.6500887475 0.6530060186 1.1417524097
H -4.7249795774 2.2989728716 -0.0840124224
H -0.3696860596 -2.1257453472 -1.4568890084
H -1.1075151488 -3.7380910449 -1.820401077
H 7.4099824903 1.8879497194 0.9018607885
H 5.9460877137 2.8315681212 0.4098625509
H 7.0157203906 2.1166417719 -0.8493885354
H -0.7153312286 2.4599993545 -1.9549454228
H 0.7749777303 3.1135129876 -1.1375044363
H -0.1310620439 1.8642416794 1.0427618966
H -0.9582847343 3.3858533312 0.5572594866
$end

$rem
JOBTYPE                   OPT
METHOD                    B3LYP
DFT_D                     d3_op
BASIS                     STO-3G
GEOM_OPT_MAX_CYCLES       100
GEOM_OPT_TOL_GRADIENT     300
GEOM_OPT_TOL_DISPLACEMENT 1200
GEOM_OPT_TOL_ENERGY       100
SYMMETRY                  False
THRESH                    12
SCF_CONVERGENCE           8
MAX_SUB_FILE_NUM          128
MEM_STATIC                400
MEM_TOTAL                 4000
$end
--------------------------------------------------------------

   16   -1510.2877305558      5.60E-09 Convergence criterion met
 Total energy in the final basis set = -1510.28773056
   14   -1510.2632538647      5.49E-09 Convergence criterion met
 Total energy in the final basis set = -1510.26325386
   14   -1510.2863578988      4.27E-09 Convergence criterion met
 Total energy in the final basis set = -1510.28635790
   14   -1510.2869894637      5.53E-09 Convergence criterion met
 Total energy in the final basis set = -1510.28698946
   14   -1510.2891109132      3.19E-09 Convergence criterion met
 Total energy in the final basis set = -1510.28911091
   14   -1510.2897828215      7.07E-09 Convergence criterion met
 Total energy in the final basis set = -1510.28978282
   13   -1510.2911929799      5.39E-09 Convergence criterion met
 Total energy in the final basis set = -1510.29119298
   13   -1510.2933391834      6.64E-09 Convergence criterion met
   12   -1510.2988173304      3.94E-09 Convergence criterion met
 Total energy in the final basis set = -1510.29881733
   12   -1510.2987782393      5.33E-09 Convergence criterion met
 Total energy in the final basis set = -1510.29877824
    9   -1510.2987775203      8.15E-09 Convergence criterion met
 Total energy in the final basis set = -1510.29877752
   11   -1510.2987671987      5.17E-09 Convergence criterion met
 Total energy in the final basis set = -1510.29876720
    9   -1510.2987680865      9.99E-09 Convergence criterion met
 Total energy in the final basis set = -1510.29876809
    9   -1510.2987647613      7.55E-09 Convergence criterion met
 Total energy in the final basis set = -1510.29876476

             Standard Nuclear Orientation (Angstroms)
    I     Atom           X                Y                Z
 ----------------------------------------------------------------
    1      O      -0.9661133634    -0.9936272410     0.5819937954
    2      C      -2.0659765335    -1.1638133284     0.0017087693
    3      C      -3.4581987626    -0.7437402318     0.5979917385
    4      C      -3.4366907837     0.7330936948     1.1823516186
    5      C      -2.0827746846     1.4884359607     0.9574975726
    6      O      -1.8207446147     1.5341015530    -0.4538867233
    7      C      -0.5653214760     2.2712334286    -0.7246962061
    8      C       0.1108294133     1.6579070437    -1.9985730859
    9      O       0.7269451815     0.3353558474    -1.7419758328
   10      C       2.0258353531     0.4784459625    -1.1435975010
   11      C       2.6160179113    -0.9435210944    -0.8866720782
   12      C       4.1111536587    -0.9240563710    -0.3603385502
   13      C       4.7061704914     0.5208408494    -0.1639716598
   14      O       5.4497995982     1.1304550625    -0.9636607476
   15      O      -2.2357794647    -1.7751497491    -1.2664940347
   16      O       4.3464077981     1.0042805891     1.1355102994
   17      O       2.5482787826     1.5893826756    -0.9081704174
   18      C       4.8232097328     2.3948802131     1.2981565994
   19      C       1.8716014334    -1.6937151629     0.3088137665
   20      C       2.2229516455    -3.2288683295     0.1898980968
   21      C       3.7177183039    -3.2421938992     0.6817342811
   22      C       3.9456220030    -1.7124763231     1.0085536697
   23      O       2.6257269687    -1.2614970425     1.5041813546
   24      H       2.5262122787    -1.5201133801    -1.8252536780
   25      H       4.7732850759    -1.4575190603    -1.0651594527
   26      H       0.7858663248    -1.4471244375     0.4073552588
   27      H       1.5747652548    -3.8216527628     0.8550907664
   28      H       2.1097714138    -3.6059571942    -0.8390721384
   29      H       3.8387209831    -3.8512496845     1.5916290117
   30      H       4.4159196634    -3.6120144332    -0.0861558802
   31      H       4.7350648303    -1.5014680745     1.7549217564
   32      O      -1.3523739752     2.0082409297     1.8278919900
   33      C      -0.9198154595    -2.1076558641    -1.8701068849
   34      C      -4.6232520559    -0.6340944944    -0.4716034915
   35      C      -5.9991456995    -0.6140830607     0.3027360339
   36      C      -5.9908081024     0.8421363837     0.8994396322
   37      C      -4.6175499080     1.3918467507     0.3431829855
   38      O      -4.4945793456     0.7495705895    -0.9841351443
   39      H      -3.7140810598    -1.4693496314     1.3925970077
   40      H      -3.6468162450     0.7432950553     2.2660227952
   41      H      -0.4324176028    -2.9405827315    -1.3244677363
   42      H      -4.5468697451    -1.3640604820    -1.2997470875
   43      H      -6.8365637376    -0.7570580007    -0.3986050101
   44      H      -6.0521583631    -1.3936725883     1.0794478696
   45      H      -6.8298202671     1.4424364471     0.5132992353
   46      H      -6.0257070816     0.8523505890     2.0006186771
   47      H      -4.5539794193     2.4931964963     0.2486319622
   48      H      -0.2481878889    -1.2149289928    -1.8716945397
   49      H      -1.1411715642    -2.4302010113    -2.9035971556
   50      H       4.5517562439     2.6928925931     2.3275853283
   51      H       4.3287377734     3.0723515529     0.5720809068
   52      H       5.9216754374     2.4722191647     1.1637410471
   53      H      -0.6551112934     1.4855697057    -2.7817970365
   54      H       0.8790651988     2.3688043044    -2.3716214044
   55      H       0.1100037859     2.2197720082     0.1563281910
   56      H      -0.7971183615     3.3413763594    -0.9239657403
 ----------------------------------------------------------------

    9   -1510.2987639508      2.92E-09 Convergence criterion met
 Total energy in the final basis set = -1510.29876395
 Final energy is   -1510.29876395078
 **  OPTIMIZATION CONVERGED  **

                    Orbital Energies (a.u.)
 --------------------------------------------------------------

 Alpha MOs
 -- Occupied --
-18.949 -18.944 -18.930 -18.916 -18.891 -18.889 -18.881 -18.876
-18.876 -18.852 -10.110 -10.110 -10.099 -10.084 -10.083 -10.073
-10.062 -10.060 -10.051 -10.049 -10.048 -10.041 -10.038 -10.037
-10.035 -10.027 -10.022 -10.021 -10.012 -10.011  -1.025  -1.018
 -1.008  -0.992  -0.972  -0.958  -0.949  -0.942  -0.935  -0.918
 -0.765  -0.756  -0.729  -0.720  -0.713  -0.704  -0.692  -0.660
 -0.646  -0.618  -0.598  -0.579  -0.548  -0.539  -0.536  -0.529
 -0.517  -0.506  -0.494  -0.474  -0.470  -0.456  -0.444  -0.437
 -0.435  -0.432  -0.425  -0.415  -0.411  -0.406  -0.403  -0.397
 -0.395  -0.384  -0.373  -0.369  -0.361  -0.358  -0.353  -0.352
 -0.341  -0.333  -0.333  -0.330  -0.323  -0.322  -0.314  -0.312
 -0.306  -0.305  -0.300  -0.299  -0.295  -0.292  -0.277  -0.273
 -0.271  -0.262  -0.249  -0.248  -0.237  -0.235  -0.221  -0.193
 -0.182  -0.172  -0.163  -0.161  -0.158  -0.151  -0.145  -0.135
 -0.132

          Ground-State Mulliken Net Atomic Charges

     Atom                 Charge (a.u.)
  ----------------------------------------
      1 O                    -0.218443
      2 C                     0.222595
      3 C                    -0.077250
      4 C                    -0.078943
      5 C                     0.212049
      6 O                    -0.174424
      7 C                    -0.052269
      8 C                    -0.047111
      9 O                    -0.173065
     10 C                     0.219293
     11 C                    -0.080985
     12 C                    -0.081578
     13 C                     0.212173
     14 O                    -0.223210
     15 O                    -0.165554
     16 O                    -0.167411
     17 O                    -0.204212
     18 C                    -0.127136
     19 C                     0.005835
     20 C                    -0.145633
     21 C                    -0.145024
     22 C                     0.026744
     23 O                    -0.187480
     24 H                     0.082848
     25 H                     0.080968
     26 H                     0.113521
     27 H                     0.074719
     28 H                     0.067227
     29 H                     0.075859
     30 H                     0.070758
     31 H                     0.084381
     32 O                    -0.208377
     33 C                    -0.146935
     34 C                     0.023746
     35 C                    -0.144102
     36 C                    -0.144059
     37 C                     0.026151
     38 O                    -0.187070
     39 H                     0.085522
     40 H                     0.086269
     41 H                     0.080090
     42 H                     0.092677
     43 H                     0.077962
     44 H                     0.073248
     45 H                     0.078109
     46 H                     0.074370
     47 H                     0.082595
     48 H                     0.114995
     49 H                     0.084758
     50 H                     0.087942
     51 H                     0.090959
     52 H                     0.085086
     53 H                     0.097818
     54 H                     0.097619
     55 H                     0.106079
     56 H                     0.085311
  ----------------------------------------
  Sum of atomic charges =    -0.000000

                    Cartesian Multipole Moments
 -----------------------------------------------------------------
    Charge (ESU x 10^10)
                -0.0000
    Dipole Moment (Debye)
         X      -2.6780      Y      -1.6236      Z      -1.0956
       Tot       3.3178
    Quadrupole Moments (Debye-Ang)
        XX    -156.4017     XY      -4.5136     YY    -150.8721
        XZ      -3.1266     YZ       1.1768     ZZ    -162.1231

 Total job time:  102.54s(wall), 4892.40s(cpu)
        *  Thank you very much for using Q-Chem.  Have a nice day.  *
