 Q-Chem 5.0, Q-Chem, Inc., Pleasanton, CA (2017)
 Q-Chem 5.0.1 for Intel X86 EM64T Linux

User input:
--------------------------------------------------------------
$molecule
0  1
O -3.94934 -3.66094 2.70899
C -3.26408 -4.56952 2.26188
C -3.36658 -6.02376 2.66595
C -4.66085 -6.46883 3.3664
C -5.77954 -5.45241 3.42551
O -6.30849 -5.27158 2.17934
C -7.39612 -4.34105 2.15885
C -7.67129 -3.88554 0.72954
O -6.683 -2.92597 0.32285
C -6.87923 -1.66114 0.77098
C -5.77934 -0.71285 0.35666
C -6.17988 0.76935 0.32634
C -7.47018 1.11988 1.03975
O -8.46935 0.41683 1.08376
O -2.19426 -4.28792 1.47481
O -7.59653 2.40933 1.45798
O -7.43063 -1.50479 1.85231
C -8.72408 2.93136 2.05731
C -4.56251 -0.64139 1.29368
C -3.34494 -0.10824 0.52736
C -3.71514 1.34288 0.37033
C -5.0227 1.36779 1.1572
O -4.84504 0.41397 2.17208
H -5.43289 -1.04657 -0.64841
H -6.22998 1.2144 -0.69156
H -4.3359 -1.6036 1.76236
H -2.46839 -0.16535 1.21012
H -3.1094 -0.62314 -0.42777
H -2.94265 1.96262 0.87866
H -3.85458 1.69049 -0.67635
H -5.20756 2.40753 1.50314
O -6.25638 -5.0212 4.46886
C -1.88884 -3.05414 0.9622
C -3.40337 -6.98148 1.44765
C -2.91147 -8.36759 1.86492
C -4.07917 -8.84124 2.70668
C -5.05592 -7.67838 2.50081
O -4.76783 -7.21978 1.20283
H -2.44857 -6.25066 3.25371
H -4.44845 -6.75608 4.42059
H -1.74703 -2.32492 1.78673
H -2.81163 -6.61947 0.57899
H -2.8689 -8.98817 0.94093
H -1.92044 -8.39483 2.36678
H -4.48026 -9.77686 2.25753
H -3.85439 -9.00138 3.78344
H -6.10332 -8.00254 2.68809
H -2.69975 -2.74292 0.27684
H -0.9471 -3.1251 0.38072
H -8.54662 3.99964 2.29759
H -8.94329 2.3843 2.99919
H -9.59321 2.85902 1.36918
H -7.655 -4.76635 0.05294
H -8.68745 -3.43367 0.65274
H -7.25376 -3.50358 2.8674
H -8.29481 -4.89563 2.50845
$end

$opt
CONSTRAINT
tors           1           2           3           4     +18.549
tors           3           4           5           6     +70.613
tors           4           5           6           7    +178.744
tors           5           6           7           8    +163.829
tors           6           7           8           9     -76.776
tors           7           8           9          10     -79.716
tors           8           9          10          11    +177.692
tors           9          10          11          12    +156.723
tors          11          12          13          14     -35.707
ENDCONSTRAINT
$end

$rem
JOBTYPE                   OPT
METHOD                    B3LYP
DFT_D                     d3_op
BASIS                     STO-3G
GEOM_OPT_MAX_CYCLES       100
GEOM_OPT_TOL_GRADIENT     300
GEOM_OPT_TOL_DISPLACEMENT 1200
GEOM_OPT_TOL_ENERGY       100
SYMMETRY                  False
THRESH                    12
SCF_CONVERGENCE           8
MAX_SUB_FILE_NUM          128
MEM_STATIC                400
MEM_TOTAL                 4000
$end
--------------------------------------------------------------

   16   -1510.1293297110      2.19E-09 Convergence criterion met
 Total energy in the final basis set = -1510.12932971
   13   -1510.2032369626      8.30E-09 Convergence criterion met
 Total energy in the final basis set = -1510.20323696
   14   -1510.2425107127      2.67E-09 Convergence criterion met
 Total energy in the final basis set = -1510.24251071
   14   -1510.2599269589      3.21E-09 Convergence criterion met
 Total energy in the final basis set = -1510.25992696
   14   -1510.2714641944      5.46E-09 Convergence criterion met
 Total energy in the final basis set = -1510.27146419
   13   -1510.2775402817      6.04E-09 Convergence criterion met
 Total energy in the final basis set = -1510.27754028
   13   -1510.2808224306      2.89E-09 Convergence criterion met
 Total energy in the final basis set = -1510.28082243
   13   -1510.2829333094      2.54E-09 Convergence criterion met
   12   -1510.2875080594      3.77E-09 Convergence criterion met
 Total energy in the final basis set = -1510.28750806
   11   -1510.2876067794      8.13E-09 Convergence criterion met
 Total energy in the final basis set = -1510.28760678
   11   -1510.2876635875      4.12E-09 Convergence criterion met
 Total energy in the final basis set = -1510.28766359
   10   -1510.2877122283      7.39E-09 Convergence criterion met
 Total energy in the final basis set = -1510.28771223
   10   -1510.2877305612      5.64E-09 Convergence criterion met
 Total energy in the final basis set = -1510.28773056
    9   -1510.2877406191      9.79E-09 Convergence criterion met
 Total energy in the final basis set = -1510.28774062

             Standard Nuclear Orientation (Angstroms)
    I     Atom           X                Y                Z
 ----------------------------------------------------------------
    1      O      -1.2486572637    -0.9312630269     0.6923478195
    2      C      -2.3029674528    -1.4078532818     0.2121505321
    3      C      -3.7854030384    -0.9534174539     0.4766119044
    4      C      -3.9357639893     0.5032034472     1.0842904964
    5      C      -2.5795335457     1.2515558837     1.3232230321
    6      O      -2.0193115247     1.6001774227     0.0534954889
    7      C      -0.7508208159     2.3358095852     0.2510200241
    8      C       0.0024510288     2.3150633823    -1.1228893139
    9      O       0.6191630208     0.9812998954    -1.3330912161
   10      C       1.8402268578     0.8843418816    -0.5914832858
   11      C       2.4147307850    -0.5576968323    -0.8016470518
   12      C       3.9724582030    -0.6612331497    -0.5632791310
   13      C       4.7471653564     0.7019524512    -0.6702117274
   14      O       4.5065858208     1.6489775288    -1.4494227995
   15      O      -2.3482812996    -2.4997978838    -0.7072130751
   16      O       5.8409763240     0.6894454877     0.2541018884
   17      O       2.2853420746     1.7866300568     0.1498866751
   18      C       6.5904526789     1.9630661971     0.1635870945
   19      C       1.8786898909    -1.4387491799     0.4144702813
   20      C       2.2974500775    -2.9488778655     0.1978754182
   21      C       3.8152138459    -2.9202474950     0.6109128663
   22      C       4.0205336355    -1.3760134497     0.8573267293
   23      O       2.7546422824    -0.9794287761     1.5181128136
   24      H       2.1012653782    -0.9439521159    -1.7871401144
   25      H       4.4140689204    -1.3289014877    -1.3275212328
   26      H       0.8030047414    -1.2703147606     0.6506299466
   27      H       1.7121756016    -3.6106285331     0.8560229178
   28      H       2.1510774265    -3.2721073151    -0.8452573871
   29      H       3.9887568006    -3.4833371008     1.5420305622
   30      H       4.4807600797    -3.3157683276    -0.1729399983
   31      H       4.8933760118    -1.0947019892     1.4765143640
   32      O      -2.0803355642     1.5583629327     2.4275068375
   33      C      -0.9829206871    -2.9550888475    -1.0499692076
   34      C      -4.6180925012    -0.8091396765    -0.8708955963
   35      C      -6.1544611220    -0.7885865622    -0.5044750657
   36      C      -6.3028087119     0.6583915358     0.0961824001
   37      C      -4.8233129500     1.1973407970    -0.0375123486
   38      O      -4.3422545130     0.5812778131    -1.2948529801
   39      H      -4.2481991485    -1.7059508879     1.1423538209
   40      H      -4.4632494261     0.4666483066     2.0532786031
   41      H      -0.4644517891    -3.3842988181    -0.1696095028
   42      H      -4.3207342795    -1.5283216833    -1.6582407047
   43      H      -6.7673342756    -0.9161311849    -1.4109517384
   44      H      -6.4199078879    -1.5784062966     0.2163764868
   45      H      -6.9920514487     1.2754980470    -0.5020471658
   46      H      -6.6500887475     0.6530060186     1.1417524097
   47      H      -4.7249795774     2.2989728716    -0.0840124224
   48      H      -0.3696860596    -2.1257453472    -1.4568890084
   49      H      -1.1075151488    -3.7380910449    -1.8204010770
   50      H       7.4099824903     1.8879497194     0.9018607885
   51      H       5.9460877137     2.8315681212     0.4098625509
   52      H       7.0157203906     2.1166417719    -0.8493885354
   53      H      -0.7153312286     2.4599993545    -1.9549454228
   54      H       0.7749777303     3.1135129876    -1.1375044363
   55      H      -0.1310620439     1.8642416794     1.0427618966
   56      H      -0.9582847343     3.3858533312     0.5572594866
 ----------------------------------------------------------------

    9   -1510.2877410522      6.55E-09 Convergence criterion met
 Total energy in the final basis set = -1510.28774105
 Final energy is   -1510.28774105223
 **  OPTIMIZATION CONVERGED  **

                    Orbital Energies (a.u.)
 --------------------------------------------------------------

 Alpha MOs
 -- Occupied --
-18.945 -18.928 -18.924 -18.921 -18.889 -18.888 -18.879 -18.866
-18.865 -18.863 -10.110 -10.093 -10.091 -10.090 -10.071 -10.067
-10.062 -10.060 -10.060 -10.059 -10.051 -10.047 -10.041 -10.034
-10.031 -10.030 -10.021 -10.020 -10.016 -10.015  -1.021  -1.007
 -1.003  -0.998  -0.970  -0.962  -0.946  -0.932  -0.927  -0.923
 -0.764  -0.757  -0.725  -0.719  -0.713  -0.703  -0.690  -0.668
 -0.655  -0.611  -0.597  -0.574  -0.546  -0.538  -0.538  -0.531
 -0.516  -0.505  -0.487  -0.468  -0.464  -0.454  -0.447  -0.440
 -0.434  -0.430  -0.419  -0.418  -0.414  -0.408  -0.404  -0.403
 -0.390  -0.384  -0.370  -0.366  -0.360  -0.355  -0.350  -0.344
 -0.341  -0.334  -0.333  -0.330  -0.325  -0.319  -0.315  -0.314
 -0.306  -0.305  -0.301  -0.297  -0.289  -0.285  -0.282  -0.274
 -0.267  -0.261  -0.250  -0.244  -0.239  -0.235  -0.225  -0.187
 -0.173  -0.168  -0.165  -0.162  -0.150  -0.145  -0.142  -0.140
 -0.136

          Ground-State Mulliken Net Atomic Charges

     Atom                 Charge (a.u.)
  ----------------------------------------
      1 O                    -0.208667
      2 C                     0.219449
      3 C                    -0.077084
      4 C                    -0.081528
      5 C                     0.212076
      6 O                    -0.173258
      7 C                    -0.048092
      8 C                    -0.047563
      9 O                    -0.173448
     10 C                     0.213695
     11 C                    -0.078818
     12 C                    -0.079991
     13 C                     0.213800
     14 O                    -0.215295
     15 O                    -0.168824
     16 O                    -0.171210
     17 O                    -0.213266
     18 C                    -0.127635
     19 C                     0.013652
     20 C                    -0.146311
     21 C                    -0.142853
     22 C                     0.023817
     23 O                    -0.189593
     24 H                     0.082007
     25 H                     0.081301
     26 H                     0.101074
     27 H                     0.073441
     28 H                     0.069171
     29 H                     0.076820
     30 H                     0.071388
     31 H                     0.092124
     32 O                    -0.214969
     33 C                    -0.129305
     34 C                     0.024516
     35 C                    -0.143976
     36 C                    -0.144174
     37 C                     0.026763
     38 O                    -0.187355
     39 H                     0.085834
     40 H                     0.083975
     41 H                     0.089451
     42 H                     0.090365
     43 H                     0.078040
     44 H                     0.073242
     45 H                     0.077752
     46 H                     0.073918
     47 H                     0.083992
     48 H                     0.094593
     49 H                     0.091927
     50 H                     0.089181
     51 H                     0.092797
     52 H                     0.087036
     53 H                     0.095578
     54 H                     0.095308
     55 H                     0.102894
     56 H                     0.082234
  ----------------------------------------
  Sum of atomic charges =    -0.000000

                    Cartesian Multipole Moments
 -----------------------------------------------------------------
    Charge (ESU x 10^10)
                -0.0000
    Dipole Moment (Debye)
         X      -1.2413      Y      -2.5535      Z      -1.4795
       Tot       3.2015
    Quadrupole Moments (Debye-Ang)
        XX    -138.2480     XY      -1.4804     YY    -149.8103
        XZ      -4.4023     YZ       1.2437     ZZ    -168.4207

 Total job time:  58.11s(wall), 2764.55s(cpu)
        *  Thank you very much for using Q-Chem.  Have a nice day.  *
