 Q-Chem 5.0, Q-Chem, Inc., Pleasanton, CA (2017)
 Q-Chem 5.0.1 for Intel X86 EM64T Linux

User input:
--------------------------------------------------------------
$molecule
0  1
O -1.2259146183 -0.9266871789 0.6509949141
C -2.2911008383 -1.4120883203 0.2043553603
C -3.7652426883 -0.9576628293 0.5094607308
C -3.8962726686 0.5043292581 1.1089029011
C -2.5335815508 1.2556574168 1.3001776696
O -2.0149927326 1.592311628 0.0098532719
C -0.7552566805 2.3555231692 0.1523747272
C -0.0236308956 2.2721775289 -1.2310399936
O 0.6084468954 0.9384198527 -1.3840077345
C 1.8441704251 0.892125176 -0.6603679202
C 2.4405179874 -0.5459705641 -0.8378367102
C 3.985360786 -0.6443144127 -0.5259165434
C 4.7729422923 0.712205454 -0.6230891556
O 4.5639338004 1.6566322278 -1.4141502479
O -2.3586247547 -2.5087304718 -0.7071463676
O 5.8399844265 0.6963586554 0.3326712487
O 2.2796874776 1.8266568979 0.0452817606
C 6.604526282 1.9616822703 0.2530302512
C 1.8530902276 -1.4202405978 0.361328438
C 2.289119929 -2.9298060489 0.1773984348
C 3.7849693999 -2.8904867048 0.6635304034
C 3.9717416946 -1.3428441056 0.9032756686
O 2.674895259 -0.9464865689 1.4998646314
H 2.173015205 -0.942005289 -1.8327651055
H 4.4581564707 -1.323943831 -1.2606330951
H 0.7669675203 -1.2550290672 0.5508588615
H 1.6766291032 -3.589368461 0.8126291667
H 2.1926667574 -3.2612035604 -0.8690016341
H 3.9142074347 -3.4427529278 1.6082472571
H 4.4898622232 -3.2919027575 -0.0819969728
H 4.8140729668 -1.050676952 1.5586696038
O -2.0025016868 1.5758949541 2.3855095409
C -1.0023071404 -2.9616883022 -1.0881580446
C -4.638704661 -0.8258853582 -0.8127074211
C -6.1629088479 -0.7993926008 -0.3992792301
C -6.29143581 0.6541854033 0.1896772912
C -4.8158816803 1.1892088146 0.0068418245
O -4.3740990178 0.560008121 -1.2585798082
H -4.2063313766 -1.7043967703 1.196179481
H -4.3955734193 0.4762646309 2.0929606973
H -0.4620574874 -3.3970832158 -0.2241331427
H -4.3666927028 -1.5534452567 -1.6015120642
H -6.8036631177 -0.9357855866 -1.2848991647
H -6.4065062085 -1.5812980839 0.3377395526
H -6.9967378253 1.2656011405 -0.3955444769
H -6.6085171424 0.6616271594 1.2447509146
H -4.7168458581 2.2901046485 -0.0535227262
H -0.3992569368 -2.1298647627 -1.5050722443
H -1.1474776049 -3.7396404234 -1.8600836863
H 7.3952106991 1.8895606695 1.022415511
H 5.9599541447 2.8396100236 0.4626507121
H 7.0691788724 2.0971170522 -0.745184739
H -0.7576313081 2.3643209838 -2.0565389205
H 0.7360437973 3.0799870078 -1.300554138
H -0.118006252 1.9352362047 0.9588798365
H -0.9760524004 3.4170473928 0.4048472924
$end

$rem
JOBTYPE                   OPT
METHOD                    B3LYP
DFT_D                     d3_op
BASIS                     STO-3G
GEOM_OPT_MAX_CYCLES       100
GEOM_OPT_TOL_GRADIENT     300
GEOM_OPT_TOL_DISPLACEMENT 1200
GEOM_OPT_TOL_ENERGY       100
SYMMETRY                  False
THRESH                    12
SCF_CONVERGENCE           8
MAX_SUB_FILE_NUM          128
MEM_STATIC                400
MEM_TOTAL                 4000
$end
--------------------------------------------------------------

   16   -1510.2876079976      5.59E-09 Convergence criterion met
 Total energy in the final basis set = -1510.28760800
   14   -1510.2681558343      6.21E-09 Convergence criterion met
 Total energy in the final basis set = -1510.26815583
   14   -1510.2861372435      4.15E-09 Convergence criterion met
 Total energy in the final basis set = -1510.28613724
   14   -1510.2882839625      4.59E-09 Convergence criterion met
 Total energy in the final basis set = -1510.28828396
   14   -1510.2897432235      3.58E-09 Convergence criterion met
 Total energy in the final basis set = -1510.28974322
   14   -1510.2907390742      5.17E-09 Convergence criterion met
 Total energy in the final basis set = -1510.29073907
   13   -1510.2923979637      6.45E-09 Convergence criterion met
 Total energy in the final basis set = -1510.29239796
   14   -1510.2935060349      7.57E-09 Convergence criterion met
   10   -1510.2988530448      8.77E-09 Convergence criterion met
 Total energy in the final basis set = -1510.29885304
    9   -1510.2988513734      4.69E-09 Convergence criterion met
 Total energy in the final basis set = -1510.29885137
   10   -1510.2988443095      3.74E-09 Convergence criterion met
 Total energy in the final basis set = -1510.29884431
   10   -1510.2988355918      8.25E-09 Convergence criterion met
 Total energy in the final basis set = -1510.29883559
   11   -1510.2988218501      7.68E-09 Convergence criterion met
 Total energy in the final basis set = -1510.29882185
    9   -1510.2988187203      6.60E-09 Convergence criterion met
 Total energy in the final basis set = -1510.29881872

             Standard Nuclear Orientation (Angstroms)
    I     Atom           X                Y                Z
 ----------------------------------------------------------------
    1      O      -0.9898642370    -0.9824778911     0.5976369477
    2      C      -2.0838786496    -1.1582256958     0.0079955025
    3      C      -3.4832890665    -0.7441347430     0.5914017378
    4      C      -3.4697178558     0.7282701198     1.1870454581
    5      C      -2.1116589420     1.4840953629     0.9890465588
    6      O      -1.8313655993     1.5500862481    -0.4180146726
    7      C      -0.5660111591     2.2804042472    -0.6604871241
    8      C       0.1153140082     1.6874701561    -1.9412594436
    9      O       0.7171324308     0.3550888649    -1.7023497767
   10      C       2.0280235202     0.4766188809    -1.1261599854
   11      C       2.5958973235    -0.9549531772    -0.8704626819
   12      C       4.0976500941    -0.9580669008    -0.3625168416
   13      C       4.7332152187     0.4756980249    -0.2210618516
   14      O       5.4544228963     1.0511186712    -1.0653894261
   15      O      -2.2402481877    -1.7701095027    -1.2616188685
   16      O       4.4431317378     0.9935817340     1.0827402459
   17      O       2.5741600208     1.5784883739    -0.9020395462
   18      C       4.9572712617     2.3757098973     1.1948771921
   19      C       1.8532251092    -1.6758316987     0.3430942043
   20      C       2.1876430282    -3.2169953585     0.2520916489
   21      C       3.6813719232    -3.2393299087     0.7463411524
   22      C       3.9313158256    -1.7046104801     1.0298294243
   23      O       2.6206535331    -1.2249689488     1.5231333673
   24      H       2.4813953630    -1.5371785514    -1.8028976288
   25      H       4.7352651260    -1.5299251006    -1.0599037694
   26      H       0.7699743550    -1.4189762214     0.4424782953
   27      H       1.5312138568    -3.7912798605     0.9252496372
   28      H       2.0722847829    -3.6092961991    -0.7709086144
   29      H       3.7915638523    -3.8237595994     1.6736623904
   30      H       4.3749199883    -3.6419399508    -0.0090780943
   31      H       4.7288227489    -1.4830720537     1.7644229757
   32      O      -1.3912695253     1.9894129726     1.8761960607
   33      C      -0.9176998801    -2.0931410198    -1.8557496791
   34      C      -4.6345459113    -0.6268520687    -0.4921484794
   35      C      -6.0204234267    -0.6114718926     0.2639590547
   36      C      -6.0195852385     0.8407436468     0.8703278274
   37      C      -4.6386392662     1.3935261321     0.3364869789
   38      O      -4.4982910849     0.7602617008    -0.9935192393
   39      H      -3.7482097529    -1.4761127115     1.3771962661
   40      H      -3.6954421447     0.7299420425     2.2676229971
   41      H      -0.4290946392    -2.9236831115    -1.3076488408
   42      H      -4.5474083605    -1.3512833132    -1.3240425892
   43      H      -6.8485003063    -0.7496070089    -0.4493394163
   44      H      -6.0839144382    -1.3962000430     1.0346634851
   45      H      -6.8530212840     1.4439555832     0.4767132350
   46      H      -6.0696943321     0.8436399394     1.9709893439
   47      H      -4.5732662798     2.4954514370     0.2503695393
   48      H      -0.2524815280    -1.1957406449    -1.8502083772
   49      H      -1.1289614742    -2.4152545070    -2.8914726277
   50      H       4.7344151424     2.7018442425     2.2274300909
   51      H       4.4493224375     3.0489287494     0.4742373594
   52      H       6.0509110908     2.4245072070     1.0151232557
   53      H      -0.6452090810     1.5381869412    -2.7344252291
   54      H       0.8949612432     2.3971392574    -2.2922669423
   55      H       0.1001807500     2.2018553585     0.2255420580
   56      H      -0.7844833897     3.3572725589    -0.8375315230
 ----------------------------------------------------------------

    9   -1510.2988168853      5.43E-09 Convergence criterion met
 Total energy in the final basis set = -1510.29881689
 Final energy is   -1510.29881688526
 **  OPTIMIZATION CONVERGED  **

                    Orbital Energies (a.u.)
 --------------------------------------------------------------

 Alpha MOs
 -- Occupied --
-18.949 -18.944 -18.930 -18.916 -18.891 -18.889 -18.881 -18.876
-18.876 -18.852 -10.110 -10.110 -10.099 -10.084 -10.083 -10.073
-10.062 -10.060 -10.051 -10.049 -10.048 -10.041 -10.038 -10.037
-10.035 -10.027 -10.022 -10.021 -10.012 -10.011  -1.025  -1.018
 -1.008  -0.993  -0.971  -0.958  -0.949  -0.942  -0.935  -0.918
 -0.765  -0.756  -0.729  -0.720  -0.713  -0.704  -0.693  -0.660
 -0.646  -0.618  -0.598  -0.579  -0.548  -0.539  -0.536  -0.529
 -0.517  -0.506  -0.494  -0.474  -0.470  -0.456  -0.444  -0.437
 -0.436  -0.432  -0.426  -0.415  -0.411  -0.406  -0.403  -0.398
 -0.395  -0.384  -0.373  -0.370  -0.361  -0.358  -0.353  -0.352
 -0.341  -0.334  -0.333  -0.330  -0.323  -0.322  -0.315  -0.312
 -0.306  -0.305  -0.300  -0.299  -0.295  -0.291  -0.277  -0.273
 -0.271  -0.262  -0.249  -0.248  -0.237  -0.235  -0.221  -0.193
 -0.182  -0.172  -0.163  -0.161  -0.158  -0.151  -0.145  -0.136
 -0.132

          Ground-State Mulliken Net Atomic Charges

     Atom                 Charge (a.u.)
  ----------------------------------------
      1 O                    -0.218420
      2 C                     0.222657
      3 C                    -0.077279
      4 C                    -0.078995
      5 C                     0.212008
      6 O                    -0.174436
      7 C                    -0.052010
      8 C                    -0.047341
      9 O                    -0.173048
     10 C                     0.219349
     11 C                    -0.080775
     12 C                    -0.081702
     13 C                     0.212215
     14 O                    -0.223346
     15 O                    -0.165576
     16 O                    -0.167665
     17 O                    -0.204136
     18 C                    -0.127051
     19 C                     0.005758
     20 C                    -0.145731
     21 C                    -0.144917
     22 C                     0.026662
     23 O                    -0.187938
     24 H                     0.082916
     25 H                     0.081009
     26 H                     0.113519
     27 H                     0.074832
     28 H                     0.067173
     29 H                     0.075901
     30 H                     0.070766
     31 H                     0.084851
     32 O                    -0.208578
     33 C                    -0.147005
     34 C                     0.023701
     35 C                    -0.144124
     36 C                    -0.144044
     37 C                     0.026132
     38 O                    -0.187102
     39 H                     0.085501
     40 H                     0.086193
     41 H                     0.080018
     42 H                     0.092706
     43 H                     0.077973
     44 H                     0.073246
     45 H                     0.078101
     46 H                     0.074343
     47 H                     0.082641
     48 H                     0.115133
     49 H                     0.084773
     50 H                     0.087861
     51 H                     0.091105
     52 H                     0.085092
     53 H                     0.097809
     54 H                     0.098296
     55 H                     0.105663
     56 H                     0.085317
  ----------------------------------------
  Sum of atomic charges =    -0.000000

                    Cartesian Multipole Moments
 -----------------------------------------------------------------
    Charge (ESU x 10^10)
                -0.0000
    Dipole Moment (Debye)
         X      -2.6585      Y      -1.6040      Z      -1.0549
       Tot       3.2792
    Quadrupole Moments (Debye-Ang)
        XX    -155.9759     XY      -4.0615     YY    -150.5488
        XZ      -2.7480     YZ       1.0307     ZZ    -162.8573

 Total job time:  99.52s(wall), 4749.30s(cpu)
        *  Thank you very much for using Q-Chem.  Have a nice day.  *
