 Q-Chem 5.0, Q-Chem, Inc., Pleasanton, CA (2017)
 Q-Chem 5.0.1 for Intel X86 EM64T Linux

User input:
--------------------------------------------------------------
$molecule
0  1
O -3.94934 -3.66094 2.70899
C -3.26408 -4.56952 2.26188
C -3.36658 -6.02376 2.66595
C -4.66085 -6.46883 3.3664
C -5.77954 -5.45241 3.42551
O -6.30849 -5.27158 2.17934
C -7.41322 -4.36133 2.16316
C -7.6602 -3.85967 0.74419
O -6.68003 -2.86858 0.39794
C -6.91142 -1.6244 0.8854
C -5.83258 -0.63597 0.51155
C -6.24039 0.84035 0.6231
C -7.50348 1.11911 1.41278
O -8.48825 0.39582 1.45324
O -2.20103 -4.28207 1.46651
O -7.6283 2.37548 1.9215
O -7.41397 -1.54749 1.99685
C -8.73535 2.83757 2.60258
C -4.57744 -0.63867 1.39504
C -3.39447 -0.04151 0.62605
C -3.77535 1.41697 0.6049
C -5.04824 1.37177 1.44993
O -4.82345 0.33677 2.37158
H -5.53601 -0.87779 -0.53486
H -6.33176 1.37122 -0.34985
H -4.33163 -1.63454 1.76477
H -2.49116 -0.15078 1.26625
H -3.19696 -0.4854 -0.37299
H -2.98144 1.99726 1.12644
H -3.96201 1.84744 -0.40284
H -5.22219 2.37737 1.88987
O -6.25799 -5.02734 4.4707
C -1.89213 -3.03968 0.97126
C -3.40377 -6.98102 1.44729
C -2.91197 -8.36737 1.86393
C -4.07958 -8.84116 2.70569
C -5.05616 -7.67806 2.50036
O -4.76824 -7.21905 1.20253
H -2.448 -6.25086 3.25264
H -4.44858 -6.75696 4.42039
H -1.73229 -2.32672 1.80685
H -2.81204 -6.61882 0.5787
H -2.86966 -8.98759 0.93968
H -1.92086 -8.39498 2.3656
H -4.48088 -9.77655 2.25627
H -3.85466 -9.00171 3.78236
H -6.10358 -8.00216 2.68767
H -2.70719 -2.7002 0.3024
H -0.95844 -3.10798 0.37663
H -8.56229 3.89036 2.90606
H -8.90516 2.22557 3.51424
H -9.63295 2.79647 1.94929
H -7.60707 -4.71507 0.03747
H -8.68256 -3.42412 0.65622
H -7.33311 -3.56538 2.92506
H -8.30809 -4.95546 2.45183
$end

$opt
CONSTRAINT
tors           1           2           3           4     +18.549
tors           3           4           5           6     +70.613
tors           4           5           6           7    +177.574
tors           5           6           7           8    +161.734
tors           6           7           8           9     -76.729
tors           7           8           9          10     -79.716
tors           8           9          10          11    +178.799
tors           9          10          11          12    +160.897
tors          11          12          13          14     -34.366
ENDCONSTRAINT
$end

$rem
JOBTYPE                   OPT
METHOD                    B3LYP
DFT_D                     d3_op
BASIS                     STO-3G
GEOM_OPT_MAX_CYCLES       100
GEOM_OPT_TOL_GRADIENT     300
GEOM_OPT_TOL_DISPLACEMENT 1200
GEOM_OPT_TOL_ENERGY       100
SYMMETRY                  False
THRESH                    12
SCF_CONVERGENCE           8
MAX_SUB_FILE_NUM          128
MEM_STATIC                400
MEM_TOTAL                 4000
$end
--------------------------------------------------------------

   16   -1510.1225946817      2.29E-09 Convergence criterion met
 Total energy in the final basis set = -1510.12259468
   13   -1510.1973672553      9.89E-09 Convergence criterion met
 Total energy in the final basis set = -1510.19736726
   14   -1510.2375962671      2.85E-09 Convergence criterion met
 Total energy in the final basis set = -1510.23759627
   14   -1510.2562854968      4.91E-09 Convergence criterion met
 Total energy in the final basis set = -1510.25628550
   14   -1510.2658204478      3.05E-09 Convergence criterion met
 Total energy in the final basis set = -1510.26582045
   13   -1510.2742832704      3.48E-09 Convergence criterion met
 Total energy in the final basis set = -1510.27428327
   13   -1510.2790567421      3.59E-09 Convergence criterion met
 Total energy in the final basis set = -1510.27905674
   13   -1510.2817075031      2.82E-09 Convergence criterion met
   10   -1510.2875448718      8.73E-09 Convergence criterion met
 Total energy in the final basis set = -1510.28754487
   11   -1510.2875803892      5.29E-09 Convergence criterion met
 Total energy in the final basis set = -1510.28758039
    9   -1510.2875991565      7.71E-09 Convergence criterion met
 Total energy in the final basis set = -1510.28759916
    9   -1510.2876049596      9.25E-09 Convergence criterion met
 Total energy in the final basis set = -1510.28760496
    9   -1510.2876095126      9.02E-09 Convergence criterion met
 Total energy in the final basis set = -1510.28760951
    9   -1510.2876161173      2.71E-09 Convergence criterion met
 Total energy in the final basis set = -1510.28761612

             Standard Nuclear Orientation (Angstroms)
    I     Atom           X                Y                Z
 ----------------------------------------------------------------
    1      O      -1.2259146183    -0.9266871789     0.6509949141
    2      C      -2.2911008383    -1.4120883203     0.2043553603
    3      C      -3.7652426883    -0.9576628293     0.5094607308
    4      C      -3.8962726686     0.5043292581     1.1089029011
    5      C      -2.5335815508     1.2556574168     1.3001776696
    6      O      -2.0149927326     1.5923116280     0.0098532719
    7      C      -0.7552566805     2.3555231692     0.1523747272
    8      C      -0.0236308956     2.2721775289    -1.2310399936
    9      O       0.6084468954     0.9384198527    -1.3840077345
   10      C       1.8441704251     0.8921251760    -0.6603679202
   11      C       2.4405179874    -0.5459705641    -0.8378367102
   12      C       3.9853607860    -0.6443144127    -0.5259165434
   13      C       4.7729422923     0.7122054540    -0.6230891556
   14      O       4.5639338004     1.6566322278    -1.4141502479
   15      O      -2.3586247547    -2.5087304718    -0.7071463676
   16      O       5.8399844265     0.6963586554     0.3326712487
   17      O       2.2796874776     1.8266568979     0.0452817606
   18      C       6.6045262820     1.9616822703     0.2530302512
   19      C       1.8530902276    -1.4202405978     0.3613284380
   20      C       2.2891199290    -2.9298060489     0.1773984348
   21      C       3.7849693999    -2.8904867048     0.6635304034
   22      C       3.9717416946    -1.3428441056     0.9032756686
   23      O       2.6748952590    -0.9464865689     1.4998646314
   24      H       2.1730152050    -0.9420052890    -1.8327651055
   25      H       4.4581564707    -1.3239438310    -1.2606330951
   26      H       0.7669675203    -1.2550290672     0.5508588615
   27      H       1.6766291032    -3.5893684610     0.8126291667
   28      H       2.1926667574    -3.2612035604    -0.8690016341
   29      H       3.9142074347    -3.4427529278     1.6082472571
   30      H       4.4898622232    -3.2919027575    -0.0819969728
   31      H       4.8140729668    -1.0506769520     1.5586696038
   32      O      -2.0025016868     1.5758949541     2.3855095409
   33      C      -1.0023071404    -2.9616883022    -1.0881580446
   34      C      -4.6387046610    -0.8258853582    -0.8127074211
   35      C      -6.1629088479    -0.7993926008    -0.3992792301
   36      C      -6.2914358100     0.6541854033     0.1896772912
   37      C      -4.8158816803     1.1892088146     0.0068418245
   38      O      -4.3740990178     0.5600081210    -1.2585798082
   39      H      -4.2063313766    -1.7043967703     1.1961794810
   40      H      -4.3955734193     0.4762646309     2.0929606973
   41      H      -0.4620574874    -3.3970832158    -0.2241331427
   42      H      -4.3666927028    -1.5534452567    -1.6015120642
   43      H      -6.8036631177    -0.9357855866    -1.2848991647
   44      H      -6.4065062085    -1.5812980839     0.3377395526
   45      H      -6.9967378253     1.2656011405    -0.3955444769
   46      H      -6.6085171424     0.6616271594     1.2447509146
   47      H      -4.7168458581     2.2901046485    -0.0535227262
   48      H      -0.3992569368    -2.1298647627    -1.5050722443
   49      H      -1.1474776049    -3.7396404234    -1.8600836863
   50      H       7.3952106991     1.8895606695     1.0224155110
   51      H       5.9599541447     2.8396100236     0.4626507121
   52      H       7.0691788724     2.0971170522    -0.7451847390
   53      H      -0.7576313081     2.3643209838    -2.0565389205
   54      H       0.7360437973     3.0799870078    -1.3005541380
   55      H      -0.1180062520     1.9352362047     0.9588798365
   56      H      -0.9760524004     3.4170473928     0.4048472924
 ----------------------------------------------------------------

    8   -1510.2876099620      9.38E-09 Convergence criterion met
 Total energy in the final basis set = -1510.28760996
 Final energy is   -1510.28760996203
 **  OPTIMIZATION CONVERGED  **

                    Orbital Energies (a.u.)
 --------------------------------------------------------------

 Alpha MOs
 -- Occupied --
-18.946 -18.927 -18.923 -18.921 -18.891 -18.888 -18.878 -18.866
-18.865 -18.863 -10.111 -10.092 -10.091 -10.090 -10.071 -10.067
-10.061 -10.060 -10.060 -10.058 -10.050 -10.044 -10.042 -10.034
-10.031 -10.030 -10.021 -10.020 -10.016 -10.014  -1.022  -1.007
 -1.003  -0.998  -0.971  -0.961  -0.947  -0.932  -0.927  -0.922
 -0.764  -0.756  -0.725  -0.719  -0.713  -0.702  -0.690  -0.669
 -0.655  -0.611  -0.597  -0.574  -0.546  -0.538  -0.537  -0.531
 -0.516  -0.505  -0.487  -0.469  -0.464  -0.454  -0.447  -0.440
 -0.434  -0.429  -0.419  -0.419  -0.414  -0.407  -0.404  -0.402
 -0.390  -0.385  -0.369  -0.365  -0.361  -0.356  -0.350  -0.344
 -0.340  -0.334  -0.333  -0.330  -0.325  -0.317  -0.315  -0.313
 -0.306  -0.305  -0.301  -0.297  -0.289  -0.285  -0.282  -0.274
 -0.266  -0.261  -0.249  -0.243  -0.239  -0.235  -0.224  -0.188
 -0.173  -0.168  -0.165  -0.161  -0.150  -0.145  -0.142  -0.139
 -0.135

          Ground-State Mulliken Net Atomic Charges

     Atom                 Charge (a.u.)
  ----------------------------------------
      1 O                    -0.207512
      2 C                     0.220259
      3 C                    -0.077006
      4 C                    -0.081467
      5 C                     0.212333
      6 O                    -0.173679
      7 C                    -0.048449
      8 C                    -0.047370
      9 O                    -0.174399
     10 C                     0.213935
     11 C                    -0.078960
     12 C                    -0.080126
     13 C                     0.213774
     14 O                    -0.214673
     15 O                    -0.168401
     16 O                    -0.171656
     17 O                    -0.212458
     18 C                    -0.127717
     19 C                     0.011992
     20 C                    -0.146537
     21 C                    -0.142777
     22 C                     0.023859
     23 O                    -0.190365
     24 H                     0.082026
     25 H                     0.081013
     26 H                     0.102686
     27 H                     0.072838
     28 H                     0.068929
     29 H                     0.076625
     30 H                     0.071263
     31 H                     0.091843
     32 O                    -0.214797
     33 C                    -0.129454
     34 C                     0.024447
     35 C                    -0.143986
     36 C                    -0.144182
     37 C                     0.026782
     38 O                    -0.187366
     39 H                     0.085960
     40 H                     0.084030
     41 H                     0.089557
     42 H                     0.090357
     43 H                     0.078081
     44 H                     0.073280
     45 H                     0.077773
     46 H                     0.073979
     47 H                     0.084020
     48 H                     0.095413
     49 H                     0.092187
     50 H                     0.088969
     51 H                     0.092758
     52 H                     0.086710
     53 H                     0.095432
     54 H                     0.094626
     55 H                     0.103773
     56 H                     0.081830
  ----------------------------------------
  Sum of atomic charges =    -0.000000

                    Cartesian Multipole Moments
 -----------------------------------------------------------------
    Charge (ESU x 10^10)
                -0.0000
    Dipole Moment (Debye)
         X      -1.3254      Y      -2.5877      Z      -1.4210
       Tot       3.2360
    Quadrupole Moments (Debye-Ang)
        XX    -138.5212     XY      -1.7013     YY    -150.0657
        XZ      -4.2967     YZ       1.1794     ZZ    -167.7251

 Total job time:  64.68s(wall), 3082.86s(cpu)
        *  Thank you very much for using Q-Chem.  Have a nice day.  *
