 Q-Chem 5.0, Q-Chem, Inc., Pleasanton, CA (2017)
 Q-Chem 5.0.1 for Intel X86 EM64T Linux

User input:
--------------------------------------------------------------
$molecule
0  1
O -3.94934 -3.66094 2.70899
C -3.26408 -4.56952 2.26188
C -3.36658 -6.02376 2.66595
C -2.1637 -6.92746 2.34928
C -0.92277 -6.23941 1.8251
O -0.80904 -6.44898 0.48027
C -1.74003 -7.41456 -0.0199
C -0.99707 -8.54656 -0.72183
O -1.73262 -8.97029 -1.88041
C -1.05523 -8.91401 -3.05392
C -1.91827 -8.46937 -4.2107
C -1.63361 -9.18072 -5.54157
C -0.80743 -10.4479 -5.45002
O -0.47895 -11.14975 -6.39557
O -2.4767 -4.25962 1.19731
O -0.53559 -11.014 -4.24202
O 0.16526 -8.80221 -3.12095
C 0.15308 -12.19404 -4.03795
C -3.43539 -8.75995 -4.08089
C -4.22069 -7.79735 -4.97197
C -3.87204 -8.3307 -6.34626
C -3.05769 -9.56973 -5.96102
O -3.6221 -9.98831 -4.74147
H -1.7719 -7.36877 -4.29725
H -1.1057 -8.51183 -6.25629
H -3.83 -8.69833 -3.04451
H -5.30146 -7.99014 -4.78316
H -4.01144 -6.71754 -4.81372
H -4.81516 -8.62106 -6.8603
H -3.28309 -7.64063 -6.98874
H -3.06761 -10.31638 -6.78564
O -0.20872 -5.45625 2.43609
C -2.32252 -2.99474 0.66803
C -3.41996 -6.08292 4.20599
C -3.95327 -7.43895 4.67557
C -2.72272 -8.2856 4.48744
C -1.78038 -7.26226 3.8372
O -2.06825 -6.09575 4.56122
H -4.32223 -6.39852 2.23914
H -2.32743 -8.00503 2.11854
H -1.90486 -2.30835 1.43528
H -4.03361 -5.27101 4.65486
H -4.20202 -7.41333 5.76005
H -4.84333 -7.75737 4.09078
H -2.30095 -8.51885 5.49197
H -2.87639 -9.23766 3.93544
H -0.73565 -7.63742 3.94381
H -3.29951 -2.60792 0.30754
H -1.61946 -3.04342 -0.18858
H 0.21963 -12.39112 -2.94838
H 1.18168 -12.11161 -4.4497
H -0.38105 -13.03932 -4.52205
H 0.03431 -8.1924 -0.94437
H -0.89486 -9.39359 -0.0121
H -2.07714 -6.82576 -0.90134
H -2.81741 -7.56179 0.22662
$end

$opt
CONSTRAINT
tors           1           2           3           4    -161.053
tors           3           4           5           6    -104.211
tors           4           5           6           7      -9.474
tors           5           6           7           8    -123.158
tors           6           7           8           9    -142.105
tors           7           8           9          10    +123.158
tors           8           9          10          11    -142.105
tors           9          10          11          12    -142.105
tors          11          12          13          14    -180.000
ENDCONSTRAINT
$end

$rem
JOBTYPE                   OPT
METHOD                    B3LYP
DFT_D                     d3_op
BASIS                     STO-3G
GEOM_OPT_MAX_CYCLES       100
GEOM_OPT_TOL_GRADIENT     300
GEOM_OPT_TOL_DISPLACEMENT 1200
GEOM_OPT_TOL_ENERGY       100
SYMMETRY                  False
THRESH                    12
SCF_CONVERGENCE           8
MAX_SUB_FILE_NUM          128
MEM_STATIC                400
MEM_TOTAL                 4000
$end
--------------------------------------------------------------

   15   -1510.0477219089      9.77E-09 Convergence criterion met
 Total energy in the final basis set = -1510.04772191
   14   -1510.1285786390      8.16E-09 Convergence criterion met
 Total energy in the final basis set = -1510.12857864
   14   -1510.1764100452      5.68E-09 Convergence criterion met
 Total energy in the final basis set = -1510.17641005
   14   -1510.2054530169      5.77E-09 Convergence criterion met
 Total energy in the final basis set = -1510.20545302
   13   -1510.2226684984      9.00E-09 Convergence criterion met
 Total energy in the final basis set = -1510.22266850
   13   -1510.2336318196      6.72E-09 Convergence criterion met
 Total energy in the final basis set = -1510.23363182
   13   -1510.2408435897      4.84E-09 Convergence criterion met
 Total energy in the final basis set = -1510.24084359
   13   -1510.2453468158      3.49E-09 Convergence criterion met
   12   -1510.2497191443      3.58E-09 Convergence criterion met
 Total energy in the final basis set = -1510.24971914
   12   -1510.2497659878      2.73E-09 Convergence criterion met
 Total energy in the final basis set = -1510.24976599
   10   -1510.2497857174      7.88E-09 Convergence criterion met
 Total energy in the final basis set = -1510.24978572
    9   -1510.2497996662      7.43E-09 Convergence criterion met
 Total energy in the final basis set = -1510.24979967
    9   -1510.2498093253      8.49E-09 Convergence criterion met
 Total energy in the final basis set = -1510.24980933
   10   -1510.2498138091      3.80E-09 Convergence criterion met
 Total energy in the final basis set = -1510.24981381

             Standard Nuclear Orientation (Angstroms)
    I     Atom           X                Y                Z
 ----------------------------------------------------------------
    1      O       5.3485571007    -2.6586312146    -0.1928138336
    2      C       4.5021644251    -1.7408084041    -0.1369108838
    3      C       4.5490797777    -0.3841374483    -0.9259896947
    4      C       3.6534136328     0.8086277584    -0.3831061057
    5      C       2.9917653579     0.5587896838     1.0381474243
    6      O       1.5936462321     0.2348000588     1.1870877894
    7      C       0.7037604496     0.3371048841     0.0144454691
    8      C      -0.4779419489     1.3244707814     0.3666798863
    9      O      -1.7203725858     0.8016137380    -0.2454478196
   10      C      -2.7389884367     0.6029747732     0.7571861173
   11      C      -3.5517675652    -0.7024800658     0.4260639057
   12      C      -5.1032501713    -0.6362212770     0.7154690120
   13      C      -5.7404988531     0.7991433171     0.6102937698
   14      O      -6.9428351450     1.0871539811     0.7969162379
   15      O       3.2696388245    -1.8327377767     0.5783344616
   16      O      -4.7908779373     1.7103984130     0.0493482308
   17      O      -2.7617437538     1.2187351612     1.8449825422
   18      C      -5.3986910709     3.0463829525    -0.1352729334
   19      C      -3.5273899925    -1.2355908722    -1.0717236531
   20      C      -3.6633769377    -2.8049672863    -0.9959923799
   21      C      -5.1515271598    -2.9402016267    -0.4989322663
   22      C      -5.6397424228    -1.4366630503    -0.5540183362
   23      O      -4.8338345553    -0.8293698277    -1.6408901342
   24      H      -3.1020414292    -1.4691693187     1.0866051910
   25      H      -5.3880413260    -1.1026733475     1.6747611344
   26      H      -2.6907601881    -0.8433172776    -1.6809376898
   27      H      -3.5323627333    -3.2499281337    -1.9955523818
   28      H      -2.9367186477    -3.2617935756    -0.3053201842
   29      H      -5.7531696266    -3.5675273948    -1.1754628405
   30      H      -5.2216497758    -3.3543102948     0.5197746886
   31      H      -6.7219335610    -1.3002565530    -0.7467471161
   32      O       3.6416064312     0.6512923273     2.1026673208
   33      C       3.2008101710    -3.0921951623     1.3517489844
   34      C       5.9980753428     0.2642544466    -0.8900637531
   35      C       6.1266978906     1.2508446308    -2.1150312747
   36      C       5.2164726196     2.4415102952    -1.6343439871
   37      C       4.7699519321     1.9318023464    -0.2063023782
   38      O       5.9426496626     1.1704109505     0.2783027085
   39      H       4.2629936558    -0.6194953946    -1.9689758208
   40      H       2.9159573642     1.1120965845    -1.1415945587
   41      H       4.0218071163    -3.1573354182     2.0941989692
   42      H       6.8149328259    -0.4755288164    -0.7790392976
   43      H       7.1733888136     1.5689982908    -2.2440728787
   44      H       5.7759545097     0.7970455924    -3.0556417260
   45      H       5.7890758656     3.3783585723    -1.5453672926
   46      H       4.3569857792     2.6174366207    -2.3011769295
   47      H       4.5027109573     2.7262718219     0.5167429671
   48      H       3.2503235756    -3.9789723818     0.6869830797
   49      H       2.2278296643    -3.0706906817     1.8760829297
   50      H      -4.6161343420     3.6739403941    -0.5997016197
   51      H      -5.7052763310     3.4906972097     0.8336491204
   52      H      -6.2850097015     2.9984903649    -0.8003061975
   53      H      -0.5993880545     1.3977450984     1.4693792881
   54      H      -0.2676618679     2.3415498925    -0.0276858218
   55      H       0.2681150008    -0.6708077805    -0.1698996762
   56      H       1.2089497843     0.6580670873    -0.9139843452
 ----------------------------------------------------------------

    9   -1510.2498143788      7.04E-09 Convergence criterion met
 Total energy in the final basis set = -1510.24981438
 Final energy is   -1510.24981437879
 **  OPTIMIZATION CONVERGED  **

                    Orbital Energies (a.u.)
 --------------------------------------------------------------

 Alpha MOs
 -- Occupied --
-18.945 -18.940 -18.925 -18.923 -18.890 -18.889 -18.881 -18.874
-18.873 -18.864 -10.107 -10.103 -10.101 -10.099 -10.077 -10.070
-10.070 -10.066 -10.062 -10.062 -10.062 -10.060 -10.044 -10.041
-10.041 -10.039 -10.024 -10.023 -10.023 -10.022  -1.020  -1.015
 -1.006  -0.998  -0.973  -0.972  -0.943  -0.938  -0.935  -0.928
 -0.766  -0.765  -0.726  -0.725  -0.715  -0.707  -0.699  -0.667
 -0.663  -0.613  -0.605  -0.588  -0.550  -0.547  -0.542  -0.540
 -0.516  -0.513  -0.492  -0.483  -0.470  -0.466  -0.457  -0.440
 -0.438  -0.434  -0.430  -0.419  -0.416  -0.414  -0.411  -0.404
 -0.397  -0.391  -0.381  -0.373  -0.370  -0.358  -0.353  -0.352
 -0.341  -0.339  -0.333  -0.333  -0.331  -0.324  -0.316  -0.312
 -0.311  -0.309  -0.307  -0.301  -0.298  -0.294  -0.292  -0.280
 -0.276  -0.256  -0.249  -0.243  -0.237  -0.235  -0.235  -0.185
 -0.181  -0.174  -0.161  -0.159  -0.158  -0.151  -0.148  -0.144
 -0.140

          Ground-State Mulliken Net Atomic Charges

     Atom                 Charge (a.u.)
  ----------------------------------------
      1 O                    -0.211323
      2 C                     0.212241
      3 C                    -0.079167
      4 C                    -0.083711
      5 C                     0.214958
      6 O                    -0.172663
      7 C                    -0.047768
      8 C                    -0.052848
      9 O                    -0.184706
     10 C                     0.223581
     11 C                    -0.078472
     12 C                    -0.076776
     13 C                     0.213758
     14 O                    -0.214551
     15 O                    -0.167982
     16 O                    -0.164689
     17 O                    -0.214635
     18 C                    -0.125173
     19 C                     0.023069
     20 C                    -0.142335
     21 C                    -0.145304
     22 C                     0.024151
     23 O                    -0.191557
     24 H                     0.083026
     25 H                     0.087556
     26 H                     0.091329
     27 H                     0.077559
     28 H                     0.072161
     29 H                     0.078825
     30 H                     0.074326
     31 H                     0.085841
     32 O                    -0.205271
     33 C                    -0.125734
     34 C                     0.025138
     35 C                    -0.143647
     36 C                    -0.145241
     37 C                     0.027408
     38 O                    -0.184067
     39 H                     0.083142
     40 H                     0.074114
     41 H                     0.094976
     42 H                     0.090333
     43 H                     0.079434
     44 H                     0.072712
     45 H                     0.079104
     46 H                     0.070947
     47 H                     0.086169
     48 H                     0.089466
     49 H                     0.095260
     50 H                     0.092561
     51 H                     0.091163
     52 H                     0.092273
     53 H                     0.102952
     54 H                     0.080456
     55 H                     0.086072
     56 H                     0.081563
  ----------------------------------------
  Sum of atomic charges =    -0.000000

                    Cartesian Multipole Moments
 -----------------------------------------------------------------
    Charge (ESU x 10^10)
                 0.0000
    Dipole Moment (Debye)
         X      -0.5875      Y      -0.9106      Z      -3.3472
       Tot       3.5182
    Quadrupole Moments (Debye-Ang)
        XX    -184.6272     XY       8.9404     YY    -148.1861
        XZ     -12.2302     YZ      -8.0365     ZZ    -166.5821

 Total job time:  58.06s(wall), 2757.61s(cpu)
        *  Thank you very much for using Q-Chem.  Have a nice day.  *
