 Q-Chem 5.0, Q-Chem, Inc., Pleasanton, CA (2017)
 Q-Chem 5.0.1 for Intel X86 EM64T Linux

User input:
--------------------------------------------------------------
$molecule
0  1
O 5.3485571007 -2.6586312146 -0.1928138336
C 4.5021644251 -1.7408084041 -0.1369108838
C 4.5490797777 -0.3841374483 -0.9259896947
C 3.6534136328 0.8086277584 -0.3831061057
C 2.9917653579 0.5587896838 1.0381474243
O 1.5936462321 0.2348000588 1.1870877894
C 0.7037604496 0.3371048841 0.0144454691
C -0.4779419489 1.3244707814 0.3666798863
O -1.7203725858 0.801613738 -0.2454478196
C -2.7389884367 0.6029747732 0.7571861173
C -3.5517675652 -0.7024800658 0.4260639057
C -5.1032501713 -0.636221277 0.715469012
C -5.7404988531 0.7991433171 0.6102937698
O -6.942835145 1.0871539811 0.7969162379
O 3.2696388245 -1.8327377767 0.5783344616
O -4.7908779373 1.710398413 0.0493482308
O -2.7617437538 1.2187351612 1.8449825422
C -5.3986910709 3.0463829525 -0.1352729334
C -3.5273899925 -1.2355908722 -1.0717236531
C -3.6633769377 -2.8049672863 -0.9959923799
C -5.1515271598 -2.9402016267 -0.4989322663
C -5.6397424228 -1.4366630503 -0.5540183362
O -4.8338345553 -0.8293698277 -1.6408901342
H -3.1020414292 -1.4691693187 1.086605191
H -5.388041326 -1.1026733475 1.6747611344
H -2.6907601881 -0.8433172776 -1.6809376898
H -3.5323627333 -3.2499281337 -1.9955523818
H -2.9367186477 -3.2617935756 -0.3053201842
H -5.7531696266 -3.5675273948 -1.1754628405
H -5.2216497758 -3.3543102948 0.5197746886
H -6.721933561 -1.300256553 -0.7467471161
O 3.6416064312 0.6512923273 2.1026673208
C 3.200810171 -3.0921951623 1.3517489844
C 5.9980753428 0.2642544466 -0.8900637531
C 6.1266978906 1.2508446308 -2.1150312747
C 5.2164726196 2.4415102952 -1.6343439871
C 4.7699519321 1.9318023464 -0.2063023782
O 5.9426496626 1.1704109505 0.2783027085
H 4.2629936558 -0.6194953946 -1.9689758208
H 2.9159573642 1.1120965845 -1.1415945587
H 4.0218071163 -3.1573354182 2.0941989692
H 6.8149328259 -0.4755288164 -0.7790392976
H 7.1733888136 1.5689982908 -2.2440728787
H 5.7759545097 0.7970455924 -3.055641726
H 5.7890758656 3.3783585723 -1.5453672926
H 4.3569857792 2.6174366207 -2.3011769295
H 4.5027109573 2.7262718219 0.5167429671
H 3.2503235756 -3.9789723818 0.6869830797
H 2.2278296643 -3.0706906817 1.8760829297
H -4.616134342 3.6739403941 -0.5997016197
H -5.705276331 3.4906972097 0.8336491204
H -6.2850097015 2.9984903649 -0.8003061975
H -0.5993880545 1.3977450984 1.4693792881
H -0.2676618679 2.3415498925 -0.0276858218
H 0.2681150008 -0.6708077805 -0.1698996762
H 1.2089497843 0.6580670873 -0.9139843452
$end

$rem
JOBTYPE                   OPT
METHOD                    B3LYP
DFT_D                     d3_op
BASIS                     STO-3G
GEOM_OPT_MAX_CYCLES       100
GEOM_OPT_TOL_GRADIENT     300
GEOM_OPT_TOL_DISPLACEMENT 1200
GEOM_OPT_TOL_ENERGY       100
SYMMETRY                  False
THRESH                    12
SCF_CONVERGENCE           8
MAX_SUB_FILE_NUM          128
MEM_STATIC                400
MEM_TOTAL                 4000
$end
--------------------------------------------------------------

   16   -1510.2498447094      7.15E-09 Convergence criterion met
 Total energy in the final basis set = -1510.24984471
   14   -1510.2548786430      2.28E-09 Convergence criterion met
 Total energy in the final basis set = -1510.25487864
   14   -1510.2586942756      5.96E-09 Convergence criterion met
 Total energy in the final basis set = -1510.25869428
   14   -1510.2617416197      8.14E-09 Convergence criterion met
 Total energy in the final basis set = -1510.26174162
   14   -1510.2645709931      6.29E-09 Convergence criterion met
 Total energy in the final basis set = -1510.26457099
   14   -1510.2666708945      6.47E-09 Convergence criterion met
 Total energy in the final basis set = -1510.26667089
   14   -1510.2682996334      3.16E-09 Convergence criterion met
 Total energy in the final basis set = -1510.26829963
   13   -1510.2694144652      8.60E-09 Convergence criterion met
   13   -1510.2735882855      7.56E-09 Convergence criterion met
 Total energy in the final basis set = -1510.27358829
   13   -1510.2735756745      2.74E-09 Convergence criterion met
 Total energy in the final basis set = -1510.27357567
   12   -1510.2735850305      2.82E-09 Convergence criterion met
 Total energy in the final basis set = -1510.27358503
   11   -1510.2735839751      3.86E-09 Convergence criterion met
 Total energy in the final basis set = -1510.27358398
   11   -1510.2735802499      5.71E-09 Convergence criterion met
 Total energy in the final basis set = -1510.27358025
   10   -1510.2735842478      6.92E-09 Convergence criterion met
 Total energy in the final basis set = -1510.27358425

             Standard Nuclear Orientation (Angstroms)
    I     Atom           X                Y                Z
 ----------------------------------------------------------------
    1      O       5.7212656050    -1.4852392184     0.3190508528
    2      C       4.4825141012    -1.3409503129     0.2615687955
    3      C       3.6600810912    -0.5002028474    -0.7802443920
    4      C       2.8820734099     0.7260803071    -0.1302812907
    5      C       3.0408830278     0.8213165473     1.4416343611
    6      O       2.0660082687     0.2202204908     2.3150167947
    7      C       0.9571502982    -0.4997462966     1.6559561805
    8      C      -0.2333185482     0.4714878467     1.2989081537
    9      O      -1.2128935181    -0.2446099418     0.4499197329
   10      C      -2.4296501969    -0.4678044278     1.1753350122
   11      C      -3.4798193367    -1.1867860951     0.2505391136
   12      C      -4.6946723454    -0.2417521703    -0.1496388021
   13      C      -4.6198402091     1.1968496200     0.4595319089
   14      O      -5.5338176968     1.8232622591     1.0371281428
   15      O       3.5555919539    -1.9485335959     1.1678156921
   16      O      -3.3032316403     1.7173094764     0.2347093405
   17      O      -2.5957369608    -0.1573594241     2.3761205753
   18      C      -3.1566750226     3.0406784609     0.8810164962
   19      C      -2.9135017368    -1.5673204122    -1.1797904866
   20      C      -3.9170806633    -2.5796861580    -1.8626667859
   21      C      -5.0896170516    -1.6166324531    -2.2785953282
   22      C      -4.5501810970    -0.2342634469    -1.7372058931
   23      O      -3.0907601947    -0.3195820273    -1.9589548531
   24      H      -3.8495031161    -2.0745342581     0.7957700429
   25      H      -5.6602956852    -0.6797821374     0.1577884764
   26      H      -1.8514497560    -1.8769306990    -1.1815041193
   27      H      -3.4500469715    -3.0519021136    -2.7416179258
   28      H      -4.2436904738    -3.3712550372    -1.1691520351
   29      H      -5.2138867220    -1.5789310478    -3.3725927713
   30      H      -6.0529534002    -1.8930115231    -1.8215539148
   31      H      -4.9680775550     0.6632609454    -2.2332469100
   32      O       3.9960432580     1.4068080976     1.9976183453
   33      C       4.2793505034    -2.6821075290     2.2300147217
   34      C       4.6391862498     0.2513901362    -1.7708624145
   35      C       3.8041739789     0.8168068467    -2.9853407214
   36      C       3.0871579772     2.0475641035    -2.3150531613
   37      C       3.6260041019     1.9432444614    -0.8340111882
   38      O       5.0148930486     1.4627946481    -1.0057676780
   39      H       2.9608945269    -1.1752288953    -1.3076205386
   40      H       1.8213203439     0.7090256993    -0.4245856026
   41      H       4.8696480735    -1.9905303846     2.8653648871
   42      H       5.5419420778    -0.3329821324    -2.0346338894
   43      H       4.4751129912     1.1339134859    -3.7994081104
   44      H       3.0929920060     0.0753115820    -3.3841083652
   45      H       3.4063715427     2.9976497701    -2.7720115915
   46      H       1.9885228600     1.9818311153    -2.3672236079
   47      H       3.6131500030     2.8845209328    -0.2514156502
   48      H       4.9629506762    -3.4455300608     1.8059734007
   49      H       3.5034256330    -3.1749740572     2.8440741973
   50      H      -2.1574381084     3.4131025237     0.5898245855
   51      H      -3.2134540576     2.9561544970     1.9858755801
   52      H      -3.9357825039     3.7515356789     0.5390275336
   53      H      -0.7378803867     0.8143691328     2.2272412269
   54      H       0.1316834802     1.3471916155     0.7236355803
   55      H       0.6042878398    -1.2401714243     2.4032493704
   56      H       1.2909615332    -1.0579231233     0.7579165533
 ----------------------------------------------------------------

    9   -1510.2735835933      4.75E-09 Convergence criterion met
 Total energy in the final basis set = -1510.27358359
 Final energy is   -1510.27358359328
 **  OPTIMIZATION CONVERGED  **

                    Orbital Energies (a.u.)
 --------------------------------------------------------------

 Alpha MOs
 -- Occupied --
-18.941 -18.939 -18.937 -18.932 -18.894 -18.888 -18.882 -18.882
-18.877 -18.873 -10.107 -10.104 -10.102 -10.099 -10.076 -10.072
-10.069 -10.067 -10.066 -10.064 -10.060 -10.059 -10.045 -10.043
-10.042 -10.039 -10.026 -10.025 -10.021 -10.020  -1.021  -1.016
 -1.012  -1.003  -0.976  -0.970  -0.943  -0.942  -0.940  -0.934
 -0.769  -0.765  -0.730  -0.724  -0.718  -0.706  -0.701  -0.665
 -0.665  -0.618  -0.602  -0.590  -0.552  -0.550  -0.543  -0.540
 -0.520  -0.511  -0.494  -0.479  -0.473  -0.465  -0.461  -0.446
 -0.439  -0.431  -0.428  -0.418  -0.418  -0.415  -0.414  -0.404
 -0.396  -0.392  -0.375  -0.374  -0.365  -0.365  -0.356  -0.353
 -0.350  -0.344  -0.339  -0.337  -0.332  -0.328  -0.316  -0.313
 -0.311  -0.308  -0.306  -0.304  -0.300  -0.294  -0.289  -0.282
 -0.279  -0.260  -0.256  -0.254  -0.242  -0.239  -0.234  -0.188
 -0.182  -0.181  -0.165  -0.164  -0.160  -0.155  -0.149  -0.146
 -0.144

          Ground-State Mulliken Net Atomic Charges

     Atom                 Charge (a.u.)
  ----------------------------------------
      1 O                    -0.204169
      2 C                     0.209509
      3 C                    -0.079837
      4 C                    -0.086296
      5 C                     0.204656
      6 O                    -0.167960
      7 C                    -0.049005
      8 C                    -0.057596
      9 O                    -0.170936
     10 C                     0.215238
     11 C                    -0.077790
     12 C                    -0.079510
     13 C                     0.209771
     14 O                    -0.208139
     15 O                    -0.176755
     16 O                    -0.167961
     17 O                    -0.221105
     18 C                    -0.128534
     19 C                     0.025505
     20 C                    -0.144604
     21 C                    -0.143467
     22 C                     0.026158
     23 O                    -0.186190
     24 H                     0.085295
     25 H                     0.086638
     26 H                     0.088332
     27 H                     0.077953
     28 H                     0.073675
     29 H                     0.078621
     30 H                     0.074939
     31 H                     0.083512
     32 O                    -0.199420
     33 C                    -0.127926
     34 C                     0.025142
     35 C                    -0.144550
     36 C                    -0.144413
     37 C                     0.026288
     38 O                    -0.184158
     39 H                     0.082298
     40 H                     0.079902
     41 H                     0.094721
     42 H                     0.090159
     43 H                     0.078979
     44 H                     0.072742
     45 H                     0.078787
     46 H                     0.072904
     47 H                     0.087348
     48 H                     0.090268
     49 H                     0.090793
     50 H                     0.090361
     51 H                     0.091698
     52 H                     0.092130
     53 H                     0.103177
     54 H                     0.081210
     55 H                     0.090807
     56 H                     0.090801
  ----------------------------------------
  Sum of atomic charges =    -0.000000

                    Cartesian Multipole Moments
 -----------------------------------------------------------------
    Charge (ESU x 10^10)
                -0.0000
    Dipole Moment (Debye)
         X      -3.1385      Y      -2.4844      Z      -2.7931
       Tot       4.8810
    Quadrupole Moments (Debye-Ang)
        XX    -186.9549     XY      -1.2679     YY    -149.6940
        XZ       0.3474     YZ      -4.3936     ZZ    -164.3228

 Total job time:  114.03s(wall), 5432.42s(cpu)
        *  Thank you very much for using Q-Chem.  Have a nice day.  *
