 Q-Chem 5.0, Q-Chem, Inc., Pleasanton, CA (2017)
 Q-Chem 5.0.1 for Intel X86 EM64T Linux

User input:
--------------------------------------------------------------
$molecule
0  1
O -3.94934 -3.66094 2.70899
C -3.26408 -4.56952 2.26188
C -3.36658 -6.02376 2.66595
C -2.57813 -6.46456 3.91009
C -1.91791 -5.36653 4.71416
O -2.00712 -5.64989 6.04727
C -1.06483 -4.92203 6.84197
C 0.35601 -5.36784 6.5124
O 1.00407 -4.37629 5.70017
C 2.28018 -4.66077 5.33996
C 2.99209 -5.53945 6.34084
C 2.50142 -5.39965 7.78928
C 1.17123 -4.6967 7.9714
O 0.89427 -3.92836 8.88107
O -2.39757 -4.29591 1.25129
O 1.65407 -3.55682 7.20356
O 2.87117 -3.97744 4.51834
C 1.33148 -2.18262 7.1909
C 3.07309 -7.08336 6.19361
C 4.35275 -7.58768 6.86742
C 3.99808 -7.38437 8.33861
C 2.54705 -6.89739 8.21259
O 2.11628 -7.60806 7.07855
H 4.04478 -5.17779 6.27637
H 3.23448 -4.84056 8.42206
H 3.01082 -7.42183 5.1372
H 4.41773 -8.68199 6.66739
H 5.29407 -7.10293 6.53196
H 4.02028 -8.37769 8.84126
H 4.64104 -6.66707 8.8918
H 1.97931 -7.07698 9.15114
O -1.1808 -4.5231 4.21744
C -2.1888 -3.03811 0.72571
C -4.80038 -6.42319 3.06027
C -4.99291 -7.92372 2.85724
C -4.15757 -8.46673 3.99478
C -3.7343 -7.16277 4.68128
O -4.82096 -6.29792 4.46038
H -3.06571 -6.61598 1.77121
H -1.76432 -7.17282 3.63861
H -1.81266 -2.35208 1.51461
H -5.58159 -5.85961 2.50386
H -6.06407 -8.15029 3.0612
H -4.72364 -8.3027 1.84778
H -4.82484 -9.05478 4.66457
H -3.28177 -9.08178 3.69559
H -3.50621 -7.39335 5.74317
H -3.13411 -2.63912 0.2996
H -1.43183 -3.10266 -0.08256
H 0.27297 -2.03658 6.89077
H 1.98824 -1.67168 6.45736
H 1.51344 -1.7151 8.18254
H 0.40811 -6.46102 6.62372
H 0.22044 -6.06763 5.657
H -1.30064 -5.18142 7.89752
H -1.2095 -3.82414 6.73246
$end

$opt
CONSTRAINT
tors           1           2           3           4     -85.263
tors           3           4           5           6    +142.105
tors           4           5           6           7    +161.053
tors           5           6           7           8     -66.316
tors           6           7           8           9    +104.211
tors           7           8           9          10    -180.000
tors           8           9          10          11     -28.421
tors           9          10          11          12     -28.421
tors          11          12          13          14    -142.105
ENDCONSTRAINT
$end

$rem
JOBTYPE                   OPT
METHOD                    B3LYP
DFT_D                     d3_op
BASIS                     STO-3G
GEOM_OPT_MAX_CYCLES       100
GEOM_OPT_TOL_GRADIENT     300
GEOM_OPT_TOL_DISPLACEMENT 1200
GEOM_OPT_TOL_ENERGY       100
SYMMETRY                  False
THRESH                    12
SCF_CONVERGENCE           8
MAX_SUB_FILE_NUM          128
MEM_STATIC                400
MEM_TOTAL                 4000
$end
--------------------------------------------------------------

   19   -1509.7021021248      8.72E-09 Convergence criterion met
 Total energy in the final basis set = -1509.70210212
   17   -1509.8024515095      3.18E-09 Convergence criterion met
 Total energy in the final basis set = -1509.80245151
   16   -1509.8774550495      4.80E-09 Convergence criterion met
 Total energy in the final basis set = -1509.87745505
   16   -1509.9354273183      7.46E-09 Convergence criterion met
 Total energy in the final basis set = -1509.93542732
    2   -1509.9354273183      4.05E-09 Convergence criterion met
 Total energy in the final basis set = -1509.93542732
   15   -1509.9807741011      7.92E-09 Convergence criterion met
 Total energy in the final basis set = -1509.98077410
   15   -1510.0173419101      4.76E-09 Convergence criterion met
 Total energy in the final basis set = -1510.01734191
   14   -1510.0473159539      9.45E-09 Convergence criterion met
   11   -1510.2469844657      4.22E-09 Convergence criterion met
 Total energy in the final basis set = -1510.24698447
   11   -1510.2470038722      4.27E-09 Convergence criterion met
 Total energy in the final basis set = -1510.24700387
   10   -1510.2470179082      7.59E-09 Convergence criterion met
 Total energy in the final basis set = -1510.24701791
   10   -1510.2470240493      9.60E-09 Convergence criterion met
 Total energy in the final basis set = -1510.24702405
   10   -1510.2470269051      8.52E-09 Convergence criterion met
 Total energy in the final basis set = -1510.24702691
    9   -1510.2470283429      8.26E-09 Convergence criterion met
 Total energy in the final basis set = -1510.24702834

             Standard Nuclear Orientation (Angstroms)
    I     Atom           X                Y                Z
 ----------------------------------------------------------------
    1      O      -4.5514926908     1.8214997483     0.0919340886
    2      C      -4.2036300410     1.0869466327    -0.8571603856
    3      C      -4.1902700643    -0.4825538736    -0.9051205498
    4      C      -2.8643289969    -1.1230205385    -0.3094855350
    5      C      -1.8885731678    -0.0463950481     0.2932812827
    6      O      -1.2681725134    -0.5595425852     1.4791647270
    7      C      -0.0451112552     0.2106795247     1.8064549979
    8      C       1.1005942185     0.0370145314     0.7391739870
    9      O       1.1217798041     1.2806416534    -0.0640383678
   10      C       2.0901213073     1.3720182225    -1.1157482711
   11      C       3.5198501493     0.6548302987    -1.1854480074
   12      C       4.4357978983     0.2319117871     0.0399029314
   13      C       4.4433280519     1.0225392639     1.3961832379
   14      O       5.4715343462     1.2285252316     2.0805695622
   15      O      -3.7913065463     1.5629597662    -2.1441782735
   16      O       3.1640053414     1.5529711278     1.7328871444
   17      O       1.8012142499     2.1680478382    -2.0421354327
   18      C       3.2335415892     2.3167536761     2.9991786263
   19      C       3.2935781672    -0.7985950150    -1.8130891164
   20      C       4.6681289923    -1.4220302523    -2.2932729488
   21      C       5.2621655752    -1.9628191287    -0.9373720321
   22      C       4.2221195482    -1.3579741783     0.0819864227
   23      O       2.9427925003    -1.6009103876    -0.6180291795
   24      H       4.0938658072     1.2984562999    -1.8752740040
   25      H       5.4730911345     0.3869370999    -0.3095941578
   26      H       2.4776448760    -0.8434602690    -2.5610160011
   27      H       4.4924636580    -2.2352649484    -3.0148314666
   28      H       5.3154239144    -0.6665152139    -2.7667454259
   29      H       5.2350945891    -3.0639681690    -0.8989210005
   30      H       6.2933835643    -1.6238030049    -0.7503790048
   31      H       4.2119367737    -1.8126396061     1.0917407198
   32      O      -1.6647740273     1.0888448807    -0.1805162422
   33      C      -3.6591575155     3.0368577241    -2.1160330577
   34      C      -5.2860359006    -1.1359404538     0.0400764871
   35      C      -5.5043186439    -2.6283175838    -0.4275872384
   36      C      -4.1755849007    -3.3003859328     0.0823272552
   37      C      -3.4689744655    -2.0809893020     0.7980454056
   38      O      -4.5939819362    -1.2843382166     1.3407309454
   39      H      -4.3275261160    -0.7880591706    -1.9572597680
   40      H      -2.3082390482    -1.6856169510    -1.0827697785
   41      H      -2.8544561643     3.3495726096    -1.4194468354
   42      H      -6.2073224096    -0.5336645522     0.1595343402
   43      H      -6.3894337053    -3.0605922306     0.0660611405
   44      H      -5.6327529781    -2.7099168650    -1.5188354350
   45      H      -4.3792949955    -4.1082334482     0.8027554015
   46      H      -3.5626653096    -3.7044467037    -0.7389578235
   47      H      -2.7531831433    -2.3419699883     1.6005415681
   48      H      -4.6058574444     3.5279550928    -1.8111235956
   49      H      -3.3958857092     3.3417119012    -3.1455237852
   50      H       3.5544259144     1.6760089252     3.8457302434
   51      H       2.2086825605     2.6894721238     3.1807240177
   52      H       3.9332015080     3.1732429628     2.9184966762
   53      H       2.0595547197    -0.0925190579     1.2745970301
   54      H       0.9208007291    -0.8577597087     0.1051239828
   55      H       0.2842280753    -0.1877502884     2.7864051636
   56      H      -0.2681647274     1.2959691491     1.9076763385
 ----------------------------------------------------------------

    9   -1510.2470287598      6.78E-09 Convergence criterion met
 Total energy in the final basis set = -1510.24702876
 Final energy is   -1510.24702875985
 **  OPTIMIZATION CONVERGED  **

                    Orbital Energies (a.u.)
 --------------------------------------------------------------

 Alpha MOs
 -- Occupied --
-18.950 -18.931 -18.926 -18.917 -18.901 -18.883 -18.881 -18.878
-18.864 -18.857 -10.111 -10.098 -10.095 -10.085 -10.075 -10.073
-10.072 -10.069 -10.064 -10.053 -10.053 -10.048 -10.046 -10.042
-10.034 -10.030 -10.028 -10.028 -10.016 -10.015  -1.025  -1.011
 -0.998  -0.993  -0.984  -0.964  -0.947  -0.936  -0.927  -0.920
 -0.771  -0.757  -0.727  -0.720  -0.713  -0.708  -0.694  -0.673
 -0.649  -0.609  -0.606  -0.579  -0.555  -0.547  -0.540  -0.532
 -0.525  -0.504  -0.494  -0.478  -0.469  -0.450  -0.444  -0.443
 -0.439  -0.429  -0.427  -0.421  -0.418  -0.410  -0.402  -0.397
 -0.395  -0.381  -0.378  -0.366  -0.358  -0.355  -0.349  -0.346
 -0.345  -0.344  -0.337  -0.330  -0.325  -0.322  -0.320  -0.319
 -0.311  -0.306  -0.303  -0.301  -0.297  -0.289  -0.279  -0.275
 -0.269  -0.260  -0.249  -0.247  -0.239  -0.232  -0.228  -0.191
 -0.178  -0.163  -0.161  -0.159  -0.156  -0.150  -0.140  -0.138
 -0.136

          Ground-State Mulliken Net Atomic Charges

     Atom                 Charge (a.u.)
  ----------------------------------------
      1 O                    -0.216839
      2 C                     0.211271
      3 C                    -0.081034
      4 C                    -0.077451
      5 C                     0.211830
      6 O                    -0.173955
      7 C                    -0.047685
      8 C                    -0.051245
      9 O                    -0.163709
     10 C                     0.205458
     11 C                    -0.081724
     12 C                    -0.088381
     13 C                     0.203784
     14 O                    -0.212282
     15 O                    -0.170491
     16 O                    -0.167458
     17 O                    -0.203524
     18 C                    -0.126965
     19 C                     0.022274
     20 C                    -0.145368
     21 C                    -0.140404
     22 C                     0.023761
     23 O                    -0.195184
     24 H                     0.090101
     25 H                     0.088472
     26 H                     0.084628
     27 H                     0.079992
     28 H                     0.076331
     29 H                     0.079244
     30 H                     0.077130
     31 H                     0.083176
     32 O                    -0.199083
     33 C                    -0.128124
     34 C                     0.025007
     35 C                    -0.143600
     36 C                    -0.144772
     37 C                     0.022468
     38 O                    -0.188923
     39 H                     0.083637
     40 H                     0.083786
     41 H                     0.095539
     42 H                     0.085261
     43 H                     0.076942
     44 H                     0.072741
     45 H                     0.076833
     46 H                     0.071750
     47 H                     0.090969
     48 H                     0.085722
     49 H                     0.087498
     50 H                     0.089882
     51 H                     0.095592
     52 H                     0.094055
     53 H                     0.093708
     54 H                     0.091969
     55 H                     0.087789
     56 H                     0.099597
  ----------------------------------------
  Sum of atomic charges =     0.000000

                    Cartesian Multipole Moments
 -----------------------------------------------------------------
    Charge (ESU x 10^10)
                 0.0000
    Dipole Moment (Debye)
         X       2.7988      Y      -3.0098      Z      -0.3810
       Tot       4.1276
    Quadrupole Moments (Debye-Ang)
        XX    -157.6316     XY       1.9917     YY    -158.0522
        XZ       5.6640     YZ       5.6601     ZZ    -157.3895

 Total job time:  187.89s(wall), 8962.22s(cpu)
        *  Thank you very much for using Q-Chem.  Have a nice day.  *
