 Q-Chem 5.0, Q-Chem, Inc., Pleasanton, CA (2017)
 Q-Chem 5.0.1 for Intel X86 EM64T Linux

User input:
--------------------------------------------------------------
$molecule
0  1
O -4.5514926908 1.8214997483 0.0919340886
C -4.203630041 1.0869466327 -0.8571603856
C -4.1902700643 -0.4825538736 -0.9051205498
C -2.8643289969 -1.1230205385 -0.309485535
C -1.8885731678 -0.0463950481 0.2932812827
O -1.2681725134 -0.5595425852 1.479164727
C -0.0451112552 0.2106795247 1.8064549979
C 1.1005942185 0.0370145314 0.739173987
O 1.1217798041 1.2806416534 -0.0640383678
C 2.0901213073 1.3720182225 -1.1157482711
C 3.5198501493 0.6548302987 -1.1854480074
C 4.4357978983 0.2319117871 0.0399029314
C 4.4433280519 1.0225392639 1.3961832379
O 5.4715343462 1.2285252316 2.0805695622
O -3.7913065463 1.5629597662 -2.1441782735
O 3.1640053414 1.5529711278 1.7328871444
O 1.8012142499 2.1680478382 -2.0421354327
C 3.2335415892 2.3167536761 2.9991786263
C 3.2935781672 -0.798595015 -1.8130891164
C 4.6681289923 -1.4220302523 -2.2932729488
C 5.2621655752 -1.9628191287 -0.9373720321
C 4.2221195482 -1.3579741783 0.0819864227
O 2.9427925003 -1.6009103876 -0.6180291795
H 4.0938658072 1.2984562999 -1.875274004
H 5.4730911345 0.3869370999 -0.3095941578
H 2.477644876 -0.843460269 -2.5610160011
H 4.492463658 -2.2352649484 -3.0148314666
H 5.3154239144 -0.6665152139 -2.7667454259
H 5.2350945891 -3.063968169 -0.8989210005
H 6.2933835643 -1.6238030049 -0.7503790048
H 4.2119367737 -1.8126396061 1.0917407198
O -1.6647740273 1.0888448807 -0.1805162422
C -3.6591575155 3.0368577241 -2.1160330577
C -5.2860359006 -1.1359404538 0.0400764871
C -5.5043186439 -2.6283175838 -0.4275872384
C -4.1755849007 -3.3003859328 0.0823272552
C -3.4689744655 -2.080989302 0.7980454056
O -4.5939819362 -1.2843382166 1.3407309454
H -4.327526116 -0.7880591706 -1.957259768
H -2.3082390482 -1.685616951 -1.0827697785
H -2.8544561643 3.3495726096 -1.4194468354
H -6.2073224096 -0.5336645522 0.1595343402
H -6.3894337053 -3.0605922306 0.0660611405
H -5.6327529781 -2.709916865 -1.518835435
H -4.3792949955 -4.1082334482 0.8027554015
H -3.5626653096 -3.7044467037 -0.7389578235
H -2.7531831433 -2.3419699883 1.6005415681
H -4.6058574444 3.5279550928 -1.8111235956
H -3.3958857092 3.3417119012 -3.1455237852
H 3.5544259144 1.6760089252 3.8457302434
H 2.2086825605 2.6894721238 3.1807240177
H 3.933201508 3.1732429628 2.9184966762
H 2.0595547197 -0.0925190579 1.2745970301
H 0.9208007291 -0.8577597087 0.1051239828
H 0.2842280753 -0.1877502884 2.7864051636
H -0.2681647274 1.2959691491 1.9076763385
$end

$rem
JOBTYPE                   OPT
METHOD                    B3LYP
DFT_D                     d3_op
BASIS                     STO-3G
GEOM_OPT_MAX_CYCLES       100
GEOM_OPT_TOL_GRADIENT     300
GEOM_OPT_TOL_DISPLACEMENT 1200
GEOM_OPT_TOL_ENERGY       100
SYMMETRY                  False
THRESH                    12
SCF_CONVERGENCE           8
MAX_SUB_FILE_NUM          128
MEM_STATIC                400
MEM_TOTAL                 4000
$end
--------------------------------------------------------------

   16   -1510.2470507038      6.55E-09 Convergence criterion met
 Total energy in the final basis set = -1510.24705070
   13   -1510.2481273485      9.87E-09 Convergence criterion met
 Total energy in the final basis set = -1510.24812735
   13   -1510.2514274395      8.46E-09 Convergence criterion met
 Total energy in the final basis set = -1510.25142744
   13   -1510.2537274912      5.26E-09 Convergence criterion met
 Total energy in the final basis set = -1510.25372749
   13   -1510.2559018426      8.86E-09 Convergence criterion met
 Total energy in the final basis set = -1510.25590184
   14   -1510.2582856857      5.00E-09 Convergence criterion met
 Total energy in the final basis set = -1510.25828569
   14   -1510.2601496760      5.69E-09 Convergence criterion met
 Total energy in the final basis set = -1510.26014968
   13   -1510.2620867430      8.34E-09 Convergence criterion met
   11   -1510.2921197507      5.95E-09 Convergence criterion met
 Total energy in the final basis set = -1510.29211975
   11   -1510.2921402109      6.80E-09 Convergence criterion met
 Total energy in the final basis set = -1510.29214021
   11   -1510.2921556841      7.37E-09 Convergence criterion met
 Total energy in the final basis set = -1510.29215568
   11   -1510.2921630736      9.16E-09 Convergence criterion met
 Total energy in the final basis set = -1510.29216307
   11   -1510.2921711342      4.50E-09 Convergence criterion met
 Total energy in the final basis set = -1510.29217113
   10   -1510.2921758220      9.69E-09 Convergence criterion met
 Total energy in the final basis set = -1510.29217582

             Standard Nuclear Orientation (Angstroms)
    I     Atom           X                Y                Z
 ----------------------------------------------------------------
    1      O      -3.3371620462     1.6893211681    -1.2059892862
    2      C      -2.6061274771     0.6867285536    -1.3411871013
    3      C      -2.9651517435    -0.8105590093    -1.0069602820
    4      C      -2.3240786489    -1.3620646816     0.3296354986
    5      C      -1.4738257027    -0.2782695090     1.0691709266
    6      O      -0.9454943563    -0.8276719690     2.2679933175
    7      C      -0.0234808050     0.1462912471     2.9110480740
    8      C       1.3637980060     0.2225600205     2.1578639907
    9      O       1.6007892065     1.6010980340     1.6595243315
   10      C       1.4487918890     1.7878532670     0.2451202227
   11      C       2.0682917176     0.7664934518    -0.8128819601
   12      C       3.4120111511     0.0326327370    -0.4024809970
   13      C       4.0568437638     0.5375756177     0.9355658567
   14      O       4.3324645340    -0.1299715755     1.9555437011
   15      O      -1.3445111213     0.6858986425    -2.0392167244
   16      O       4.3231959367     1.9333558569     0.7760926652
   17      O       0.9472294635     2.8697812714    -0.1474335730
   18      C       4.8072848827     2.5088331996     2.0512743769
   19      C       1.1499950245    -0.4726826457    -1.1624961392
   20      C       1.7106204064    -1.1897217444    -2.4521255241
   21      C       2.9417700115    -1.9891239699    -1.8802057712
   22      C       2.9483409984    -1.4859759830    -0.3905983292
   23      O       1.4896893036    -1.4362724466    -0.0784895454
   24      H       2.2284116216     1.3843326168    -1.7140375395
   25      H       4.1650080361     0.1868447322    -1.1967184963
   26      H       0.0643201263    -0.2184049909    -1.2312933635
   27      H       0.9491309341    -1.8656426966    -2.8725129261
   28      H       1.9992011607    -0.4640765414    -3.2294344128
   29      H       2.7701422621    -3.0768702274    -1.9193887373
   30      H       3.8836561577    -1.7588406479    -2.4029244359
   31      H       3.4758189263    -2.1230137568     0.3461937669
   32      O      -1.2581048168     0.8933685366     0.6764848168
   33      C      -0.9311619949     2.0707841462    -2.3756989776
   34      C      -4.5100625043    -0.9767625065    -0.6881542764
   35      C      -4.8797069033    -2.5071346045    -0.8081347243
   36      C      -4.2243651217    -3.0804355772     0.5028709956
   37      C      -3.6263810935    -1.7674894625     1.1457686713
   38      O      -4.5963447801    -0.7159955403     0.7686091020
   39      H      -2.6560464525    -1.4288086740    -1.8685553946
   40      H      -1.6760512384    -2.2385266595     0.1449679358
   41      H      -0.2405692796     2.4700752802    -1.5943221919
   42      H      -5.1650458972    -0.2773207612    -1.2426980170
   43      H      -5.9733030491    -2.6393006798    -0.8023509638
   44      H      -4.4733428044    -2.9642305156    -1.7244658227
   45      H      -4.9779474627    -3.5263566270     1.1711756345
   46      H      -3.4451021431    -3.8318207412     0.2980832079
   47      H      -3.4824697468    -1.7975811878     2.2433121783
   48      H      -1.8241431647     2.7210603199    -2.4473832834
   49      H      -0.4102568620     2.0238570054    -3.3502901823
   50      H       5.6790325947     1.9507363838     2.4489464063
   51      H       4.0007661037     2.5065852278     2.8133065966
   52      H       5.0990165874     3.5509932903     1.8262580572
   53      H       2.1806917525     0.0074918499     2.8757588957
   54      H       1.3880153071    -0.5399151965     1.3245184463
   55      H       0.1114521626    -0.2348149390     3.9422102515
   56      H      -0.4823604647     1.1583371935     2.9467947562
 ----------------------------------------------------------------

    9   -1510.2921761822      6.88E-09 Convergence criterion met
 Total energy in the final basis set = -1510.29217618
 Final energy is   -1510.29217618219
 **  OPTIMIZATION CONVERGED  **

                    Orbital Energies (a.u.)
 --------------------------------------------------------------

 Alpha MOs
 -- Occupied --
-18.940 -18.938 -18.921 -18.919 -18.918 -18.887 -18.884 -18.880
-18.879 -18.864 -10.106 -10.106 -10.102 -10.092 -10.073 -10.066
-10.064 -10.061 -10.057 -10.057 -10.045 -10.041 -10.040 -10.040
-10.035 -10.033 -10.030 -10.026 -10.020 -10.019  -1.021  -1.016
 -0.999  -0.997  -0.989  -0.969  -0.943  -0.942  -0.931  -0.925
 -0.773  -0.763  -0.729  -0.724  -0.712  -0.709  -0.692  -0.664
 -0.648  -0.610  -0.602  -0.580  -0.558  -0.545  -0.544  -0.536
 -0.519  -0.507  -0.487  -0.474  -0.466  -0.455  -0.453  -0.446
 -0.443  -0.432  -0.428  -0.414  -0.413  -0.411  -0.405  -0.399
 -0.391  -0.379  -0.373  -0.368  -0.362  -0.357  -0.354  -0.351
 -0.347  -0.344  -0.337  -0.333  -0.330  -0.324  -0.320  -0.315
 -0.313  -0.310  -0.306  -0.303  -0.299  -0.288  -0.282  -0.276
 -0.273  -0.260  -0.256  -0.255  -0.240  -0.234  -0.226  -0.188
 -0.181  -0.169  -0.163  -0.161  -0.160  -0.155  -0.146  -0.144
 -0.142

          Ground-State Mulliken Net Atomic Charges

     Atom                 Charge (a.u.)
  ----------------------------------------
      1 O                    -0.212380
      2 C                     0.219883
      3 C                    -0.082917
      4 C                    -0.079706
      5 C                     0.214097
      6 O                    -0.169343
      7 C                    -0.053882
      8 C                    -0.083252
      9 O                    -0.182201
     10 C                     0.221278
     11 C                    -0.084415
     12 C                    -0.084781
     13 C                     0.210602
     14 O                    -0.216304
     15 O                    -0.183837
     16 O                    -0.169445
     17 O                    -0.195948
     18 C                    -0.128068
     19 C                     0.005607
     20 C                    -0.143391
     21 C                    -0.142060
     22 C                     0.023538
     23 O                    -0.187790
     24 H                     0.089489
     25 H                     0.087939
     26 H                     0.114208
     27 H                     0.079011
     28 H                     0.076038
     29 H                     0.079614
     30 H                     0.076159
     31 H                     0.092801
     32 O                    -0.208659
     33 C                    -0.147145
     34 C                     0.025345
     35 C                    -0.144107
     36 C                    -0.143763
     37 C                     0.025387
     38 O                    -0.188075
     39 H                     0.082268
     40 H                     0.088638
     41 H                     0.105640
     42 H                     0.089139
     43 H                     0.078294
     44 H                     0.072754
     45 H                     0.078373
     46 H                     0.073431
     47 H                     0.087087
     48 H                     0.094827
     49 H                     0.075632
     50 H                     0.089880
     51 H                     0.093767
     52 H                     0.092653
     53 H                     0.083030
     54 H                     0.117287
     55 H                     0.088550
     56 H                     0.099222
  ----------------------------------------
  Sum of atomic charges =     0.000000

                    Cartesian Multipole Moments
 -----------------------------------------------------------------
    Charge (ESU x 10^10)
                 0.0000
    Dipole Moment (Debye)
         X       2.6047      Y      -3.5954      Z      -1.5954
       Tot       4.7176
    Quadrupole Moments (Debye-Ang)
        XX    -157.8969     XY      11.4819     YY    -163.8378
        XZ      -0.3542     YZ       3.8080     ZZ    -152.5488

 Total job time:  241.23s(wall), 11505.63s(cpu)
        *  Thank you very much for using Q-Chem.  Have a nice day.  *
