 Q-Chem 5.0, Q-Chem, Inc., Pleasanton, CA (2017)
 Q-Chem 5.0.1 for Intel X86 EM64T Linux

User input:
--------------------------------------------------------------
$molecule
0  1
O -5.2719466556 1.0410748345 1.8115472196
C -5.6015249709 1.0027198774 0.6079309977
C -5.4839693187 -0.2074711828 -0.3906206809
C -3.9996681723 -0.6388338916 -0.7319322741
C -2.8999774144 0.426576846 -0.4063687532
O -1.734353148 0.0744940566 -1.1648971976
C -0.6402734503 1.045117576 -0.907561605
C 0.6900003707 0.3509314069 -1.3499962886
O 1.8185283303 1.0664882694 -0.7020598765
C 2.8336395075 0.1400342797 -0.3018276668
C 3.9912758117 0.9480253237 0.3714250143
C 5.1938437439 0.0458013203 0.8682793137
C 5.0800190374 -1.4677901583 0.4512329569
O 5.4449537882 -1.9881240116 -0.6239830216
O -6.1668159274 2.1102780421 -0.1079377152
O 4.5312546171 -2.192434456 1.5614807606
O 2.7469727194 -1.1001997088 -0.4448631991
C 4.3211800637 -3.6061842607 1.1774814659
C 4.733767842 1.9261945973 -0.6414865392
C 5.5219989328 2.9943117413 0.2141432763
C 6.7179159576 2.1245416971 0.7530341019
C 6.4015654724 0.7249204486 0.0929002795
O 5.8023290697 1.0810239999 -1.2156177124
H 3.5523712614 1.5231442809 1.2074161553
H 5.3064214455 0.1028466251 1.9650192633
H 4.0825798134 2.3377106613 -1.436982393
H 5.8763370692 3.8164142917 -0.4280013863
H 4.9022798765 3.4168077493 1.020839422
H 7.687856829 2.5075898204 0.3979811413
H 6.7416026331 2.0679016663 1.8530843079
H 7.2750990853 0.0612583785 -0.055518985
O -2.9717336286 1.4396960445 0.3211192227
C -6.2506650375 3.2905514899 0.7821776432
C -5.9818240851 -1.5172050731 0.3612636901
C -6.0764834601 -2.7188911703 -0.662187311
C -4.5628199459 -3.1274167675 -0.8013917321
C -3.8750537648 -2.0099585829 0.0757871427
O -4.8126225838 -1.8541765643 1.2076175318
H -6.063966046 0.0199212487 -1.3018527126
H -3.9096316605 -0.8480864739 -1.8135790697
H -5.2536953358 3.5663941384 1.1821820771
H -6.8792476475 -1.3654724884 0.9916909885
H -6.6819493972 -3.5382537837 -0.2436066603
H -6.5216050257 -2.4071526931 -1.6207136583
H -4.374192626 -4.1217327556 -0.3655654795
H -4.2092406834 -3.1238437684 -1.8447022507
H -2.8556660937 -2.2470252039 0.4372120348
H -6.9346502171 3.1110551624 1.6369907879
H -6.6452050042 4.1158078448 0.1612825712
H 3.9230119637 -4.1135624586 2.0754624225
H 5.2680290208 -4.0920669914 0.8646352039
H 3.5901859127 -3.690002275 0.3472110364
H 0.7007326755 -0.7153135382 -1.0350522801
H 0.8087982483 0.3912979881 -2.4540011411
H -0.59433562 1.3053311548 0.1722939746
H -0.8108738031 1.9841846579 -1.4778490575
$end

$rem
JOBTYPE                   OPT
METHOD                    B3LYP
DFT_D                     d3_op
BASIS                     STO-3G
GEOM_OPT_MAX_CYCLES       100
GEOM_OPT_TOL_GRADIENT     300
GEOM_OPT_TOL_DISPLACEMENT 1200
GEOM_OPT_TOL_ENERGY       100
SYMMETRY                  False
THRESH                    12
SCF_CONVERGENCE           8
MAX_SUB_FILE_NUM          128
MEM_STATIC                400
MEM_TOTAL                 4000
$end
--------------------------------------------------------------

   16   -1510.2789522806      4.89E-09 Convergence criterion met
 Total energy in the final basis set = -1510.27895228
   13   -1510.2803999207      2.22E-09 Convergence criterion met
 Total energy in the final basis set = -1510.28039992
   13   -1510.2817984038      3.98E-09 Convergence criterion met
 Total energy in the final basis set = -1510.28179840
   13   -1510.2830331654      3.19E-09 Convergence criterion met
 Total energy in the final basis set = -1510.28303317
   13   -1510.2838035785      4.35E-09 Convergence criterion met
 Total energy in the final basis set = -1510.28380358
   13   -1510.2845392828      3.39E-09 Convergence criterion met
 Total energy in the final basis set = -1510.28453928
   13   -1510.2851274047      4.69E-09 Convergence criterion met
 Total energy in the final basis set = -1510.28512740
   13   -1510.2855263309      4.25E-09 Convergence criterion met
   12   -1510.3008839614      3.74E-09 Convergence criterion met
 Total energy in the final basis set = -1510.30088396
   11   -1510.3008973046      7.16E-09 Convergence criterion met
 Total energy in the final basis set = -1510.30089730
   11   -1510.3009000697      3.26E-09 Convergence criterion met
 Total energy in the final basis set = -1510.30090007
    9   -1510.3009016647      7.32E-09 Convergence criterion met
 Total energy in the final basis set = -1510.30090166
    9   -1510.3009029869      8.67E-09 Convergence criterion met
 Total energy in the final basis set = -1510.30090299
    9   -1510.3009031915      6.62E-09 Convergence criterion met
 Total energy in the final basis set = -1510.30090319

             Standard Nuclear Orientation (Angstroms)
    I     Atom           X                Y                Z
 ----------------------------------------------------------------
    1      O      -3.2535987625    -0.1208328699     2.7334225502
    2      C      -3.7530452180     0.0003503537     1.5952826577
    3      C      -3.6152597298    -0.9846108066     0.3763609913
    4      C      -2.6424495105    -0.4625436114    -0.7578211753
    5      C      -2.0709707964     0.9692163965    -0.5108273543
    6      O      -1.6359178246     1.4815925217    -1.7726055094
    7      C      -0.9232215939     2.7693927185    -1.6067766190
    8      C       0.4315224382     2.7049854479    -2.4107682887
    9      O       1.6452525428     2.5377199833    -1.5767090555
   10      C       1.7406331811     1.2140147950    -1.0382916653
   11      C       3.1594294214     1.0588728804    -0.4001058113
   12      C       3.2303610491    -0.0191880897     0.7550662072
   13      C       1.8425562405    -0.5928258585     1.2285304943
   14      O       1.4654076521    -1.7823939104     1.1602990068
   15      O      -4.6494723943     1.0512307771     1.2083282669
   16      O       1.1193625736     0.4774890931     1.8290592631
   17      O       0.8494844643     0.3441637344    -1.1448912037
   18      C      -0.1578192869    -0.0051124353     2.4154340844
   19      C       4.1363170955     0.3958150087    -1.4708746103
   20      C       5.6202554694     0.4932090252    -0.9342147162
   21      C       5.6336753876    -0.6551344381     0.1431113938
   22      C       4.1327630111    -1.1359673976     0.0841229871
   23      O       3.8066556598    -1.0409116548    -1.3595670716
   24      H       3.5136535110     2.0528088713    -0.0755804895
   25      H       3.7291634619     0.4167862108     1.6398411263
   26      H       3.9874213248     0.7527672507    -2.5087483469
   27      H       6.3378804409     0.2974414074    -1.7466834641
   28      H       5.8371046130     1.4834693348    -0.5023531278
   29      H       6.3131424620    -1.4715568343    -0.1494781170
   30      H       5.9201235000    -0.2969738605     1.1447183388
   31      H       3.9299187531    -2.1586783056     0.4570843016
   32      O      -1.9680579672     1.5868278352     0.5730922685
   33      C      -4.7422581290     2.0530435613     2.2929944739
   34      C      -2.8849833753    -2.3220894485     0.8017531506
   35      C      -3.0503129048    -3.3875416396    -0.3521779251
   36      C      -2.0150139939    -2.8590263901    -1.4173374213
   37      C      -1.4826655182    -1.5598564867    -0.7044790221
   38      O      -1.4494124290    -1.9612257144     0.7195640381
   39      H      -4.6236471402    -1.1736614552    -0.0330746561
   40      H      -3.1315355227    -0.4682345115    -1.7477298227
   41      H      -3.7670373120     2.5570114334     2.4539248944
   42      H      -3.1332355138    -2.6729065455     1.8220898874
   43      H      -2.7787911607    -4.3917530985     0.0100535043
   44      H      -4.0810495033    -3.4181168646    -0.7406431386
   45      H      -1.1919616127    -3.5756107571    -1.5675645400
   46      H      -2.4787825797    -2.6396681136    -2.3922500253
   47      H      -0.4892464985    -1.1752930870    -1.0192303325
   48      H      -5.0655107003     1.5943721963     3.2496829865
   49      H      -5.4929641110     2.7949181862     1.9636946678
   50      H      -0.8119323374     0.8815895297     2.4974349387
   51      H       0.0233160101    -0.4241275066     3.4258696906
   52      H      -0.6530552824    -0.7783744355     1.7736359153
   53      H       0.3510775460     1.8854025154    -3.1587106059
   54      H       0.5936361539     3.6643968949    -2.9418564014
   55      H      -0.7536820004     2.9634825888    -0.5246532555
   56      H      -1.5606387136     3.5799376410    -2.0206277256
 ----------------------------------------------------------------

    9   -1510.3009027680      4.40E-09 Convergence criterion met
 Total energy in the final basis set = -1510.30090277
 Final energy is   -1510.30090276805
 **  OPTIMIZATION CONVERGED  **

                    Orbital Energies (a.u.)
 --------------------------------------------------------------

 Alpha MOs
 -- Occupied --
-18.940 -18.936 -18.922 -18.904 -18.897 -18.883 -18.883 -18.881
-18.865 -18.850 -10.106 -10.104 -10.091 -10.080 -10.078 -10.073
-10.059 -10.058 -10.055 -10.051 -10.051 -10.036 -10.036 -10.033
-10.026 -10.018 -10.017 -10.016 -10.015 -10.009  -1.021  -1.013
 -1.000  -0.985  -0.972  -0.966  -0.944  -0.940  -0.926  -0.911
 -0.762  -0.758  -0.727  -0.719  -0.711  -0.701  -0.694  -0.655
 -0.632  -0.618  -0.592  -0.577  -0.544  -0.539  -0.534  -0.531
 -0.513  -0.504  -0.482  -0.463  -0.459  -0.449  -0.448  -0.444
 -0.437  -0.429  -0.426  -0.411  -0.404  -0.401  -0.398  -0.392
 -0.379  -0.375  -0.374  -0.361  -0.357  -0.350  -0.350  -0.345
 -0.341  -0.336  -0.329  -0.328  -0.326  -0.320  -0.318  -0.308
 -0.305  -0.301  -0.297  -0.295  -0.295  -0.278  -0.272  -0.269
 -0.265  -0.257  -0.250  -0.245  -0.239  -0.231  -0.216  -0.192
 -0.173  -0.167  -0.161  -0.157  -0.154  -0.144  -0.141  -0.140
 -0.130

          Ground-State Mulliken Net Atomic Charges

     Atom                 Charge (a.u.)
  ----------------------------------------
      1 O                    -0.213944
      2 C                     0.214604
      3 C                    -0.081452
      4 C                    -0.079291
      5 C                     0.219907
      6 O                    -0.170056
      7 C                    -0.054986
      8 C                    -0.049664
      9 O                    -0.171579
     10 C                     0.218745
     11 C                    -0.077603
     12 C                    -0.080788
     13 C                     0.209509
     14 O                    -0.214104
     15 O                    -0.175412
     16 O                    -0.182817
     17 O                    -0.213443
     18 C                    -0.154385
     19 C                     0.025148
     20 C                    -0.144023
     21 C                    -0.143518
     22 C                     0.023908
     23 O                    -0.189997
     24 H                     0.087450
     25 H                     0.082405
     26 H                     0.080062
     27 H                     0.077226
     28 H                     0.073463
     29 H                     0.077261
     30 H                     0.073431
     31 H                     0.091285
     32 O                    -0.213282
     33 C                    -0.128675
     34 C                     0.027265
     35 C                    -0.143629
     36 C                    -0.142491
     37 C                     0.020575
     38 O                    -0.178812
     39 H                     0.084780
     40 H                     0.087286
     41 H                     0.091786
     42 H                     0.089788
     43 H                     0.079676
     44 H                     0.072622
     45 H                     0.082616
     46 H                     0.073330
     47 H                     0.113592
     48 H                     0.087730
     49 H                     0.086516
     50 H                     0.086710
     51 H                     0.070238
     52 H                     0.118830
     53 H                     0.095009
     54 H                     0.090760
     55 H                     0.105377
     56 H                     0.085064
  ----------------------------------------
  Sum of atomic charges =    -0.000000

                    Cartesian Multipole Moments
 -----------------------------------------------------------------
    Charge (ESU x 10^10)
                -0.0000
    Dipole Moment (Debye)
         X      -0.4006      Y       2.2191      Z      -2.1645
       Tot       3.1257
    Quadrupole Moments (Debye-Ang)
        XX    -141.7079     XY       5.3093     YY    -154.1412
        XZ       2.9069     YZ      -2.2420     ZZ    -159.3659

 Total job time:  201.65s(wall), 9615.99s(cpu)
        *  Thank you very much for using Q-Chem.  Have a nice day.  *
