 Q-Chem 5.0, Q-Chem, Inc., Pleasanton, CA (2017)
 Q-Chem 5.0.1 for Intel X86 EM64T Linux

User input:
--------------------------------------------------------------
$molecule
0  1
O -3.94934 -3.66094 2.70899
C -3.26408 -4.56952 2.26188
C -3.36658 -6.02376 2.66595
C -2.97353 -6.38153 4.10864
C -2.69204 -5.22192 5.03825
O -1.96948 -5.65415 6.11365
C -1.66266 -4.60916 7.0427
C -1.28945 -5.20282 8.3971
O -1.41359 -4.20295 9.42068
C -1.89864 -4.64172 10.60868
C -2.00532 -3.54532 11.64172
C -2.55025 -3.99226 13.00611
C -2.56798 -5.4874 13.25298
O -1.62974 -6.14711 13.67613
O -2.38507 -4.29058 1.26344
O -3.77344 -6.09616 13.09375
O -2.26358 -5.79875 10.77103
C -4.00039 -7.43944 13.3089
C -0.64797 -2.94314 12.0542
C -0.86262 -1.53166 12.59753
C -1.5527 -1.83725 13.91211
C -1.47071 -3.36888 13.915
O -0.2834 -3.64965 13.21301
H -2.63923 -2.74867 11.1899
H -3.56679 -3.59388 13.22115
H 0.10065 -2.93108 11.23231
H 0.14645 -1.11305 12.81467
H -1.4092 -0.83527 11.92585
H -0.94322 -1.40469 14.73632
H -2.60506 -1.48784 13.98967
H -1.52514 -3.7586 14.9558
O -3.38086 -4.21043 5.07901
C -2.17608 -3.03146 0.74083
C -4.8221 -6.51677 2.62715
C -4.85979 -8.04116 2.51504
C -4.43686 -8.43635 3.91429
C -4.28537 -7.05658 4.5608
O -5.28438 -6.28742 3.93467
H -2.74789 -6.60519 1.94467
H -2.11817 -7.09353 4.16031
H -1.81489 -2.34306 1.53462
H -5.41426 -6.05389 1.80712
H -5.91974 -8.34795 2.36635
H -4.23566 -8.45543 1.69415
H -5.2808 -8.97968 4.39534
H -3.51013 -9.04646 3.9787
H -4.35922 -7.14272 5.66782
H -3.11774 -2.63789 0.30175
H -1.40779 -3.0916 -0.05705
H -5.06647 -7.66587 13.10239
H -3.77658 -7.70173 14.36499
H -3.36714 -8.04773 12.62809
H -1.99977 -6.04769 8.54373
H -0.25806 -5.61335 8.36
H -2.59416 -4.03917 7.26877
H -0.89722 -3.90169 6.65561
$end

$opt
CONSTRAINT
tors           1           2           3           4     -66.316
tors           3           4           5           6    -161.053
tors           4           5           6           7    -180.000
tors           5           6           7           8    +161.053
tors           6           7           8           9    -161.053
tors           7           8           9          10    +142.105
tors           8           9          10          11    -180.000
tors           9          10          11          12    -180.000
tors          11          12          13          14     +85.263
ENDCONSTRAINT
$end

$rem
JOBTYPE                   OPT
METHOD                    B3LYP
DFT_D                     d3_op
BASIS                     STO-3G
GEOM_OPT_MAX_CYCLES       100
GEOM_OPT_TOL_GRADIENT     300
GEOM_OPT_TOL_DISPLACEMENT 1200
GEOM_OPT_TOL_ENERGY       100
SYMMETRY                  False
THRESH                    12
SCF_CONVERGENCE           8
MAX_SUB_FILE_NUM          128
MEM_STATIC                400
MEM_TOTAL                 4000
$end
--------------------------------------------------------------

   15   -1510.1447589108      6.13E-09 Convergence criterion met
 Total energy in the final basis set = -1510.14475891
   14   -1510.2149644768      4.77E-09 Convergence criterion met
 Total energy in the final basis set = -1510.21496448
   13   -1510.2524985550      9.38E-09 Convergence criterion met
 Total energy in the final basis set = -1510.25249856
   14   -1510.2686981202      4.99E-09 Convergence criterion met
 Total energy in the final basis set = -1510.26869812
   14   -1510.2738823597      2.81E-09 Convergence criterion met
 Total energy in the final basis set = -1510.27388236
   13   -1510.2759000149      7.45E-09 Convergence criterion met
 Total energy in the final basis set = -1510.27590001
   12   -1510.2767231523      9.01E-09 Convergence criterion met
 Total energy in the final basis set = -1510.27672315
   12   -1510.2770894475      6.45E-09 Convergence criterion met
   11   -1510.2788410299      7.13E-09 Convergence criterion met
 Total energy in the final basis set = -1510.27884103
   10   -1510.2788748187      7.73E-09 Convergence criterion met
 Total energy in the final basis set = -1510.27887482
   10   -1510.2788958657      7.46E-09 Convergence criterion met
 Total energy in the final basis set = -1510.27889587
   10   -1510.2789107394      7.47E-09 Convergence criterion met
 Total energy in the final basis set = -1510.27891074
    9   -1510.2789166900      9.28E-09 Convergence criterion met
 Total energy in the final basis set = -1510.27891669
    9   -1510.2789189475      4.00E-09 Convergence criterion met
 Total energy in the final basis set = -1510.27891895

             Standard Nuclear Orientation (Angstroms)
    I     Atom           X                Y                Z
 ----------------------------------------------------------------
    1      O      -5.2719466556     1.0410748345     1.8115472196
    2      C      -5.6015249709     1.0027198774     0.6079309977
    3      C      -5.4839693187    -0.2074711828    -0.3906206809
    4      C      -3.9996681723    -0.6388338916    -0.7319322741
    5      C      -2.8999774144     0.4265768460    -0.4063687532
    6      O      -1.7343531480     0.0744940566    -1.1648971976
    7      C      -0.6402734503     1.0451175760    -0.9075616050
    8      C       0.6900003707     0.3509314069    -1.3499962886
    9      O       1.8185283303     1.0664882694    -0.7020598765
   10      C       2.8336395075     0.1400342797    -0.3018276668
   11      C       3.9912758117     0.9480253237     0.3714250143
   12      C       5.1938437439     0.0458013203     0.8682793137
   13      C       5.0800190374    -1.4677901583     0.4512329569
   14      O       5.4449537882    -1.9881240116    -0.6239830216
   15      O      -6.1668159274     2.1102780421    -0.1079377152
   16      O       4.5312546171    -2.1924344560     1.5614807606
   17      O       2.7469727194    -1.1001997088    -0.4448631991
   18      C       4.3211800637    -3.6061842607     1.1774814659
   19      C       4.7337678420     1.9261945973    -0.6414865392
   20      C       5.5219989328     2.9943117413     0.2141432763
   21      C       6.7179159576     2.1245416971     0.7530341019
   22      C       6.4015654724     0.7249204486     0.0929002795
   23      O       5.8023290697     1.0810239999    -1.2156177124
   24      H       3.5523712614     1.5231442809     1.2074161553
   25      H       5.3064214455     0.1028466251     1.9650192633
   26      H       4.0825798134     2.3377106613    -1.4369823930
   27      H       5.8763370692     3.8164142917    -0.4280013863
   28      H       4.9022798765     3.4168077493     1.0208394220
   29      H       7.6878568290     2.5075898204     0.3979811413
   30      H       6.7416026331     2.0679016663     1.8530843079
   31      H       7.2750990853     0.0612583785    -0.0555189850
   32      O      -2.9717336286     1.4396960445     0.3211192227
   33      C      -6.2506650375     3.2905514899     0.7821776432
   34      C      -5.9818240851    -1.5172050731     0.3612636901
   35      C      -6.0764834601    -2.7188911703    -0.6621873110
   36      C      -4.5628199459    -3.1274167675    -0.8013917321
   37      C      -3.8750537648    -2.0099585829     0.0757871427
   38      O      -4.8126225838    -1.8541765643     1.2076175318
   39      H      -6.0639660460     0.0199212487    -1.3018527126
   40      H      -3.9096316605    -0.8480864739    -1.8135790697
   41      H      -5.2536953358     3.5663941384     1.1821820771
   42      H      -6.8792476475    -1.3654724884     0.9916909885
   43      H      -6.6819493972    -3.5382537837    -0.2436066603
   44      H      -6.5216050257    -2.4071526931    -1.6207136583
   45      H      -4.3741926260    -4.1217327556    -0.3655654795
   46      H      -4.2092406834    -3.1238437684    -1.8447022507
   47      H      -2.8556660937    -2.2470252039     0.4372120348
   48      H      -6.9346502171     3.1110551624     1.6369907879
   49      H      -6.6452050042     4.1158078448     0.1612825712
   50      H       3.9230119637    -4.1135624586     2.0754624225
   51      H       5.2680290208    -4.0920669914     0.8646352039
   52      H       3.5901859127    -3.6900022750     0.3472110364
   53      H       0.7007326755    -0.7153135382    -1.0350522801
   54      H       0.8087982483     0.3912979881    -2.4540011411
   55      H      -0.5943356200     1.3053311548     0.1722939746
   56      H      -0.8108738031     1.9841846579    -1.4778490575
 ----------------------------------------------------------------

    9   -1510.2789197852      3.14E-09 Convergence criterion met
 Total energy in the final basis set = -1510.27891979
 Final energy is   -1510.27891978523
 **  OPTIMIZATION CONVERGED  **

                    Orbital Energies (a.u.)
 --------------------------------------------------------------

 Alpha MOs
 -- Occupied --
-18.942 -18.937 -18.925 -18.920 -18.890 -18.889 -18.888 -18.884
-18.865 -18.859 -10.109 -10.105 -10.090 -10.088 -10.079 -10.077
-10.063 -10.062 -10.060 -10.058 -10.057 -10.053 -10.042 -10.040
-10.036 -10.033 -10.022 -10.021 -10.021 -10.020  -1.023  -1.017
 -1.001  -0.997  -0.972  -0.970  -0.948  -0.941  -0.925  -0.923
 -0.765  -0.763  -0.730  -0.723  -0.717  -0.706  -0.697  -0.657
 -0.654  -0.618  -0.596  -0.579  -0.547  -0.545  -0.539  -0.538
 -0.520  -0.511  -0.480  -0.466  -0.461  -0.457  -0.453  -0.451
 -0.447  -0.434  -0.432  -0.411  -0.409  -0.404  -0.403  -0.402
 -0.397  -0.379  -0.372  -0.365  -0.362  -0.355  -0.351  -0.347
 -0.344  -0.337  -0.333  -0.331  -0.330  -0.329  -0.324  -0.315
 -0.313  -0.307  -0.304  -0.302  -0.299  -0.279  -0.276  -0.275
 -0.273  -0.261  -0.255  -0.247  -0.244  -0.235  -0.234  -0.189
 -0.181  -0.171  -0.166  -0.162  -0.157  -0.147  -0.145  -0.140
 -0.139

          Ground-State Mulliken Net Atomic Charges

     Atom                 Charge (a.u.)
  ----------------------------------------
      1 O                    -0.206745
      2 C                     0.211856
      3 C                    -0.080139
      4 C                    -0.079622
      5 C                     0.209578
      6 O                    -0.175380
      7 C                    -0.048568
      8 C                    -0.051893
      9 O                    -0.173828
     10 C                     0.215047
     11 C                    -0.078033
     12 C                    -0.081378
     13 C                     0.214118
     14 O                    -0.215283
     15 O                    -0.173288
     16 O                    -0.174018
     17 O                    -0.206182
     18 C                    -0.128389
     19 C                     0.025465
     20 C                    -0.143232
     21 C                    -0.144700
     22 C                     0.026126
     23 O                    -0.186772
     24 H                     0.087261
     25 H                     0.084787
     26 H                     0.086052
     27 H                     0.078255
     28 H                     0.073688
     29 H                     0.078263
     30 H                     0.073783
     31 H                     0.086287
     32 O                    -0.206749
     33 C                    -0.129041
     34 C                     0.026393
     35 C                    -0.145391
     36 C                    -0.142133
     37 C                     0.026652
     38 O                    -0.184147
     39 H                     0.085419
     40 H                     0.086283
     41 H                     0.093101
     42 H                     0.083790
     43 H                     0.078417
     44 H                     0.073766
     45 H                     0.078638
     46 H                     0.074314
     47 H                     0.084883
     48 H                     0.086186
     49 H                     0.087257
     50 H                     0.086298
     51 H                     0.086399
     52 H                     0.092219
     53 H                     0.103282
     54 H                     0.087377
     55 H                     0.096680
     56 H                     0.086989
  ----------------------------------------
  Sum of atomic charges =    -0.000000

                    Cartesian Multipole Moments
 -----------------------------------------------------------------
    Charge (ESU x 10^10)
                 0.0000
    Dipole Moment (Debye)
         X      -1.0079      Y       0.9570      Z      -0.6348
       Tot       1.5279
    Quadrupole Moments (Debye-Ang)
        XX    -154.6570     XY       9.4067     YY    -150.7965
        XZ      21.7363     YZ       0.0878     ZZ    -165.0735

 Total job time:  58.66s(wall), 2785.69s(cpu)
        *  Thank you very much for using Q-Chem.  Have a nice day.  *
