 Q-Chem 5.0, Q-Chem, Inc., Pleasanton, CA (2017)
 Q-Chem 5.0.1 for Intel X86 EM64T Linux

User input:
--------------------------------------------------------------
$molecule
0  1
O 2.6002897362 0.2112113192 -1.8481553156
C 2.8997833953 1.0650874807 -0.9873936084
C 4.1716605438 1.0860738555 -0.0580350901
C 4.5045619237 -0.2815917064 0.668013431
C 3.3476128657 -1.1987120929 1.2206792432
O 2.2343189817 -1.4486783018 0.3153570064
C 1.0948971228 -0.6124575752 0.7692986499
C -0.2138408454 -1.2191105319 0.1376064201
O -0.8559916771 -0.1317025905 -0.6382980186
C -2.2907466446 -0.0241599117 -0.6388749219
C -3.1925781376 -1.1595478719 -0.0190467802
C -4.1620787596 -0.6229398415 1.1246708976
C -3.9839033749 0.9178077313 1.3884533622
O -3.135478014 1.4407852525 2.1450812871
O 2.0734378741 2.1927175087 -0.662197163
O -4.9477133296 1.6471422878 0.6310190556
O -2.7551435732 1.0043133036 -1.1798722931
C -4.7148834015 3.1018745792 0.7806688921
C -4.2584383531 -1.6657063232 -1.0933872352
C -4.8379740632 -3.0438283172 -0.5830464408
C -5.7670386292 -2.5604877649 0.5914455705
C -5.5758761541 -0.9929650071 0.5119112545
O -5.3943680797 -0.7349537904 -0.9355046097
H -2.5959655689 -2.0090866933 0.3435323046
H -3.9657761811 -1.1515502756 2.0750967661
H -3.8947398789 -1.6614688646 -2.1393277801
H -5.4180503341 -3.5333983084 -1.3814038484
H -4.0459535749 -3.7326006204 -0.2480189522
H -6.819826182 -2.8290522943 0.4100549277
H -5.4640315977 -2.967057321 1.5696349574
H -6.4163254855 -0.3926761077 0.9088621832
O 3.3913938576 -1.7126586064 2.3600481677
C 0.8679724571 2.2102798312 -1.5353486477
C 5.4103542509 1.1282875504 -1.0616944525
C 6.7849453509 1.1522200523 -0.2777903551
C 6.9691898562 -0.3701397282 0.0848552
C 5.5602931841 -0.9300715492 -0.3501552528
O 5.3401385997 -0.237409191 -1.637413547
H 4.1187458939 1.9375081483 0.6422315166
H 5.0630903972 -0.0246943464 1.5870025945
H 0.1805372892 1.3631778009 -1.2954410927
H 5.316077379 1.8881050416 -1.8617354759
H 7.5952458356 1.5191062055 -0.9271254487
H 6.7334296154 1.7945642684 0.6161705144
H 7.7662891395 -0.8319784197 -0.520161388
H 7.1876915202 -0.5369385633 1.1516777303
H 5.4889673795 -2.0275256927 -0.4780223477
H 1.1474705372 2.1603593661 -2.6062235546
H 0.3631295028 3.1710974694 -1.3278222458
H -5.5388691828 3.5989541774 0.2368071471
H -3.74393434 3.3967807465 0.3329088759
H -4.7260383372 3.4119096657 1.845586126
H 0.062075928 -2.0554589189 -0.543136436
H -0.8670446145 -1.6066421646 0.9415220158
H 1.2038499302 0.4495737586 0.4620924105
H 1.0074506909 -0.6355224223 1.8782995105
$end

$rem
JOBTYPE                   OPT
METHOD                    B3LYP
DFT_D                     d3_op
BASIS                     STO-3G
GEOM_OPT_MAX_CYCLES       100
GEOM_OPT_TOL_GRADIENT     300
GEOM_OPT_TOL_DISPLACEMENT 1200
GEOM_OPT_TOL_ENERGY       100
SYMMETRY                  False
THRESH                    12
SCF_CONVERGENCE           8
MAX_SUB_FILE_NUM          128
MEM_STATIC                400
MEM_TOTAL                 4000
$end
--------------------------------------------------------------

   16   -1510.2371330530      7.04E-09 Convergence criterion met
 Total energy in the final basis set = -1510.23713305
   14   -1510.2414640776      3.35E-09 Convergence criterion met
 Total energy in the final basis set = -1510.24146408
   14   -1510.2404452974      5.92E-09 Convergence criterion met
 Total energy in the final basis set = -1510.24044530
   15   -1510.2481412730      4.08E-09 Convergence criterion met
 Total energy in the final basis set = -1510.24814127
   14   -1510.2520724011      4.29E-09 Convergence criterion met
 Total energy in the final basis set = -1510.25207240
   14   -1510.2560777854      7.88E-09 Convergence criterion met
 Total energy in the final basis set = -1510.25607779
   14   -1510.2597950009      2.38E-09 Convergence criterion met
 Total energy in the final basis set = -1510.25979500
   14   -1510.2634734910      7.01E-09 Convergence criterion met
   11   -1510.2869958655      8.57E-09 Convergence criterion met
 Total energy in the final basis set = -1510.28699587
   12   -1510.2870202995      2.08E-09 Convergence criterion met
 Total energy in the final basis set = -1510.28702030
   11   -1510.2870483163      9.60E-09 Convergence criterion met
 Total energy in the final basis set = -1510.28704832
   11   -1510.2870654897      9.01E-09 Convergence criterion met
 Total energy in the final basis set = -1510.28706549
   10   -1510.2870627024      7.85E-09 Convergence criterion met
 Total energy in the final basis set = -1510.28706270
    9   -1510.2870604082      6.69E-09 Convergence criterion met
 Total energy in the final basis set = -1510.28706041

             Standard Nuclear Orientation (Angstroms)
    I     Atom           X                Y                Z
 ----------------------------------------------------------------
    1      O      -0.7051389030    -0.0304456137     1.4398446091
    2      C      -1.7704626315     0.5811960671     1.1889836863
    3      C      -3.1773559351    -0.0685460530     0.9310839059
    4      C      -3.8469435950     0.3894941677    -0.4325653746
    5      C      -2.9479100184     1.3478306056    -1.2844672734
    6      O      -1.6328654599     0.7787205652    -1.3356622808
    7      C      -0.7237807694     1.5931769435    -2.1765088133
    8      C       0.7370777573     1.1637258460    -1.8007034621
    9      O       1.2999502268     2.1582751885    -0.8627041778
   10      C       2.2980774559     1.6464712052     0.0764063065
   11      C       2.0982537704     0.1752268110     0.6139573000
   12      C       2.6010485605    -1.0254153740    -0.2898533772
   13      C       3.3253401444    -0.6243477568    -1.6188509104
   14      O       3.4586518042    -1.3271469062    -2.6444068362
   15      O      -1.9324276178     1.9944197572     1.1761603681
   16      O       3.8662612396     0.6935698223    -1.4772740516
   17      O       3.0510962702     2.4988830550     0.5888618199
   18      C       4.5326923635     1.1380855243    -2.7213653384
   19      C       2.9817632189    -0.0402325344     1.9141850259
   20      C       2.3509526934    -1.2370472424     2.7271642251
   21      C       2.7845356850    -2.4611369447     1.8380850754
   22      C       3.6199634644    -1.7383632828     0.7071104268
   23      O       4.2547779170    -0.6011939288     1.4031393277
   24      H       1.0171450875     0.0633328007     0.8655897680
   25      H       1.7744513238    -1.7086902814    -0.5570918183
   26      H       3.1746381848     0.8889228155     2.4845235634
   27      H       2.7888023172    -1.2959016494     3.7363844630
   28      H       1.2564883737    -1.1408984271     2.8146279901
   29      H       3.4231983363    -3.1640255805     2.3963242652
   30      H       1.9244012709    -3.0137050610     1.4275754056
   31      H       4.3801888055    -2.3697804003     0.2070430130
   32      O      -3.2829665746     2.4024393579    -1.8635518233
   33      C      -0.6318430818     2.6850349891     1.3581579510
   34      C      -3.0574233571    -1.6320260502     0.7101123632
   35      C      -4.4889546863    -2.2700817018     0.8871798060
   36      C      -5.1904504971    -1.8085636106    -0.4448947543
   37      C      -4.0180889664    -1.0210683317    -1.1536029900
   38      O      -2.8019458386    -1.7575340077    -0.7446647967
   39      H      -3.8334175225     0.1744678517     1.7870798245
   40      H      -4.8180424496     0.8878096288    -0.2682136435
   41      H       0.0181286110     2.5655659755     0.4574517259
   42      H      -2.2386295148    -2.1035643181     1.2877235367
   43      H      -4.4171549211    -3.3678638161     0.9453858674
   44      H      -5.0015198497    -1.9010635780     1.7897883567
   45      H      -5.4986721387    -2.6698864816    -1.0586303777
   46      H      -6.0702284311    -1.1703558871    -0.2646549487
   47      H      -4.0875946309    -0.9668228971    -2.2575233139
   48      H      -0.0952973003     2.2977731267     2.2471585689
   49      H      -0.8766373105     3.7517015506     1.5090322921
   50      H       5.3280963747     1.8461626805    -2.4238124314
   51      H       3.8092627185     1.6572522750    -3.3835933457
   52      H       4.9627643301     0.2745741496    -3.2666341526
   53      H       0.6854061624     0.1433408877    -1.3731885805
   54      H       1.3637249185     1.1292691378    -2.7187848084
   55      H      -0.8757891008     2.6800043437    -1.9997138562
   56      H      -0.9207192110     1.3861016787    -3.2514754746
 ----------------------------------------------------------------

    9   -1510.2870592474      2.60E-09 Convergence criterion met
 Total energy in the final basis set = -1510.28705925
 Final energy is   -1510.28705924742
 **  OPTIMIZATION CONVERGED  **

                    Orbital Energies (a.u.)
 --------------------------------------------------------------

 Alpha MOs
 -- Occupied --
-18.944 -18.941 -18.939 -18.924 -18.893 -18.884 -18.882 -18.882
-18.879 -18.872 -10.113 -10.105 -10.104 -10.098 -10.080 -10.079
-10.067 -10.067 -10.064 -10.058 -10.050 -10.049 -10.044 -10.043
-10.037 -10.026 -10.025 -10.018 -10.015 -10.011  -1.023  -1.018
 -1.012  -0.999  -0.976  -0.965  -0.945  -0.944  -0.942  -0.932
 -0.770  -0.758  -0.732  -0.718  -0.717  -0.706  -0.698  -0.663
 -0.661  -0.614  -0.598  -0.587  -0.552  -0.546  -0.542  -0.533
 -0.520  -0.510  -0.495  -0.485  -0.471  -0.467  -0.450  -0.448
 -0.436  -0.429  -0.425  -0.418  -0.417  -0.409  -0.408  -0.405
 -0.390  -0.388  -0.379  -0.378  -0.367  -0.361  -0.357  -0.352
 -0.346  -0.341  -0.339  -0.333  -0.329  -0.325  -0.317  -0.314
 -0.311  -0.308  -0.303  -0.301  -0.300  -0.291  -0.287  -0.280
 -0.277  -0.256  -0.255  -0.245  -0.240  -0.237  -0.228  -0.188
 -0.183  -0.182  -0.167  -0.166  -0.160  -0.155  -0.150  -0.144
 -0.139

          Ground-State Mulliken Net Atomic Charges

     Atom                 Charge (a.u.)
  ----------------------------------------
      1 O                    -0.225145
      2 C                     0.225155
      3 C                    -0.078192
      4 C                    -0.078519
      5 C                     0.213122
      6 O                    -0.174967
      7 C                    -0.048070
      8 C                    -0.050718
      9 O                    -0.183237
     10 C                     0.220277
     11 C                    -0.104355
     12 C                    -0.082827
     13 C                     0.206092
     14 O                    -0.214682
     15 O                    -0.171311
     16 O                    -0.164174
     17 O                    -0.200346
     18 C                    -0.129542
     19 C                     0.025180
     20 C                    -0.145412
     21 C                    -0.143584
     22 C                     0.026161
     23 O                    -0.189671
     24 H                     0.110698
     25 H                     0.085388
     26 H                     0.088411
     27 H                     0.075106
     28 H                     0.080742
     29 H                     0.076567
     30 H                     0.074266
     31 H                     0.081912
     32 O                    -0.209543
     33 C                    -0.145829
     34 C                     0.024191
     35 C                    -0.143785
     36 C                    -0.143783
     37 C                     0.025727
     38 O                    -0.188073
     39 H                     0.086076
     40 H                     0.087146
     41 H                     0.105043
     42 H                     0.088636
     43 H                     0.078746
     44 H                     0.074067
     45 H                     0.078980
     46 H                     0.074973
     47 H                     0.082870
     48 H                     0.083731
     49 H                     0.088924
     50 H                     0.097096
     51 H                     0.084224
     52 H                     0.099102
     53 H                     0.096465
     54 H                     0.082594
     55 H                     0.101163
     56 H                     0.086934
  ----------------------------------------
  Sum of atomic charges =     0.000000

                    Cartesian Multipole Moments
 -----------------------------------------------------------------
    Charge (ESU x 10^10)
                 0.0000
    Dipole Moment (Debye)
         X      -2.9030      Y      -1.7176      Z       0.0805
       Tot       3.3740
    Quadrupole Moments (Debye-Ang)
        XX    -159.8403     XY       3.0776     YY    -167.7475
        XZ      -8.7485     YZ      -4.5661     ZZ    -155.0723

 Total job time:  220.40s(wall), 10519.94s(cpu)
        *  Thank you very much for using Q-Chem.  Have a nice day.  *
