 Q-Chem 5.0, Q-Chem, Inc., Pleasanton, CA (2017)
 Q-Chem 5.0.1 for Intel X86 EM64T Linux

User input:
--------------------------------------------------------------
$molecule
0  1
O -3.94934 -3.66094 2.70899
C -3.26408 -4.56952 2.26188
C -3.36658 -6.02376 2.66595
C -3.41669 -6.33291 4.1712
C -3.53792 -5.14515 5.09996
O -4.52021 -4.3068 4.65532
C -4.01079 -3.12862 4.02157
C -5.08731 -2.04922 3.97562
O -5.30884 -1.63644 2.61789
C -5.54194 -0.31214 2.4417
C -5.74561 0.42758 3.74246
C -4.78636 1.60401 3.97518
C -4.0254 2.08709 2.75686
O -2.974 1.61788 2.34582
O -2.27773 -4.2641 1.37812
O -4.48653 3.19639 2.10856
O -5.61715 0.19191 1.33132
C -3.89059 3.76888 1.00376
C -7.10454 1.21437 3.68088
C -7.66574 1.48572 5.0844
C -6.60055 2.42079 5.61836
C -5.8253 2.70456 4.32204
O -6.76932 2.51965 3.29815
H -5.97898 -0.08107 4.69423
H -4.06074 1.44549 4.80216
H -7.88287 0.71772 3.05985
H -8.61159 2.05582 4.93376
H -7.88192 0.60665 5.72923
H -7.10507 3.32298 6.02865
H -5.91724 1.97896 6.37588
H -5.35866 3.71357 4.3759
O -2.75701 -4.87887 6.0026
C -2.01841 -2.99039 0.91591
C -4.71748 -6.62611 2.22423
C -4.60414 -8.14736 2.12278
C -4.54055 -8.5231 3.58882
C -4.72366 -7.14585 4.23471
O -5.56194 -6.46228 3.3358
H -2.55176 -6.57701 2.14573
H -2.54455 -6.93336 4.5133
H -1.7508 -2.32229 1.76233
H -5.08737 -6.205 1.26331
H -5.56499 -8.52309 1.70342
H -3.76251 -8.51813 1.49907
H -5.41037 -9.17678 3.82212
H -3.59804 -9.01446 3.91393
H -5.10402 -7.25017 5.27505
H -2.90865 -2.5866 0.38765
H -1.16669 -3.02686 0.20631
H -4.48191 4.65308 0.68925
H -3.86199 3.04061 0.16524
H -2.85911 4.09816 1.25224
H -6.03404 -2.37146 4.46539
H -4.50524 -1.27743 4.53836
H -2.88341 -2.76059 4.15534
H -3.53597 -2.81578 5.00392
$end

$opt
CONSTRAINT
tors           1           2           3           4     -47.368
tors           3           4           5           6     +47.368
tors           4           5           6           7    -104.211
tors           5           6           7           8    -161.053
tors           6           7           8           9    -123.158
tors           7           8           9          10    -142.105
tors           8           9          10          11      -9.474
tors           9          10          11          12    +123.158
tors          11          12          13          14     -85.263
ENDCONSTRAINT
$end

$rem
JOBTYPE                   OPT
METHOD                    B3LYP
DFT_D                     d3_op
BASIS                     STO-3G
GEOM_OPT_MAX_CYCLES       100
GEOM_OPT_TOL_GRADIENT     300
GEOM_OPT_TOL_DISPLACEMENT 1200
GEOM_OPT_TOL_ENERGY       100
SYMMETRY                  False
THRESH                    12
SCF_CONVERGENCE           8
MAX_SUB_FILE_NUM          128
MEM_STATIC                400
MEM_TOTAL                 4000
$end
--------------------------------------------------------------

   17   -1509.7659570337      2.89E-09 Convergence criterion met
 Total energy in the final basis set = -1509.76595703
   15   -1509.8800926816      3.68E-09 Convergence criterion met
 Total energy in the final basis set = -1509.88009268
   14   -1509.9580577671      8.19E-09 Convergence criterion met
 Total energy in the final basis set = -1509.95805777
   14   -1510.0170696951      9.85E-09 Convergence criterion met
 Total energy in the final basis set = -1510.01706970
   14   -1510.0586695703      6.26E-09 Convergence criterion met
 Total energy in the final basis set = -1510.05866957
   14   -1510.0888265794      5.31E-09 Convergence criterion met
 Total energy in the final basis set = -1510.08882658
   14   -1510.1114433229      5.15E-09 Convergence criterion met
 Total energy in the final basis set = -1510.11144332
   14   -1510.1292060169      4.84E-09 Convergence criterion met
   12   -1510.2368716749      4.31E-09 Convergence criterion met
 Total energy in the final basis set = -1510.23687167
   11   -1510.2369525335      6.07E-09 Convergence criterion met
 Total energy in the final basis set = -1510.23695253
   11   -1510.2369980718      6.72E-09 Convergence criterion met
 Total energy in the final basis set = -1510.23699807
   11   -1510.2370629003      9.37E-09 Convergence criterion met
 Total energy in the final basis set = -1510.23706290
   11   -1510.2370862868      6.53E-09 Convergence criterion met
 Total energy in the final basis set = -1510.23708629
   10   -1510.2370875034      6.55E-09 Convergence criterion met
 Total energy in the final basis set = -1510.23708750

             Standard Nuclear Orientation (Angstroms)
    I     Atom           X                Y                Z
 ----------------------------------------------------------------
    1      O       2.6002897362     0.2112113192    -1.8481553156
    2      C       2.8997833953     1.0650874807    -0.9873936084
    3      C       4.1716605438     1.0860738555    -0.0580350901
    4      C       4.5045619237    -0.2815917064     0.6680134310
    5      C       3.3476128657    -1.1987120929     1.2206792432
    6      O       2.2343189817    -1.4486783018     0.3153570064
    7      C       1.0948971228    -0.6124575752     0.7692986499
    8      C      -0.2138408454    -1.2191105319     0.1376064201
    9      O      -0.8559916771    -0.1317025905    -0.6382980186
   10      C      -2.2907466446    -0.0241599117    -0.6388749219
   11      C      -3.1925781376    -1.1595478719    -0.0190467802
   12      C      -4.1620787596    -0.6229398415     1.1246708976
   13      C      -3.9839033749     0.9178077313     1.3884533622
   14      O      -3.1354780140     1.4407852525     2.1450812871
   15      O       2.0734378741     2.1927175087    -0.6621971630
   16      O      -4.9477133296     1.6471422878     0.6310190556
   17      O      -2.7551435732     1.0043133036    -1.1798722931
   18      C      -4.7148834015     3.1018745792     0.7806688921
   19      C      -4.2584383531    -1.6657063232    -1.0933872352
   20      C      -4.8379740632    -3.0438283172    -0.5830464408
   21      C      -5.7670386292    -2.5604877649     0.5914455705
   22      C      -5.5758761541    -0.9929650071     0.5119112545
   23      O      -5.3943680797    -0.7349537904    -0.9355046097
   24      H      -2.5959655689    -2.0090866933     0.3435323046
   25      H      -3.9657761811    -1.1515502756     2.0750967661
   26      H      -3.8947398789    -1.6614688646    -2.1393277801
   27      H      -5.4180503341    -3.5333983084    -1.3814038484
   28      H      -4.0459535749    -3.7326006204    -0.2480189522
   29      H      -6.8198261820    -2.8290522943     0.4100549277
   30      H      -5.4640315977    -2.9670573210     1.5696349574
   31      H      -6.4163254855    -0.3926761077     0.9088621832
   32      O       3.3913938576    -1.7126586064     2.3600481677
   33      C       0.8679724571     2.2102798312    -1.5353486477
   34      C       5.4103542509     1.1282875504    -1.0616944525
   35      C       6.7849453509     1.1522200523    -0.2777903551
   36      C       6.9691898562    -0.3701397282     0.0848552000
   37      C       5.5602931841    -0.9300715492    -0.3501552528
   38      O       5.3401385997    -0.2374091910    -1.6374135470
   39      H       4.1187458939     1.9375081483     0.6422315166
   40      H       5.0630903972    -0.0246943464     1.5870025945
   41      H       0.1805372892     1.3631778009    -1.2954410927
   42      H       5.3160773790     1.8881050416    -1.8617354759
   43      H       7.5952458356     1.5191062055    -0.9271254487
   44      H       6.7334296154     1.7945642684     0.6161705144
   45      H       7.7662891395    -0.8319784197    -0.5201613880
   46      H       7.1876915202    -0.5369385633     1.1516777303
   47      H       5.4889673795    -2.0275256927    -0.4780223477
   48      H       1.1474705372     2.1603593661    -2.6062235546
   49      H       0.3631295028     3.1710974694    -1.3278222458
   50      H      -5.5388691828     3.5989541774     0.2368071471
   51      H      -3.7439343400     3.3967807465     0.3329088759
   52      H      -4.7260383372     3.4119096657     1.8455861260
   53      H       0.0620759280    -2.0554589189    -0.5431364360
   54      H      -0.8670446145    -1.6066421646     0.9415220158
   55      H       1.2038499302     0.4495737586     0.4620924105
   56      H       1.0074506909    -0.6355224223     1.8782995105
 ----------------------------------------------------------------

    9   -1510.2370875654      6.81E-09 Convergence criterion met
 Total energy in the final basis set = -1510.23708757
 Final energy is   -1510.23708756536
 **  OPTIMIZATION CONVERGED  **

                    Orbital Energies (a.u.)
 --------------------------------------------------------------

 Alpha MOs
 -- Occupied --
-18.943 -18.936 -18.922 -18.905 -18.902 -18.893 -18.890 -18.880
-18.871 -18.867 -10.110 -10.108 -10.099 -10.090 -10.083 -10.071
-10.065 -10.063 -10.062 -10.061 -10.060 -10.045 -10.042 -10.039
-10.038 -10.036 -10.025 -10.023 -10.022 -10.021  -1.015  -1.010
 -1.008  -1.001  -0.974  -0.972  -0.945  -0.935  -0.934  -0.924
 -0.767  -0.763  -0.726  -0.723  -0.714  -0.710  -0.701  -0.658
 -0.649  -0.605  -0.603  -0.590  -0.553  -0.547  -0.542  -0.538
 -0.519  -0.515  -0.493  -0.479  -0.470  -0.461  -0.454  -0.444
 -0.437  -0.435  -0.419  -0.416  -0.409  -0.408  -0.404  -0.401
 -0.395  -0.386  -0.376  -0.369  -0.362  -0.353  -0.350  -0.349
 -0.347  -0.340  -0.335  -0.335  -0.331  -0.328  -0.320  -0.314
 -0.309  -0.309  -0.307  -0.306  -0.303  -0.288  -0.283  -0.276
 -0.272  -0.256  -0.250  -0.246  -0.240  -0.237  -0.233  -0.179
 -0.175  -0.174  -0.164  -0.158  -0.154  -0.148  -0.148  -0.146
 -0.136

          Ground-State Mulliken Net Atomic Charges

     Atom                 Charge (a.u.)
  ----------------------------------------
      1 O                    -0.201775
      2 C                     0.203608
      3 C                    -0.079441
      4 C                    -0.084882
      5 C                     0.216065
      6 O                    -0.189661
      7 C                    -0.050941
      8 C                    -0.044632
      9 O                    -0.171643
     10 C                     0.207912
     11 C                    -0.084500
     12 C                    -0.078722
     13 C                     0.207284
     14 O                    -0.219551
     15 O                    -0.177607
     16 O                    -0.159986
     17 O                    -0.197126
     18 C                    -0.126389
     19 C                     0.027466
     20 C                    -0.143863
     21 C                    -0.144889
     22 C                     0.027017
     23 O                    -0.181032
     24 H                     0.078600
     25 H                     0.082417
     26 H                     0.085708
     27 H                     0.079746
     28 H                     0.072307
     29 H                     0.079076
     30 H                     0.072983
     31 H                     0.089379
     32 O                    -0.185007
     33 C                    -0.145811
     34 C                     0.025521
     35 C                    -0.145979
     36 C                    -0.140623
     37 C                     0.027340
     38 O                    -0.181876
     39 H                     0.086262
     40 H                     0.082675
     41 H                     0.108298
     42 H                     0.083183
     43 H                     0.078835
     44 H                     0.074031
     45 H                     0.078507
     46 H                     0.074791
     47 H                     0.086215
     48 H                     0.084122
     49 H                     0.084060
     50 H                     0.092221
     51 H                     0.093498
     52 H                     0.088182
     53 H                     0.097466
     54 H                     0.086402
     55 H                     0.094034
     56 H                     0.080721
  ----------------------------------------
  Sum of atomic charges =    -0.000000

                    Cartesian Multipole Moments
 -----------------------------------------------------------------
    Charge (ESU x 10^10)
                -0.0000
    Dipole Moment (Debye)
         X      -0.1706      Y      -0.6753      Z       2.1272
       Tot       2.2384
    Quadrupole Moments (Debye-Ang)
        XX    -145.8660     XY      12.9944     YY    -152.3882
        XZ      -3.1011     YZ      -0.0982     ZZ    -169.3059

 Total job time:  133.37s(wall), 6356.89s(cpu)
        *  Thank you very much for using Q-Chem.  Have a nice day.  *
