 Q-Chem 5.0, Q-Chem, Inc., Pleasanton, CA (2017)
 Q-Chem 5.0.1 for Intel X86 EM64T Linux

User input:
--------------------------------------------------------------
$molecule
0  1
O -1.1438965995 -2.6405271379 1.3304591073
C -1.9347481982 -2.1455934646 0.4935000654
C -2.8141741742 -0.8559454163 0.6690847452
C -2.0756233259 0.4341266956 1.2437477497
C -0.4968996848 0.2904093774 1.4245727695
O -0.1794253962 1.011591473 2.6433048401
C 0.8796041548 0.442750175 3.5579704178
C 2.0199983609 -0.4076827362 2.9341517843
O 3.0600623213 0.0555714051 2.0455055771
C 3.1612956292 1.1037276943 1.2311717118
C 2.2090134759 1.3891371268 -0.0913055119
C 1.9912709753 0.3509624577 -1.556079306
C 2.4510069327 -1.3874723256 -1.4221544608
O 2.9642801009 -1.4199991888 0.0050964014
O -2.1301445756 -2.6686725925 -0.8290267298
O 1.9005775624 -2.0594951201 -2.2733166258
O 3.7536318612 2.2086459395 1.416272261
C 2.5045405373 -3.402423997 -2.1177399031
C 0.9596799627 2.3655279785 -0.4371136834
C 1.3835345964 3.2493769436 -1.7237132348
C 1.1531312248 2.2111864032 -2.9005935131
C 0.6182186085 0.9037812588 -2.0779833655
O -0.1494152698 1.5460509254 -0.9904455538
H 3.0215438861 1.8514584642 -0.7192896891
H 2.7640043335 0.6485426036 -2.0248026576
H 0.5732792642 2.9397281917 0.4263453543
H 0.7097724685 4.1206680912 -1.8364345539
H 2.4303916108 3.6230179257 -1.6694903335
H 0.3794651505 2.5706365038 -3.6054162115
H 2.0820269176 2.0206457124 -3.4806458341
H -0.0327249681 0.2250512449 -2.6538910684
O 0.3275934742 -0.4028726351 0.7641925868
C -1.2191367596 -3.8210041911 -1.0304977346
C -3.4619654574 -0.2927515313 -0.6751230428
C -4.7777900666 0.4804805707 -0.2823985489
C -4.1665766828 1.7263722307 0.4611548885
C -2.6106509274 1.5212395811 0.2056129383
O -2.5599467379 0.806972868 -1.0929721235
H -3.6231088094 -1.1271585764 1.3662375116
H -2.4296294865 0.6636466269 2.2654202905
H -1.4057367856 -4.628979628 -0.2936162016
H -3.5571598519 -1.0439956312 -1.481378903
H -5.3182557832 0.7862295285 -1.1905895615
H -5.4534867258 -0.1143429688 0.3524082185
H -4.5129874466 2.6737744211 0.0216936485
H -4.4071584653 1.7302866604 1.5349242383
H -2.0231650367 2.4559171459 0.1563379197
H -0.1594434675 -3.5072698042 -0.9521108188
H -1.418843915 -4.1852570158 -2.0526589518
H 2.055465688 -4.0112528929 -2.9141876175
H 2.2792865037 -3.8406578871 -1.1228935767
H 3.6063370556 -3.3532848826 -2.2447497639
H 2.6171008018 -0.8022602991 3.8242978179
H 1.5903035361 -1.3121594906 2.4271693907
H 0.3517954796 -0.2711372221 4.227739198
H 1.2680504543 1.2795871564 4.1149881428
$end

$rem
JOBTYPE                   OPT
METHOD                    B3LYP
DFT_D                     d3_op
BASIS                     STO-3G
GEOM_OPT_MAX_CYCLES       100
GEOM_OPT_TOL_GRADIENT     300
GEOM_OPT_TOL_DISPLACEMENT 1200
GEOM_OPT_TOL_ENERGY       100
SYMMETRY                  False
THRESH                    12
SCF_CONVERGENCE           8
MAX_SUB_FILE_NUM          128
MEM_STATIC                400
MEM_TOTAL                 4000
$end
--------------------------------------------------------------

   19   -1509.9285544552      7.01E-09 Convergence criterion met
 Total energy in the final basis set = -1509.92855446
   15   -1510.0203039147      6.22E-09 Convergence criterion met
 Total energy in the final basis set = -1510.02030391
   15   -1510.0629743745      5.14E-09 Convergence criterion met
 Total energy in the final basis set = -1510.06297437
   15   -1510.1190049579      4.56E-09 Convergence criterion met
 Total energy in the final basis set = -1510.11900496
   15   -1510.1421983894      5.30E-09 Convergence criterion met
 Total energy in the final basis set = -1510.14219839
   14   -1510.1693123216      2.30E-09 Convergence criterion met
 Total energy in the final basis set = -1510.16931232
   13   -1510.1919021858      9.16E-09 Convergence criterion met
 Total energy in the final basis set = -1510.19190219
   13   -1510.2096165867      8.38E-09 Convergence criterion met
   10   -1510.2877309610      7.32E-09 Convergence criterion met
 Total energy in the final basis set = -1510.28773096
   11   -1510.2877334445      4.08E-09 Convergence criterion met
 Total energy in the final basis set = -1510.28773344
   11   -1510.2877347498      4.62E-09 Convergence criterion met
 Total energy in the final basis set = -1510.28773475
   10   -1510.2877333218      4.76E-09 Convergence criterion met
 Total energy in the final basis set = -1510.28773332
    9   -1510.2877311028      7.56E-09 Convergence criterion met
 Total energy in the final basis set = -1510.28773110
    9   -1510.2877311036      2.43E-09 Convergence criterion met
 Total energy in the final basis set = -1510.28773110

             Standard Nuclear Orientation (Angstroms)
    I     Atom           X                Y                Z
 ----------------------------------------------------------------
    1      O       3.9355002912     1.0447201028     3.2311673649
    2      C       3.8210508599     1.1263068091     1.9882319179
    3      C       3.7810852731    -0.0817255956     0.9781444318
    4      C       2.3276698832    -0.6892130162     0.7866068382
    5      C       1.2277723021     0.0462435968     1.6121509970
    6      O       0.1263365341    -0.8545264843     1.8248622174
    7      C      -1.0179216649    -0.1303296896     2.4339508474
    8      C      -1.9050043232     0.5978607918     1.3370852495
    9      O      -3.2985799436     0.0979623250     1.3610632706
   10      C      -3.4988267478    -1.1907739875     0.7565333103
   11      C      -2.7667791113    -1.5997332644    -0.5938658714
   12      C      -3.0467887600    -0.6140574997    -1.8173915674
   13      C      -3.8094088644     0.6971877069    -1.3990471867
   14      O      -5.0431541385     0.8123471695    -1.2351325276
   15      O       3.7707442736     2.3587816472     1.2632710292
   16      O      -2.8734909521     1.7650615221    -1.2355583119
   17      O      -4.3967287297    -1.9184445815     1.2391196242
   18      C      -3.5724739882     2.9797058846    -0.7574282033
   19      C      -1.1835597208    -1.6812531257    -0.6225456388
   20      C      -0.7595537687    -2.6045719691    -1.8247483298
   21      C      -1.0533384003    -1.6677720547    -3.0583716049
   22      C      -1.5794863597    -0.3614874169    -2.3481165373
   23      O      -0.7792099047    -0.3275277506    -1.0962506789
   24      H      -3.1863431158    -2.5949393248    -0.8236219630
   25      H      -3.6678650484    -1.1239001187    -2.5754351693
   26      H      -0.6806242285    -1.8566427960     0.3534878632
   27      H       0.3104499428    -2.8570620179    -1.7589205806
   28      H      -1.3433858742    -3.5380433998    -1.8520764013
   29      H      -0.1346868835    -1.4505207623    -3.6267378628
   30      H      -1.8028137737    -2.0913700334    -3.7458314893
   31      H      -1.4447894376     0.5803897363    -2.9135923465
   32      O       1.2436370224     1.2255428904     2.0274003757
   33      C       3.6900903006     3.4913435969     2.2115353112
   34      C       4.1234330158     0.3350167927    -0.5130999062
   35      C       4.4115172268    -0.9772487759    -1.3467055680
   36      C       2.9539909455    -1.5366201282    -1.5490804756
   37      C       2.1005897739    -0.4553991752    -0.7777369661
   38      O       2.8235695788     0.8053506613    -1.0427374441
   39      H       4.4709816352    -0.8561561501     1.3584986356
   40      H       2.2930366985    -1.7638201490     1.0390833202
   41      H       4.5473402671     3.5015614200     2.9156485110
   42      H       4.8895338392     1.1287160850    -0.6011107054
   43      H       4.8853260935    -0.7263236178    -2.3089752985
   44      H       5.0654358267    -1.6785502507    -0.8041396916
   45      H       2.6748502003    -1.5565132453    -2.6148890371
   46      H       2.8256095596    -2.5487882771    -1.1328297883
   47      H       1.0227036630    -0.3677902340    -1.0670281123
   48      H       2.7494903679     3.4507804575     2.7980216543
   49      H       3.7033938902     4.4085034908     1.5945787516
   50      H      -2.7846244271     3.7366920314    -0.5890666828
   51      H      -4.1146272922     2.7843432237     0.1901380788
   52      H      -4.2964738582     3.3560253497    -1.5087923748
   53      H      -1.9872473277     1.6735574870     1.5860022752
   54      H      -1.4331050101     0.4857588636     0.3236399405
   55      H      -0.6402863148     0.6055741843     3.1732589215
   56      H      -1.6226927650    -0.9010200628     2.9544475466
 ----------------------------------------------------------------

    9   -1510.2877315427      3.33E-09 Convergence criterion met
 Total energy in the final basis set = -1510.28773154
 Final energy is   -1510.28773154271
 **  OPTIMIZATION CONVERGED  **

                    Orbital Energies (a.u.)
 --------------------------------------------------------------

 Alpha MOs
 -- Occupied --
-18.941 -18.941 -18.932 -18.925 -18.922 -18.886 -18.881 -18.880
-18.880 -18.857 -10.106 -10.105 -10.102 -10.088 -10.082 -10.071
-10.070 -10.068 -10.053 -10.053 -10.052 -10.051 -10.046 -10.041
-10.037 -10.035 -10.035 -10.031 -10.017 -10.016  -1.020  -1.018
 -1.005  -0.999  -0.997  -0.963  -0.945  -0.942  -0.935  -0.922
 -0.779  -0.759  -0.736  -0.721  -0.721  -0.708  -0.692  -0.667
 -0.650  -0.615  -0.607  -0.582  -0.565  -0.555  -0.540  -0.533
 -0.525  -0.508  -0.490  -0.481  -0.478  -0.458  -0.452  -0.444
 -0.439  -0.430  -0.426  -0.421  -0.415  -0.412  -0.404  -0.401
 -0.388  -0.387  -0.381  -0.373  -0.370  -0.358  -0.354  -0.352
 -0.350  -0.346  -0.339  -0.335  -0.330  -0.326  -0.324  -0.321
 -0.315  -0.312  -0.307  -0.301  -0.300  -0.294  -0.287  -0.276
 -0.273  -0.264  -0.256  -0.255  -0.241  -0.235  -0.226  -0.193
 -0.184  -0.179  -0.164  -0.162  -0.160  -0.155  -0.149  -0.141
 -0.136

          Ground-State Mulliken Net Atomic Charges

     Atom                 Charge (a.u.)
  ----------------------------------------
      1 O                    -0.222571
      2 C                     0.211764
      3 C                    -0.080414
      4 C                    -0.081758
      5 C                     0.214672
      6 O                    -0.178064
      7 C                    -0.058788
      8 C                    -0.074102
      9 O                    -0.178911
     10 C                     0.204165
     11 C                    -0.086366
     12 C                    -0.081438
     13 C                     0.206888
     14 O                    -0.207478
     15 O                    -0.166133
     16 O                    -0.170436
     17 O                    -0.193869
     18 C                    -0.128402
     19 C                     0.011496
     20 C                    -0.144400
     21 C                    -0.143771
     22 C                     0.028158
     23 O                    -0.182724
     24 H                     0.090335
     25 H                     0.089767
     26 H                     0.107971
     27 H                     0.081826
     28 H                     0.079463
     29 H                     0.082031
     30 H                     0.079015
     31 H                     0.097209
     32 O                    -0.206560
     33 C                    -0.126734
     34 C                     0.026337
     35 C                    -0.144910
     36 C                    -0.145969
     37 C                     0.004699
     38 O                    -0.189954
     39 H                     0.081739
     40 H                     0.082583
     41 H                     0.086128
     42 H                     0.086569
     43 H                     0.075729
     44 H                     0.071641
     45 H                     0.072165
     46 H                     0.068314
     47 H                     0.104584
     48 H                     0.092503
     49 H                     0.087633
     50 H                     0.092527
     51 H                     0.095523
     52 H                     0.089679
     53 H                     0.085616
     54 H                     0.115968
     55 H                     0.097597
     56 H                     0.091457
  ----------------------------------------
  Sum of atomic charges =     0.000000

                    Cartesian Multipole Moments
 -----------------------------------------------------------------
    Charge (ESU x 10^10)
                -0.0000
    Dipole Moment (Debye)
         X       1.6911      Y      -1.0040      Z      -3.1378
       Tot       3.7031
    Quadrupole Moments (Debye-Ang)
        XX    -178.6297     XY      -8.1216     YY    -150.8553
        XZ       2.8811     YZ       5.8859     ZZ    -161.1880

 Total job time:  163.66s(wall), 7813.62s(cpu)
        *  Thank you very much for using Q-Chem.  Have a nice day.  *
