 Q-Chem 5.0, Q-Chem, Inc., Pleasanton, CA (2017)
 Q-Chem 5.0.1 for Intel X86 EM64T Linux

User input:
--------------------------------------------------------------
$molecule
0  1
O -3.94934 -3.66094 2.70899
C -3.26408 -4.56952 2.26188
C -3.36658 -6.02376 2.66595
C -4.66266 -6.76517 2.29943
C -5.63801 -6.02118 1.41441
O -5.50887 -4.67566 1.61014
C -5.2159 -3.95716 0.40715
C -5.08646 -2.46666 0.70341
O -4.03409 -1.89909 -0.09236
C -4.07126 -0.55068 -0.23223
C -4.72204 0.1447 0.93978
C -6.1495 0.64891 0.68209
C -6.83729 0.08673 -0.54575
O -7.70999 -0.76938 -0.53977
O -2.19649 -4.25286 1.47392
O -6.35068 0.50787 -1.74352
O -3.31661 0.0157 -1.00953
C -6.80467 0.06326 -2.96736
C -4.81985 -0.11468 2.47812
C -4.92215 1.19657 3.27728
C -6.36546 1.58783 3.00204
C -6.79751 0.45181 2.07029
O -6.1258 -0.63823 2.63826
H -4.077 1.05308 0.93769
H -6.17399 1.74244 0.4671
H -3.96913 -0.71654 2.86538
H -4.82519 0.96865 4.36253
H -4.16045 1.95504 2.99609
H -6.94248 1.49583 3.94989
H -6.51041 2.60783 2.58541
H -7.90545 0.38196 2.02153
O -6.59146 -6.52323 0.8374
C -1.66902 -2.99606 1.25206
C -2.32236 -6.93478 1.98052
C -2.14033 -8.22984 2.77552
C -3.41607 -8.95757 2.42109
C -4.06748 -7.93635 1.48843
O -2.97583 -7.36128 0.814
H -3.1963 -6.03551 3.76535
H -5.23514 -7.14983 3.17224
H -2.21367 -2.20095 1.80254
H -1.32801 -6.45836 1.84302
H -1.28267 -8.79338 2.34347
H -1.96925 -8.06851 3.8617
H -3.15145 -9.8646 1.83225
H -4.05872 -9.24336 3.28162
H -4.81946 -8.44559 0.84588
H -1.68189 -2.77922 0.16499
H -0.61311 -2.98636 1.59155
H -6.23495 0.57055 -3.77264
H -7.88307 0.30286 -3.08556
H -6.65064 -1.03348 -3.05656
H -6.07805 -2.08891 0.44539
H -5.01286 -2.25773 1.70784
H -5.9781 -4.12894 -0.38787
H -4.26203 -4.33542 -0.02246
$end

$opt
CONSTRAINT
tors           1           2           3           4     +66.316
tors           3           4           5           6     -28.421
tors           4           5           6           7    +123.158
tors           5           6           7           8    -180.000
tors           6           7           8           9    +142.105
tors           7           8           9          10    +161.053
tors           8           9          10          11     +28.421
tors           9          10          11          12    -104.211
tors          11          12          13          14    +104.211
ENDCONSTRAINT
$end

$rem
JOBTYPE                   OPT
METHOD                    B3LYP
DFT_D                     d3_op
BASIS                     STO-3G
GEOM_OPT_MAX_CYCLES       100
GEOM_OPT_TOL_GRADIENT     300
GEOM_OPT_TOL_DISPLACEMENT 1200
GEOM_OPT_TOL_ENERGY       100
SYMMETRY                  False
THRESH                    12
SCF_CONVERGENCE           8
MAX_SUB_FILE_NUM          128
MEM_STATIC                400
MEM_TOTAL                 4000
$end
--------------------------------------------------------------

   15   -1510.0611051167      8.22E-09 Convergence criterion met
 Total energy in the final basis set = -1510.06110512
   14   -1510.1323119574      3.51E-09 Convergence criterion met
 Total energy in the final basis set = -1510.13231196
   14   -1510.1873847548      7.58E-09 Convergence criterion met
 Total energy in the final basis set = -1510.18738475
   14   -1510.2154624215      4.82E-09 Convergence criterion met
 Total energy in the final basis set = -1510.21546242
   13   -1510.2306674125      7.18E-09 Convergence criterion met
 Total energy in the final basis set = -1510.23066741
   13   -1510.2389605865      8.01E-09 Convergence criterion met
 Total energy in the final basis set = -1510.23896059
   13   -1510.2438983095      6.92E-09 Convergence criterion met
 Total energy in the final basis set = -1510.24389831
   13   -1510.2469927182      4.99E-09 Convergence criterion met
   10   -1510.2510141581      7.59E-09 Convergence criterion met
 Total energy in the final basis set = -1510.25101416
    9   -1510.2510199205      6.96E-09 Convergence criterion met
 Total energy in the final basis set = -1510.25101992
    9   -1510.2510243126      8.02E-09 Convergence criterion met
 Total energy in the final basis set = -1510.25102431
    9   -1510.2510278999      5.79E-09 Convergence criterion met
 Total energy in the final basis set = -1510.25102790
    9   -1510.2510305410      5.96E-09 Convergence criterion met
 Total energy in the final basis set = -1510.25103054
    9   -1510.2510317538      5.86E-09 Convergence criterion met
 Total energy in the final basis set = -1510.25103175

             Standard Nuclear Orientation (Angstroms)
    I     Atom           X                Y                Z
 ----------------------------------------------------------------
    1      O      -1.5024595245    -1.9394332192     0.5271822422
    2      C      -2.3775359222    -1.4323702232    -0.2103309515
    3      C      -3.8140001741    -0.9256333250     0.2041673944
    4      C      -3.9475369927     0.3339104942     1.1690188963
    5      C      -2.6931155444     1.2802754819     1.3751375573
    6      O      -1.4384772838     0.5943081052     1.2125292233
    7      C      -0.6130631145     1.2397227924     0.1673261204
    8      C       0.6998086665     0.3809414591     0.1177731240
    9      O       1.0911233500     0.3006032768    -1.3131793731
   10      C       2.4593518176    -0.0623834197    -1.5946350253
   11      C       3.3364833894    -0.9693016673    -0.6303463439
   12      C       4.4096764852    -0.1387920879     0.2074338092
   13      C       4.0744579635     1.3943260048     0.2622860343
   14      O       3.5954598505     2.0290857954     1.2282167116
   15      O      -2.2179353951    -1.2507512539    -1.6198764747
   16      O       4.4027211161     1.9762275356    -1.0002554922
   17      O       2.8778254288     0.2482019131    -2.7321477608
   18      C       4.0119021248     3.4054269309    -1.0216878948
   19      C       2.6972637519    -1.8725865287     0.5094357676
   20      C       3.7254250199    -3.0307078811     0.8228827676
   21      C       4.8432289828    -2.2478275450     1.6053712422
   22      C       4.2309555885    -0.7937594208     1.6380372172
   23      O       2.7681508259    -1.0248127589     1.7231361427
   24      H       3.8791392106    -1.6190983745    -1.3412416811
   25      H       5.4252483760    -0.2749015661    -0.2042599167
   26      H       1.6644612121    -2.2202672168     0.3213095846
   27      H       3.2486754298    -3.7930143836     1.4594382570
   28      H       4.1010097371    -3.5179258462    -0.0910700998
   29      H       4.9718718313    -2.6388201787     2.6269708996
   30      H       5.8172886993    -2.2712849585     1.0913631100
   31      H       4.5631737282    -0.1493631180     2.4746825184
   32      O      -2.7834898491     2.5036046598     1.6165702291
   33      C      -0.8991528685    -1.7536516791    -2.0774369444
   34      C      -4.7363338760    -0.4707415423    -1.0107992061
   35      C      -6.2395756346    -0.7080888071    -0.5937535446
   36      C      -6.4401556492     0.4418144465     0.4617790600
   37      C      -5.0442146478     1.1763673761     0.3871989264
   38      O      -4.6210609888     1.0058480529    -1.0229703626
   39      H      -4.2831097571    -1.7858672850     0.7182860588
   40      H      -4.3095003383     0.0150397641     2.1646211812
   41      H      -0.6182383941    -2.6783159043    -1.5359461494
   42      H      -4.4337424003    -0.8923682667    -1.9876345248
   43      H      -6.9030061283    -0.5768493698    -1.4635922519
   44      H      -6.4049915473    -1.7117602414    -0.1706619038
   45      H      -7.2518095041     1.1266144192     0.1689503254
   46      H      -6.6509992488     0.0583754830     1.4730148003
   47      H      -5.0490558409     2.2478268145     0.6682757259
   48      H      -0.1088590011    -0.9791700634    -1.9231681478
   49      H      -1.0092221661    -1.9676274343    -3.1562524659
   50      H       4.3070459804     3.7853093438    -2.0168461521
   51      H       4.5313932721     3.9832570376    -0.2303275750
   52      H       2.9174489747     3.5262040274    -0.8883419229
   53      H       1.5068588505     0.7983051516     0.7539056452
   54      H       0.4156057417    -0.6222042632     0.5033921300
   55      H      -0.4051226612     2.3076275162     0.3978273701
   56      H      -1.1216032587     1.1828318543    -0.8226650683
 ----------------------------------------------------------------

    9   -1510.2510324169      3.10E-09 Convergence criterion met
 Total energy in the final basis set = -1510.25103242
 Final energy is   -1510.25103241691
 **  OPTIMIZATION CONVERGED  **

                    Orbital Energies (a.u.)
 --------------------------------------------------------------

 Alpha MOs
 -- Occupied --
-18.943 -18.940 -18.927 -18.913 -18.895 -18.891 -18.885 -18.883
-18.882 -18.866 -10.108 -10.105 -10.105 -10.096 -10.072 -10.068
-10.068 -10.067 -10.065 -10.056 -10.054 -10.045 -10.044 -10.043
-10.036 -10.034 -10.026 -10.025 -10.019 -10.017  -1.020  -1.012
 -1.009  -1.003  -0.977  -0.967  -0.946  -0.942  -0.937  -0.927
 -0.770  -0.759  -0.728  -0.721  -0.711  -0.707  -0.701  -0.667
 -0.652  -0.605  -0.601  -0.584  -0.556  -0.544  -0.542  -0.535
 -0.523  -0.510  -0.489  -0.481  -0.472  -0.461  -0.451  -0.446
 -0.440  -0.431  -0.425  -0.418  -0.413  -0.408  -0.406  -0.403
 -0.388  -0.382  -0.377  -0.373  -0.363  -0.358  -0.355  -0.351
 -0.341  -0.340  -0.338  -0.331  -0.330  -0.328  -0.323  -0.317
 -0.314  -0.311  -0.304  -0.303  -0.295  -0.285  -0.283  -0.280
 -0.275  -0.259  -0.250  -0.246  -0.242  -0.240  -0.231  -0.185
 -0.182  -0.171  -0.163  -0.159  -0.158  -0.153  -0.150  -0.148
 -0.140

          Ground-State Mulliken Net Atomic Charges

     Atom                 Charge (a.u.)
  ----------------------------------------
      1 O                    -0.218783
      2 C                     0.210905
      3 C                    -0.081179
      4 C                    -0.078254
      5 C                     0.218860
      6 O                    -0.185741
      7 C                    -0.045133
      8 C                    -0.055772
      9 O                    -0.175382
     10 C                     0.206428
     11 C                    -0.085359
     12 C                    -0.079575
     13 C                     0.203358
     14 O                    -0.212573
     15 O                    -0.173685
     16 O                    -0.165160
     17 O                    -0.191027
     18 C                    -0.127788
     19 C                     0.019788
     20 C                    -0.142324
     21 C                    -0.144330
     22 C                     0.024247
     23 O                    -0.188829
     24 H                     0.089133
     25 H                     0.089351
     26 H                     0.088958
     27 H                     0.080844
     28 H                     0.074693
     29 H                     0.080071
     30 H                     0.074586
     31 H                     0.089814
     32 O                    -0.193950
     33 C                    -0.148088
     34 C                     0.021980
     35 C                    -0.143547
     36 C                    -0.145041
     37 C                     0.022424
     38 O                    -0.193174
     39 H                     0.081885
     40 H                     0.085102
     41 H                     0.081956
     42 H                     0.093022
     43 H                     0.077406
     44 H                     0.072305
     45 H                     0.078215
     46 H                     0.073150
     47 H                     0.089859
     48 H                     0.103042
     49 H                     0.083718
     50 H                     0.095475
     51 H                     0.090486
     52 H                     0.090036
     53 H                     0.100831
     54 H                     0.103023
     55 H                     0.088188
     56 H                     0.091557
  ----------------------------------------
  Sum of atomic charges =    -0.000000

                    Cartesian Multipole Moments
 -----------------------------------------------------------------
    Charge (ESU x 10^10)
                -0.0000
    Dipole Moment (Debye)
         X       0.9108      Y      -2.2322      Z       0.2219
       Tot       2.4210
    Quadrupole Moments (Debye-Ang)
        XX    -137.9330     XY       2.9555     YY    -155.9530
        XZ       0.1558     YZ      -0.2840     ZZ    -170.9383

 Total job time:  72.99s(wall), 3474.48s(cpu)
        *  Thank you very much for using Q-Chem.  Have a nice day.  *
