 Q-Chem 5.0, Q-Chem, Inc., Pleasanton, CA (2017)
 Q-Chem 5.0.1 for Intel X86 EM64T Linux

User input:
--------------------------------------------------------------
$molecule
0  1
O -1.5024595245 -1.9394332192 0.5271822422
C -2.3775359222 -1.4323702232 -0.2103309515
C -3.8140001741 -0.925633325 0.2041673944
C -3.9475369927 0.3339104942 1.1690188963
C -2.6931155444 1.2802754819 1.3751375573
O -1.4384772838 0.5943081052 1.2125292233
C -0.6130631145 1.2397227924 0.1673261204
C 0.6998086665 0.3809414591 0.117773124
O 1.09112335 0.3006032768 -1.3131793731
C 2.4593518176 -0.0623834197 -1.5946350253
C 3.3364833894 -0.9693016673 -0.6303463439
C 4.4096764852 -0.1387920879 0.2074338092
C 4.0744579635 1.3943260048 0.2622860343
O 3.5954598505 2.0290857954 1.2282167116
O -2.2179353951 -1.2507512539 -1.6198764747
O 4.4027211161 1.9762275356 -1.0002554922
O 2.8778254288 0.2482019131 -2.7321477608
C 4.0119021248 3.4054269309 -1.0216878948
C 2.6972637519 -1.8725865287 0.5094357676
C 3.7254250199 -3.0307078811 0.8228827676
C 4.8432289828 -2.247827545 1.6053712422
C 4.2309555885 -0.7937594208 1.6380372172
O 2.7681508259 -1.0248127589 1.7231361427
H 3.8791392106 -1.6190983745 -1.3412416811
H 5.425248376 -0.2749015661 -0.2042599167
H 1.6644612121 -2.2202672168 0.3213095846
H 3.2486754298 -3.7930143836 1.459438257
H 4.1010097371 -3.5179258462 -0.0910700998
H 4.9718718313 -2.6388201787 2.6269708996
H 5.8172886993 -2.2712849585 1.09136311
H 4.5631737282 -0.149363118 2.4746825184
O -2.7834898491 2.5036046598 1.6165702291
C -0.8991528685 -1.7536516791 -2.0774369444
C -4.736333876 -0.4707415423 -1.0107992061
C -6.2395756346 -0.7080888071 -0.5937535446
C -6.4401556492 0.4418144465 0.46177906
C -5.0442146478 1.1763673761 0.3871989264
O -4.6210609888 1.0058480529 -1.0229703626
H -4.2831097571 -1.785867285 0.7182860588
H -4.3095003383 0.0150397641 2.1646211812
H -0.6182383941 -2.6783159043 -1.5359461494
H -4.4337424003 -0.8923682667 -1.9876345248
H -6.9030061283 -0.5768493698 -1.4635922519
H -6.4049915473 -1.7117602414 -0.1706619038
H -7.2518095041 1.1266144192 0.1689503254
H -6.6509992488 0.058375483 1.4730148003
H -5.0490558409 2.2478268145 0.6682757259
H -0.1088590011 -0.9791700634 -1.9231681478
H -1.0092221661 -1.9676274343 -3.1562524659
H 4.3070459804 3.7853093438 -2.0168461521
H 4.5313932721 3.9832570376 -0.230327575
H 2.9174489747 3.5262040274 -0.8883419229
H 1.5068588505 0.7983051516 0.7539056452
H 0.4156057417 -0.6222042632 0.50339213
H -0.4051226612 2.3076275162 0.3978273701
H -1.1216032587 1.1828318543 -0.8226650683
$end

$rem
JOBTYPE                   OPT
METHOD                    B3LYP
DFT_D                     d3_op
BASIS                     STO-3G
GEOM_OPT_MAX_CYCLES       100
GEOM_OPT_TOL_GRADIENT     300
GEOM_OPT_TOL_DISPLACEMENT 1200
GEOM_OPT_TOL_ENERGY       100
SYMMETRY                  False
THRESH                    12
SCF_CONVERGENCE           8
MAX_SUB_FILE_NUM          128
MEM_STATIC                400
MEM_TOTAL                 4000
$end
--------------------------------------------------------------

   16   -1510.2510261691      6.32E-09 Convergence criterion met
 Total energy in the final basis set = -1510.25102617
   14   -1510.2530554590      5.27E-09 Convergence criterion met
 Total energy in the final basis set = -1510.25305546
   13   -1510.2569290057      8.90E-09 Convergence criterion met
 Total energy in the final basis set = -1510.25692901
   13   -1510.2604925358      9.18E-09 Convergence criterion met
 Total energy in the final basis set = -1510.26049254
   13   -1510.2640791864      4.03E-09 Convergence criterion met
 Total energy in the final basis set = -1510.26407919
   13   -1510.2677803059      8.18E-09 Convergence criterion met
 Total energy in the final basis set = -1510.26778031
   13   -1510.2714274390      6.51E-09 Convergence criterion met
 Total energy in the final basis set = -1510.27142744
   14   -1510.2746708366      2.32E-09 Convergence criterion met
   11   -1510.2880466360      7.08E-09 Convergence criterion met
 Total energy in the final basis set = -1510.28804664
   10   -1510.2880529683      7.76E-09 Convergence criterion met
 Total energy in the final basis set = -1510.28805297
    9   -1510.2880531456      9.60E-09 Convergence criterion met
 Total energy in the final basis set = -1510.28805315
   11   -1510.2880521805      5.99E-09 Convergence criterion met
 Total energy in the final basis set = -1510.28805218
   12   -1510.2880462533      6.40E-09 Convergence criterion met
 Total energy in the final basis set = -1510.28804625
   10   -1510.2880505897      6.83E-09 Convergence criterion met
 Total energy in the final basis set = -1510.28805059

             Standard Nuclear Orientation (Angstroms)
    I     Atom           X                Y                Z
 ----------------------------------------------------------------
    1      O      -1.7049696947    -2.1613514939    -0.3816172104
    2      C      -2.5244924311    -1.2709901314    -0.7104726685
    3      C      -3.8537170118    -0.8797295235     0.0317573298
    4      C      -3.7404130383     0.5285313438     0.7659225284
    5      C      -2.3004325610     1.1412315082     0.6540680889
    6      O      -1.4360240711     0.2640718950     1.3860186420
    7      C      -0.0119708314     0.6433487867     1.2253706855
    8      C       0.7620693301    -0.5179989974     0.5013479985
    9      O       1.1526420596    -0.0163148815    -0.8462260847
   10      C       2.2884219974    -0.6480383137    -1.4666638662
   11      C       3.5568760458    -1.0920163610    -0.6248110254
   12      C       4.1726285315     0.0334563199     0.3148518847
   13      C       3.3020584887     1.3390000332     0.3987568164
   14      O       2.7527555430     1.8239700751     1.4107717261
   15      O      -2.3808034166    -0.4095367178    -1.8323753022
   16      O       3.2642396817     1.9100134127    -0.9102964453
   17      O       2.2891568252    -0.7082655827    -2.7169832893
   18      C       2.3451242529     3.0717577055    -0.9421387757
   19      C       3.3912509161    -2.2890417409     0.4098566253
   20      C       4.8201590128    -2.8860249696     0.7020967500
   21      C       5.4424733217    -1.7682648400     1.6227347499
   22      C       4.2578456984    -0.7311569466     1.6964311008
   23      O       3.0562958016    -1.6080072985     1.6867408603
   24      H       4.2924583686    -1.3786634081    -1.3968675025
   25      H       5.1773751952     0.3191014408    -0.0457659242
   26      H       2.6085759940    -3.0283795477     0.1510115395
   27      H       4.7315091713    -3.8450868650     1.2370320033
   28      H       5.3966912133    -3.0478988834    -0.2227128015
   29      H       5.6783374279    -2.1580938438     2.6256450789
   30      H       6.3533594971    -1.3225645449     1.1920694852
   31      H       4.2385931585    -0.0712354765     2.5854723804
   32      O      -1.9300940542     2.1747710365     0.0581310431
   33      C      -1.1136608631    -0.6783742788    -2.5572102699
   34      C      -5.0444071959    -0.5798517493    -0.9746951293
   35      C      -6.3911604382    -0.4995484877    -0.1489089510
   36      C      -6.2557615196     0.9181913893     0.5230082100
   37      C      -4.8377832973     1.3682833714    -0.0069946495
   38      O      -4.8022325213     0.8227909944    -1.3829171843
   39      H      -4.0983661794    -1.6850638966     0.7461384293
   40      H      -3.9857889017     0.4255371161     1.8386246171
   41      H      -1.0151783040    -1.7539907079    -2.8047929358
   42      H      -5.0726264217    -1.2414130039    -1.8618518066
   43      H      -7.2601934113    -0.5460595253    -0.8242822423
   44      H      -6.4741146720    -1.3135772810     0.5890541658
   45      H      -7.0363106820     1.6088377400     0.1658389531
   46      H      -6.2984397939     0.8751135435     1.6231353354
   47      H      -4.6498712217     2.4593912832    -0.0197702506
   48      H      -0.2279066007    -0.3515692887    -1.9556334693
   49      H      -1.1759818007    -0.0898771641    -3.4900432601
   50      H       2.5320227344     3.5870891987    -1.9018965521
   51      H       2.5327069751     3.7631726286    -0.0963772232
   52      H       1.2888386425     2.7337758264    -0.9043500763
   53      H       1.6491525468    -0.8535360018     1.1013835708
   54      H       0.0523738203    -1.3682273322     0.3514168646
   55      H       0.4099035597     0.8224306224     2.2355854444
   56      H       0.0447303309     1.5821970916     0.6326273319
 ----------------------------------------------------------------

    9   -1510.2880510220      4.64E-09 Convergence criterion met
 Total energy in the final basis set = -1510.28805102
 Final energy is   -1510.28805102203
 **  OPTIMIZATION CONVERGED  **

                    Orbital Energies (a.u.)
 --------------------------------------------------------------

 Alpha MOs
 -- Occupied --
-18.941 -18.930 -18.924 -18.922 -18.921 -18.884 -18.881 -18.880
-18.873 -18.859 -10.109 -10.106 -10.094 -10.087 -10.079 -10.078
-10.064 -10.056 -10.053 -10.052 -10.051 -10.048 -10.038 -10.036
-10.035 -10.031 -10.029 -10.027 -10.015 -10.014  -1.020  -1.008
 -1.004  -0.997  -0.996  -0.962  -0.945  -0.938  -0.930  -0.921
 -0.779  -0.757  -0.736  -0.720  -0.719  -0.701  -0.690  -0.666
 -0.639  -0.609  -0.600  -0.574  -0.563  -0.553  -0.538  -0.530
 -0.525  -0.503  -0.492  -0.474  -0.472  -0.458  -0.451  -0.447
 -0.432  -0.425  -0.422  -0.418  -0.414  -0.413  -0.398  -0.392
 -0.385  -0.380  -0.377  -0.364  -0.361  -0.358  -0.353  -0.350
 -0.347  -0.339  -0.337  -0.330  -0.326  -0.324  -0.322  -0.318
 -0.316  -0.310  -0.301  -0.299  -0.295  -0.290  -0.283  -0.277
 -0.270  -0.263  -0.259  -0.241  -0.238  -0.232  -0.227  -0.184
 -0.183  -0.168  -0.164  -0.162  -0.157  -0.153  -0.148  -0.139
 -0.135

          Ground-State Mulliken Net Atomic Charges

     Atom                 Charge (a.u.)
  ----------------------------------------
      1 O                    -0.224981
      2 C                     0.207289
      3 C                    -0.077683
      4 C                    -0.077465
      5 C                     0.211074
      6 O                    -0.177694
      7 C                    -0.057378
      8 C                    -0.087173
      9 O                    -0.181287
     10 C                     0.211930
     11 C                    -0.084775
     12 C                    -0.082403
     13 C                     0.209434
     14 O                    -0.213499
     15 O                    -0.166855
     16 O                    -0.168482
     17 O                    -0.195096
     18 C                    -0.129248
     19 C                     0.023646
     20 C                    -0.141928
     21 C                    -0.142573
     22 C                     0.024920
     23 O                    -0.181800
     24 H                     0.091542
     25 H                     0.090094
     26 H                     0.092009
     27 H                     0.083026
     28 H                     0.079242
     29 H                     0.082585
     30 H                     0.078012
     31 H                     0.095120
     32 O                    -0.210668
     33 C                    -0.148527
     34 C                     0.026365
     35 C                    -0.144508
     36 C                    -0.143677
     37 C                     0.024649
     38 O                    -0.183950
     39 H                     0.083140
     40 H                     0.084354
     41 H                     0.077811
     42 H                     0.083300
     43 H                     0.076758
     44 H                     0.072388
     45 H                     0.076975
     46 H                     0.071945
     47 H                     0.087844
     48 H                     0.110949
     49 H                     0.084412
     50 H                     0.094070
     51 H                     0.092277
     52 H                     0.096626
     53 H                     0.112771
     54 H                     0.096030
     55 H                     0.089515
     56 H                     0.099543
  ----------------------------------------
  Sum of atomic charges =     0.000000

                    Cartesian Multipole Moments
 -----------------------------------------------------------------
    Charge (ESU x 10^10)
                 0.0000
    Dipole Moment (Debye)
         X       2.6195      Y      -1.2375      Z       2.2709
       Tot       3.6810
    Quadrupole Moments (Debye-Ang)
        XX    -132.3510     XY      -1.2675     YY    -158.0468
        XZ      -1.9183     YZ       1.1155     ZZ    -167.7452

 Total job time:  116.45s(wall), 5547.76s(cpu)
        *  Thank you very much for using Q-Chem.  Have a nice day.  *
