 Q-Chem 5.0, Q-Chem, Inc., Pleasanton, CA (2017)
 Q-Chem 5.0.1 for Intel X86 EM64T Linux

User input:
--------------------------------------------------------------
$molecule
0  1
O -3.94934 -3.66094 2.70899
C -3.26408 -4.56952 2.26188
C -3.36658 -6.02376 2.66595
C -4.41631 -6.88207 1.94122
C -5.12384 -6.23632 0.77054
O -6.02143 -7.11254 0.23016
C -6.41274 -6.76736 -1.10287
C -7.89456 -7.06367 -1.30908
O -8.28161 -6.71559 -2.6477
C -9.29855 -5.82394 -2.74745
C -9.96021 -5.83557 -4.10492
C -10.78168 -4.58087 -4.4354
C -10.53748 -3.37807 -3.54639
O -10.81312 -3.30783 -2.35742
O -2.25742 -4.24112 1.40587
O -9.96731 -2.28124 -4.1193
O -9.97733 -5.54024 -1.76895
C -9.67273 -1.11091 -3.45115
C -8.98524 -5.85155 -5.30724
C -9.68092 -6.48238 -6.51122
C -10.69699 -5.40907 -6.84238
C -10.2617 -4.3098 -5.86379
O -8.87834 -4.50859 -5.70983
H -10.57785 -6.76209 -4.13909
H -11.87658 -4.77351 -4.41225
H -8.02602 -6.37667 -5.11054
H -8.92552 -6.52181 -7.32909
H -10.10008 -7.49979 -6.35628
H -10.54472 -5.0975 -7.89951
H -11.75881 -5.69231 -6.67479
H -10.57567 -3.31617 -6.25196
O -4.93516 -5.10022 0.35418
C -1.99865 -2.96304 0.95659
C -2.09469 -6.83387 2.30279
C -1.99436 -8.08494 3.17622
C -3.0916 -8.93506 2.5768
C -3.53787 -8.03411 1.42246
O -2.36319 -7.37019 1.03153
H -3.45323 -6.04064 3.77543
H -5.2102 -7.22151 2.64357
H -1.76176 -2.29634 1.81308
H -1.15441 -6.24778 2.39884
H -1.01505 -8.56638 2.95323
H -2.07305 -7.90605 4.27009
H -2.6362 -9.87067 2.18213
H -3.9316 -9.18109 3.26199
H -4.0366 -8.64256 0.63653
H -2.87728 -2.56755 0.40339
H -1.1267 -2.98821 0.27142
H -9.21612 -0.39179 -4.16165
H -8.95085 -1.31055 -2.63055
H -10.60074 -0.6633 -3.03562
H -8.06713 -8.15061 -1.15787
H -8.43682 -6.53123 -0.49769
H -5.83176 -7.38597 -1.82047
H -6.26435 -5.69842 -1.37402
$end

$opt
CONSTRAINT
tors           1           2           3           4     +85.263
tors           3           4           5           6    -180.000
tors           4           5           6           7    -161.053
tors           5           6           7           8    -142.105
tors           6           7           8           9    -180.000
tors           7           8           9          10    -123.158
tors           8           9          10          11    -161.053
tors           9          10          11          12    -161.053
tors          11          12          13          14     -66.316
ENDCONSTRAINT
$end

$rem
JOBTYPE                   OPT
METHOD                    B3LYP
DFT_D                     d3_op
BASIS                     STO-3G
GEOM_OPT_MAX_CYCLES       100
GEOM_OPT_TOL_GRADIENT     300
GEOM_OPT_TOL_DISPLACEMENT 1200
GEOM_OPT_TOL_ENERGY       100
SYMMETRY                  False
THRESH                    12
SCF_CONVERGENCE           8
MAX_SUB_FILE_NUM          128
MEM_STATIC                400
MEM_TOTAL                 4000
$end
--------------------------------------------------------------

   15   -1510.1312091174      7.99E-09 Convergence criterion met
 Total energy in the final basis set = -1510.13120912
   13   -1510.2028868976      9.89E-09 Convergence criterion met
 Total energy in the final basis set = -1510.20288690
   14   -1510.2420784842      6.73E-09 Convergence criterion met
 Total energy in the final basis set = -1510.24207848
   14   -1510.2605937347      6.24E-09 Convergence criterion met
 Total energy in the final basis set = -1510.26059373
   13   -1510.2675064766      8.28E-09 Convergence criterion met
 Total energy in the final basis set = -1510.26750648
   13   -1510.2702033757      6.12E-09 Convergence criterion met
 Total energy in the final basis set = -1510.27020338
   12   -1510.2712253915      9.95E-09 Convergence criterion met
 Total energy in the final basis set = -1510.27122539
   12   -1510.2717461792      6.11E-09 Convergence criterion met
   10   -1510.2758416990      6.27E-09 Convergence criterion met
 Total energy in the final basis set = -1510.27584170
   11   -1510.2758771517      7.61E-09 Convergence criterion met
 Total energy in the final basis set = -1510.27587715
    9   -1510.2758903830      7.74E-09 Convergence criterion met
 Total energy in the final basis set = -1510.27589038
   11   -1510.2759063850      2.92E-09 Convergence criterion met
 Total energy in the final basis set = -1510.27590639
    9   -1510.2759103103      5.83E-09 Convergence criterion met
 Total energy in the final basis set = -1510.27591031
    9   -1510.2759116004      5.33E-09 Convergence criterion met
 Total energy in the final basis set = -1510.27591160

             Standard Nuclear Orientation (Angstroms)
    I     Atom           X                Y                Z
 ----------------------------------------------------------------
    1      O       4.0805222945    -2.8289920717    -0.1463366455
    2      C       4.5281022223    -1.7976089988     0.4009884306
    3      C       5.1696413312    -0.5617712131    -0.3357601756
    4      C       4.1148268523     0.5074092159    -0.8412898868
    5      C       2.6633355247     0.2384080154    -0.3202306265
    6      O       1.8024343936     1.2610431128    -0.8377030560
    7      C       0.5497969701     1.3378009591    -0.0431435996
    8      C      -0.6325365850     1.6241367454    -1.0288713576
    9      O      -1.8995550794     1.7062177675    -0.2612410281
   10      C      -2.8547679156     0.7560416407    -0.7587597783
   11      C      -4.2840330871     1.1993057637    -0.2747220337
   12      C      -5.3583492598     0.0371474760    -0.3278680005
   13      C      -5.0201785415    -1.1308955658    -1.3258026387
   14      O      -4.9667371673    -1.0453304886    -2.5718814865
   15      O       4.6126297954    -1.6065831338     1.8180446247
   16      O      -4.7658254228    -2.3326665534    -0.5915514508
   17      O      -2.5491820000    -0.2329617038    -1.4588103155
   18      C      -4.3910594435    -3.4196492516    -1.5242308419
   19      C      -4.2238374832     1.4407189321     1.2947415339
   20      C      -5.6047698071     2.0135121542     1.8090645166
   21      C      -6.4856406932     0.7092096930     1.8548903320
   22      C      -5.4936436228    -0.3351260760     1.2110599547
   23      O      -4.1913697786     0.0486711184     1.8050466437
   24      H      -4.5956532075     2.0938605511    -0.8440354162
   25      H      -6.3124237774     0.4668306491    -0.6861850446
   26      H      -3.3251375839     1.9980050424     1.6220792758
   27      H      -5.4898402265     2.4632271253     2.8078236281
   28      H      -6.0109601285     2.7759604296     1.1248461006
   29      H      -6.7222162153     0.4222031448     2.8921133053
   30      H      -7.4263414958     0.8055355211     1.2894237627
   31      H      -5.7141676579    -1.4014530246     1.4076515380
   32      O       2.2968767595    -0.6519495847     0.4790996203
   33      C       3.9374881991    -2.7263836571     2.5100677037
   34      C       6.0925696274     0.3431751013     0.5867117826
   35      C       7.0297957625     1.2007288881    -0.3523528829
   36      C       6.0063110339     2.2524402972    -0.9207784942
   37      C       4.6835713486     1.8303993253    -0.1666954045
   38      O       5.1607031691     1.3491744151     1.1486854649
   39      H       5.7383955236    -0.9596187799    -1.1952151256
   40      H       4.0964695231     0.5899476179    -1.9430500124
   41      H       4.3570715936    -3.7081423372     2.2092317008
   42      H       6.6045300853    -0.2052704533     1.4000932280
   43      H       7.8235519343     1.6874481408     0.2363491214
   44      H       7.4973537967     0.5907319113    -1.1416795315
   45      H       6.2906520400     3.2822506598    -0.6518545735
   46      H       5.8951760654     2.1912393509    -2.0152383848
   47      H       3.9286935273     2.6315307897    -0.0452825304
   48      H       2.8489278256    -2.7268129741     2.2964725631
   49      H       4.1035306904    -2.5645501397     3.5910415369
   50      H      -4.1497602595    -4.2943196127    -0.8925382039
   51      H      -3.5065787230    -3.1419715030    -2.1328519619
   52      H      -5.2249536916    -3.6763841056    -2.2095077040
   53      H      -0.4772710728     2.5954094391    -1.5451600176
   54      H      -0.7074169752     0.8055104720    -1.7767875558
   55      H       0.6421927602     2.1597947647     0.6997093737
   56      H       0.3917851097     0.3792616289     0.4970323851
 ----------------------------------------------------------------

    9   -1510.2759117888      1.83E-09 Convergence criterion met
 Total energy in the final basis set = -1510.27591179
 Final energy is   -1510.27591178879
 **  OPTIMIZATION CONVERGED  **

                    Orbital Energies (a.u.)
 --------------------------------------------------------------

 Alpha MOs
 -- Occupied --
-18.937 -18.935 -18.926 -18.920 -18.890 -18.888 -18.887 -18.885
-18.862 -18.855 -10.107 -10.107 -10.092 -10.088 -10.074 -10.073
-10.061 -10.059 -10.057 -10.056 -10.056 -10.051 -10.042 -10.041
-10.033 -10.032 -10.021 -10.020 -10.019 -10.019  -1.020  -1.017
 -1.001  -0.996  -0.970  -0.969  -0.947  -0.942  -0.926  -0.921
 -0.763  -0.762  -0.729  -0.722  -0.714  -0.706  -0.695  -0.654
 -0.650  -0.617  -0.596  -0.579  -0.544  -0.544  -0.537  -0.536
 -0.516  -0.510  -0.484  -0.477  -0.463  -0.462  -0.454  -0.445
 -0.433  -0.433  -0.429  -0.406  -0.406  -0.403  -0.401  -0.400
 -0.397  -0.377  -0.375  -0.368  -0.363  -0.356  -0.350  -0.341
 -0.338  -0.334  -0.333  -0.331  -0.328  -0.326  -0.323  -0.317
 -0.311  -0.308  -0.304  -0.300  -0.296  -0.279  -0.277  -0.276
 -0.274  -0.258  -0.253  -0.244  -0.242  -0.233  -0.232  -0.187
 -0.176  -0.171  -0.164  -0.161  -0.160  -0.147  -0.146  -0.139
 -0.136

          Ground-State Mulliken Net Atomic Charges

     Atom                 Charge (a.u.)
  ----------------------------------------
      1 O                    -0.221481
      2 C                     0.213807
      3 C                    -0.081727
      4 C                    -0.077188
      5 C                     0.216755
      6 O                    -0.176342
      7 C                    -0.053002
      8 C                    -0.052587
      9 O                    -0.177044
     10 C                     0.217061
     11 C                    -0.075226
     12 C                    -0.082009
     13 C                     0.212974
     14 O                    -0.216056
     15 O                    -0.169994
     16 O                    -0.170189
     17 O                    -0.204098
     18 C                    -0.127542
     19 C                     0.023225
     20 C                    -0.145445
     21 C                    -0.142480
     22 C                     0.023168
     23 O                    -0.191722
     24 H                     0.087727
     25 H                     0.081580
     26 H                     0.089622
     27 H                     0.078092
     28 H                     0.072977
     29 H                     0.077693
     30 H                     0.072917
     31 H                     0.092259
     32 O                    -0.202458
     33 C                    -0.127303
     34 C                     0.025546
     35 C                    -0.143982
     36 C                    -0.143977
     37 C                     0.024793
     38 O                    -0.189115
     39 H                     0.082679
     40 H                     0.087662
     41 H                     0.086701
     42 H                     0.089743
     43 H                     0.077645
     44 H                     0.073462
     45 H                     0.077959
     46 H                     0.073816
     47 H                     0.084401
     48 H                     0.092921
     49 H                     0.087080
     50 H                     0.089151
     51 H                     0.095011
     52 H                     0.085655
     53 H                     0.086174
     54 H                     0.102421
     55 H                     0.084904
     56 H                     0.103384
  ----------------------------------------
  Sum of atomic charges =     0.000000

                    Cartesian Multipole Moments
 -----------------------------------------------------------------
    Charge (ESU x 10^10)
                 0.0000
    Dipole Moment (Debye)
         X      -0.2719      Y       2.4468      Z      -0.1397
       Tot       2.4658
    Quadrupole Moments (Debye-Ang)
        XX    -138.2648     XY      -0.0934     YY    -154.5434
        XZ      -9.8652     YZ      -4.3251     ZZ    -164.6025

 Total job time:  65.11s(wall), 3091.77s(cpu)
        *  Thank you very much for using Q-Chem.  Have a nice day.  *
