 Q-Chem 5.0, Q-Chem, Inc., Pleasanton, CA (2017)
 Q-Chem 5.0.1 for Intel X86 EM64T Linux

User input:
--------------------------------------------------------------
$molecule
0  1
O 4.0805222945 -2.8289920717 -0.1463366455
C 4.5281022223 -1.7976089988 0.4009884306
C 5.1696413312 -0.5617712131 -0.3357601756
C 4.1148268523 0.5074092159 -0.8412898868
C 2.6633355247 0.2384080154 -0.3202306265
O 1.8024343936 1.2610431128 -0.837703056
C 0.5497969701 1.3378009591 -0.0431435996
C -0.632536585 1.6241367454 -1.0288713576
O -1.8995550794 1.7062177675 -0.2612410281
C -2.8547679156 0.7560416407 -0.7587597783
C -4.2840330871 1.1993057637 -0.2747220337
C -5.3583492598 0.037147476 -0.3278680005
C -5.0201785415 -1.1308955658 -1.3258026387
O -4.9667371673 -1.0453304886 -2.5718814865
O 4.6126297954 -1.6065831338 1.8180446247
O -4.7658254228 -2.3326665534 -0.5915514508
O -2.549182 -0.2329617038 -1.4588103155
C -4.3910594435 -3.4196492516 -1.5242308419
C -4.2238374832 1.4407189321 1.2947415339
C -5.6047698071 2.0135121542 1.8090645166
C -6.4856406932 0.709209693 1.854890332
C -5.4936436228 -0.335126076 1.2110599547
O -4.1913697786 0.0486711184 1.8050466437
H -4.5956532075 2.0938605511 -0.8440354162
H -6.3124237774 0.4668306491 -0.6861850446
H -3.3251375839 1.9980050424 1.6220792758
H -5.4898402265 2.4632271253 2.8078236281
H -6.0109601285 2.7759604296 1.1248461006
H -6.7222162153 0.4222031448 2.8921133053
H -7.4263414958 0.8055355211 1.2894237627
H -5.7141676579 -1.4014530246 1.407651538
O 2.2968767595 -0.6519495847 0.4790996203
C 3.9374881991 -2.7263836571 2.5100677037
C 6.0925696274 0.3431751013 0.5867117826
C 7.0297957625 1.2007288881 -0.3523528829
C 6.0063110339 2.2524402972 -0.9207784942
C 4.6835713486 1.8303993253 -0.1666954045
O 5.1607031691 1.3491744151 1.1486854649
H 5.7383955236 -0.9596187799 -1.1952151256
H 4.0964695231 0.5899476179 -1.9430500124
H 4.3570715936 -3.7081423372 2.2092317008
H 6.6045300853 -0.2052704533 1.400093228
H 7.8235519343 1.6874481408 0.2363491214
H 7.4973537967 0.5907319113 -1.1416795315
H 6.29065204 3.2822506598 -0.6518545735
H 5.8951760654 2.1912393509 -2.0152383848
H 3.9286935273 2.6315307897 -0.0452825304
H 2.8489278256 -2.7268129741 2.2964725631
H 4.1035306904 -2.5645501397 3.5910415369
H -4.1497602595 -4.2943196127 -0.8925382039
H -3.506578723 -3.141971503 -2.1328519619
H -5.2249536916 -3.6763841056 -2.209507704
H -0.4772710728 2.5954094391 -1.5451600176
H -0.7074169752 0.805510472 -1.7767875558
H 0.6421927602 2.1597947647 0.6997093737
H 0.3917851097 0.3792616289 0.4970323851
$end

$rem
JOBTYPE                   OPT
METHOD                    B3LYP
DFT_D                     d3_op
BASIS                     STO-3G
GEOM_OPT_MAX_CYCLES       100
GEOM_OPT_TOL_GRADIENT     300
GEOM_OPT_TOL_DISPLACEMENT 1200
GEOM_OPT_TOL_ENERGY       100
SYMMETRY                  False
THRESH                    12
SCF_CONVERGENCE           8
MAX_SUB_FILE_NUM          128
MEM_STATIC                400
MEM_TOTAL                 4000
$end
--------------------------------------------------------------

   15   -1510.2758442595      9.57E-09 Convergence criterion met
 Total energy in the final basis set = -1510.27584426
   14   -1510.2791261807      1.41E-09 Convergence criterion met
 Total energy in the final basis set = -1510.27912618
   14   -1510.2815237866      2.46E-09 Convergence criterion met
 Total energy in the final basis set = -1510.28152379
   13   -1510.2825155445      7.31E-09 Convergence criterion met
 Total energy in the final basis set = -1510.28251554
   13   -1510.2832778723      3.77E-09 Convergence criterion met
 Total energy in the final basis set = -1510.28327787
   13   -1510.2838434238      2.26E-09 Convergence criterion met
 Total energy in the final basis set = -1510.28384342
   13   -1510.2843551664      3.51E-09 Convergence criterion met
 Total energy in the final basis set = -1510.28435517
   12   -1510.2846168229      7.72E-09 Convergence criterion met
   13   -1510.2907476204      3.30E-09 Convergence criterion met
 Total energy in the final basis set = -1510.29074762
   12   -1510.2908562015      8.35E-09 Convergence criterion met
 Total energy in the final basis set = -1510.29085620
   11   -1510.2908554591      7.65E-09 Convergence criterion met
 Total energy in the final basis set = -1510.29085546
   12   -1510.2908950916      4.23E-09 Convergence criterion met
 Total energy in the final basis set = -1510.29089509
   12   -1510.2908934131      2.68E-09 Convergence criterion met
 Total energy in the final basis set = -1510.29089341
   10   -1510.2908877978      6.45E-09 Convergence criterion met
 Total energy in the final basis set = -1510.29088780

             Standard Nuclear Orientation (Angstroms)
    I     Atom           X                Y                Z
 ----------------------------------------------------------------
    1      O       2.1016074578    -2.9463477707     0.1817968598
    2      C       2.8441535396    -1.9506916845     0.3266738136
    3      C       3.5605201882    -1.1488468804    -0.8193671241
    4      C       2.9882015934     0.3100591307    -1.0596246053
    5      C       1.7914047039     0.6774868688    -0.1209548528
    6      O       1.6248256919     2.0967293905    -0.1156842910
    7      C       0.4353777406     2.4776691685     0.6860595446
    8      C      -0.6041253777     3.2045115066    -0.2555522747
    9      O      -2.0051752302     2.8400795036     0.0611144366
   10      C      -2.3147598658     1.5549544654    -0.4945274315
   11      C      -3.8080533649     1.2104768034    -0.1692625490
   12      C      -4.1738256637    -0.3118981689    -0.4185095791
   13      C      -2.9749236177    -1.1905054769    -0.9359037079
   14      O      -2.8227267529    -1.6214688761    -2.1010760001
   15      O       3.2469919966    -1.4203274050     1.5947728914
   16      O      -2.1328202825    -1.5014861024     0.1741401376
   17      O      -1.4995665441     0.8713154848    -1.1523202865
   18      C      -0.9335579423    -2.2513475098    -0.2698408635
   19      C      -4.1433585187     1.3596385748     1.3765241911
   20      C      -5.7142542607     1.3993292974     1.5406247348
   21      C      -6.0817635368    -0.1107466856     1.2933450903
   22      C      -4.6525623078    -0.7356212450     1.0356825400
   23      O      -3.7687472590     0.0421067212     1.9352373800
   24      H      -4.4464799114     1.8794162135    -0.7761695165
   25      H      -4.9896707632    -0.3988920612    -1.1574890710
   26      H      -3.5886041903     2.1749053234     1.8799922144
   27      H      -5.9848161758     1.7208708201     2.5590559449
   28      H      -6.1915869574     2.0791913598     0.8168419805
   29      H      -6.5463172036    -0.5641868355     2.1834550147
   30      H      -6.7559175903    -0.2498521188     0.4332478942
   31      H      -4.5647240689    -1.8179692415     1.2497616535
   32      O       1.0648364757    -0.1115787125     0.5279315251
   33      C       2.5102051391    -2.1101991152     2.6770048217
   34      C       5.0728311929    -0.8121704098    -0.4661234598
   35      C       5.8184836644    -0.3947568297    -1.7950990292
   36      C       5.2460355685     1.0532620404    -2.0237477613
   37      C       4.2777873098     1.1960528770    -0.7838218785
   38      O       4.9759991520     0.4573536327     0.2912137026
   39      H       3.4811044092    -1.7545923052    -1.7390451848
   40      H       2.6391428755     0.4333975188    -2.1021159952
   41      H       2.6735001449    -3.2069461353     2.6512126130
   42      H       5.5842041722    -1.5851426806     0.1390224790
   43      H       6.9082002942    -0.3776386042    -1.6347876461
   44      H       5.5948796296    -1.0786203328    -2.6294979175
   45      H       6.0417936012     1.8139713631    -1.9806850506
   46      H       4.7115791287     1.1542631245    -2.9817712050
   47      H       4.0506549297     2.2326519167    -0.4685623153
   48      H       1.4206744485    -1.9128697730     2.6057329938
   49      H       2.9009458630    -1.6973416743     3.6250571130
   50      H      -0.8813030969    -3.2039529119     0.2917740225
   51      H      -0.0373444320    -1.6349442996    -0.0424090679
   52      H      -1.0032690037    -2.4555015664    -1.3564643433
   53      H      -0.5479516839     4.3036465033    -0.1307262592
   54      H      -0.3601997211     2.9392392624    -1.3074053262
   55      H       0.7704131935     3.1476513967     1.5037579937
   56      H      -0.0037258541     1.5505326233     1.1176025611
 ----------------------------------------------------------------

    9   -1510.2908883490      4.10E-09 Convergence criterion met
 Total energy in the final basis set = -1510.29088835
 Final energy is   -1510.29088834902
 **  OPTIMIZATION CONVERGED  **

                    Orbital Energies (a.u.)
 --------------------------------------------------------------

 Alpha MOs
 -- Occupied --
-18.945 -18.942 -18.922 -18.907 -18.894 -18.888 -18.886 -18.884
-18.861 -18.849 -10.113 -10.107 -10.090 -10.081 -10.079 -10.074
-10.061 -10.060 -10.058 -10.055 -10.053 -10.043 -10.039 -10.034
-10.028 -10.023 -10.021 -10.020 -10.018 -10.016  -1.026  -1.019
 -0.999  -0.987  -0.971  -0.966  -0.949  -0.943  -0.925  -0.913
 -0.765  -0.760  -0.729  -0.721  -0.714  -0.705  -0.695  -0.652
 -0.636  -0.620  -0.595  -0.580  -0.546  -0.542  -0.538  -0.534
 -0.516  -0.508  -0.484  -0.476  -0.465  -0.459  -0.452  -0.439
 -0.434  -0.430  -0.426  -0.409  -0.406  -0.404  -0.399  -0.397
 -0.390  -0.381  -0.376  -0.366  -0.360  -0.349  -0.347  -0.343
 -0.335  -0.333  -0.332  -0.326  -0.325  -0.322  -0.319  -0.318
 -0.312  -0.306  -0.303  -0.300  -0.294  -0.283  -0.278  -0.275
 -0.269  -0.264  -0.253  -0.243  -0.235  -0.231  -0.224  -0.195
 -0.177  -0.170  -0.165  -0.161  -0.147  -0.145  -0.141  -0.141
 -0.134

          Ground-State Mulliken Net Atomic Charges

     Atom                 Charge (a.u.)
  ----------------------------------------
      1 O                    -0.217742
      2 C                     0.211783
      3 C                    -0.081128
      4 C                    -0.077263
      5 C                     0.224717
      6 O                    -0.170875
      7 C                    -0.057362
      8 C                    -0.050770
      9 O                    -0.172213
     10 C                     0.213930
     11 C                    -0.077942
     12 C                    -0.080963
     13 C                     0.212739
     14 O                    -0.223622
     15 O                    -0.169987
     16 O                    -0.174217
     17 O                    -0.206612
     18 C                    -0.143880
     19 C                     0.024370
     20 C                    -0.143821
     21 C                    -0.144508
     22 C                     0.027146
     23 O                    -0.186672
     24 H                     0.085497
     25 H                     0.081895
     26 H                     0.086776
     27 H                     0.077350
     28 H                     0.072529
     29 H                     0.077189
     30 H                     0.073201
     31 H                     0.086408
     32 O                    -0.205956
     33 C                    -0.128464
     34 C                     0.026602
     35 C                    -0.144292
     36 C                    -0.143753
     37 C                     0.024620
     38 O                    -0.186687
     39 H                     0.084867
     40 H                     0.089458
     41 H                     0.086997
     42 H                     0.085286
     43 H                     0.078003
     44 H                     0.074306
     45 H                     0.078072
     46 H                     0.073657
     47 H                     0.089291
     48 H                     0.093147
     49 H                     0.088112
     50 H                     0.079970
     51 H                     0.102571
     52 H                     0.093725
     53 H                     0.090704
     54 H                     0.096529
     55 H                     0.087898
     56 H                     0.109383
  ----------------------------------------
  Sum of atomic charges =     0.000000

                    Cartesian Multipole Moments
 -----------------------------------------------------------------
    Charge (ESU x 10^10)
                 0.0000
    Dipole Moment (Debye)
         X       0.0983      Y       2.8881      Z      -0.2531
       Tot       2.9009
    Quadrupole Moments (Debye-Ang)
        XX    -144.1925     XY      -5.9780     YY    -155.8698
        XZ      -8.5878     YZ      -4.2345     ZZ    -160.6653

 Total job time:  123.01s(wall), 5857.16s(cpu)
        *  Thank you very much for using Q-Chem.  Have a nice day.  *
