 Q-Chem 5.0, Q-Chem, Inc., Pleasanton, CA (2017)
 Q-Chem 5.0.1 for Intel X86 EM64T Linux

User input:
--------------------------------------------------------------
$molecule
0  1
O -5.4443937457 -1.5924391686 1.0821944632
C -4.7838419984 -0.8798449117 0.2937402989
C -4.4162511498 0.6331714016 0.4818924519
C -2.904646734 0.8767069867 0.9069315091
C -2.0240643478 -0.4007373222 1.0892565478
O -1.4665058694 -0.4177872214 2.4323400329
C -0.0884449065 -0.9474410826 2.3298674779
C 0.8813063017 0.2408115312 1.9766646592
O 0.8343711549 0.3633683292 0.5064734471
C 1.9395707789 1.0810799111 -0.0829694696
C 3.4008819684 0.7002349039 0.3864234829
C 3.80716694 -0.8298454611 0.4507057114
C 3.0418072252 -1.8427153754 -0.4930233775
O 3.4594630953 -2.9811734248 -0.8024827742
O -4.2670363349 -1.3346724764 -0.9579516343
O 1.8783590945 -1.2485366449 -1.0529744532
O 1.6959164255 1.8718324508 -1.0191143979
C 1.1839316946 -2.1882049328 -1.9618787366
C 4.5405990526 1.2919659607 -0.5525469882
C 5.7818310124 1.5989502517 0.3697725413
C 6.2180230319 0.1352709595 0.75424649
C 5.269024886 -0.7288370646 -0.1694802086
O 5.01312386 0.1355001153 -1.3480912145
H 3.5303462001 1.1258913222 1.3986845078
H 3.8039925922 -1.2204426187 1.484749235
H 4.1970140168 2.1126488917 -1.2124608192
H 6.5680010042 2.1130776352 -0.2062075967
H 5.5201681917 2.2157284386 1.2444352604
H 7.2747656566 -0.0545387734 0.5093887093
H 6.059907401 -0.0863043813 1.8222958858
H 5.6752885659 -1.7099814275 -0.4845917717
O -1.7521964917 -1.2616347151 0.2257314495
C -4.5404787229 -2.7797711544 -1.1273742706
C -4.4604038082 1.4436168247 -0.8848528009
C -4.4352544906 2.9894969501 -0.5531956055
C -2.9208979157 3.1995870149 -0.1776069088
C -2.3672499082 1.7290758374 -0.3295414447
O -3.1271594751 1.1911094943 -1.4772182645
H -5.1044734796 1.0523815743 1.2369547313
H -2.8524697209 1.4541583387 1.8461869056
H -5.626549161 -3.001591378 -1.0817534812
H -5.259047816 1.1243014038 -1.5817745882
H -4.7168257461 3.5775863873 -1.4410845734
H -5.1183222142 3.2471046508 0.2720610936
H -2.416629675 3.8732573151 -0.8886087015
H -2.7835833043 3.5931528313 0.8421208023
H -1.2748747216 1.6378153894 -0.5018644199
H -4.0233743145 -3.382384894 -0.3530432503
H -4.1474761397 -3.0472904847 -2.1252933859
H 0.2220282063 -1.70417659 -2.2137711506
H 0.9948334619 -3.1631089387 -1.4693687713
H 1.7723271932 -2.3632138757 -2.8860444766
H 0.5233130081 1.1746882167 2.4668411243
H 1.9003102429 0.0125103322 2.3541565397
H -0.0198908451 -1.7312962956 1.5452435812
H 0.1725584257 -1.3751692034 3.3192350949
$end

$rem
JOBTYPE                   OPT
METHOD                    B3LYP
DFT_D                     d3_op
BASIS                     STO-3G
GEOM_OPT_MAX_CYCLES       100
GEOM_OPT_TOL_GRADIENT     300
GEOM_OPT_TOL_DISPLACEMENT 1200
GEOM_OPT_TOL_ENERGY       100
SYMMETRY                  False
THRESH                    12
SCF_CONVERGENCE           8
MAX_SUB_FILE_NUM          128
MEM_STATIC                400
MEM_TOTAL                 4000
$end
--------------------------------------------------------------

   16   -1510.2546331116      5.30E-09 Convergence criterion met
 Total energy in the final basis set = -1510.25463311
   13   -1510.2580631357      4.45E-09 Convergence criterion met
 Total energy in the final basis set = -1510.25806314
   13   -1510.2610410271      9.45E-09 Convergence criterion met
 Total energy in the final basis set = -1510.26104103
   13   -1510.2635545157      5.75E-09 Convergence criterion met
 Total energy in the final basis set = -1510.26355452
   13   -1510.2660943150      6.72E-09 Convergence criterion met
 Total energy in the final basis set = -1510.26609431
   13   -1510.2686278380      9.25E-09 Convergence criterion met
 Total energy in the final basis set = -1510.26862784
   13   -1510.2706123664      9.66E-09 Convergence criterion met
 Total energy in the final basis set = -1510.27061237
   13   -1510.2727706454      7.94E-09 Convergence criterion met
   12   -1510.2895430120      3.09E-09 Convergence criterion met
 Total energy in the final basis set = -1510.28954301
   12   -1510.2895887630      7.86E-09 Convergence criterion met
 Total energy in the final basis set = -1510.28958876
   11   -1510.2895977965      5.77E-09 Convergence criterion met
 Total energy in the final basis set = -1510.28959780
   11   -1510.2896035889      4.93E-09 Convergence criterion met
 Total energy in the final basis set = -1510.28960359
   10   -1510.2895960705      7.57E-09 Convergence criterion met
 Total energy in the final basis set = -1510.28959607
    9   -1510.2895937416      4.29E-09 Convergence criterion met
 Total energy in the final basis set = -1510.28959374

             Standard Nuclear Orientation (Angstroms)
    I     Atom           X                Y                Z
 ----------------------------------------------------------------
    1      O      -4.3718880269    -2.0802115073     0.6812813433
    2      C      -3.7885294563    -1.3179185366    -0.1203924573
    3      C      -3.8146719143     0.2568895480    -0.0926499816
    4      C      -2.7088866558     0.8920509396     0.8567751741
    5      C      -1.8425908808    -0.1836963549     1.5858789383
    6      O      -1.4077616956     0.3301117657     2.8598757326
    7      C      -0.2798568784    -0.5012740842     3.3418684253
    8      C       1.0536406507     0.0383584472     2.6810229084
    9      O       0.5955795987     0.6140532681     1.3999420379
   10      C       1.5713779287     1.3139450821     0.6162840612
   11      C       3.0795131408     0.8794660266     0.7351394887
   12      C       3.3263223801    -0.6245915071     0.2834952140
   13      C       2.0068476714    -1.3884501563    -0.0937118690
   14      O       1.6132654925    -2.4717575407     0.3954109610
   15      O      -3.0602732070    -1.7648042902    -1.2691030374
   16      O       1.3121057836    -0.6186315330    -1.0667927672
   17      O       1.1281541541     2.2040983876    -0.1466361378
   18      C      -0.0073896680    -1.2211527249    -1.3928186082
   19      C       3.9510295539     1.6641324250    -0.3298485190
   20      C       5.4758661194     1.4711825886     0.0341928044
   21      C       5.7142558606    -0.0120354278    -0.4366458885
   22      C       4.2774226384    -0.3968445046    -0.9710815680
   23      O       3.7802054329     0.8636929457    -1.5636610384
   24      H       3.4362145161     1.0520954209     1.7664126679
   25      H       3.8366421690    -1.2032079610     1.0734726717
   26      H       3.6189890803     2.7068069386    -0.4988102831
   27      H       6.0998329856     2.1811561286    -0.5313336031
   28      H       5.6664894203     1.6117711885     1.1101420970
   29      H       6.4533866256    -0.0635094492    -1.2519553268
   30      H       6.0440387682    -0.6717241148     0.3819111056
   31      H       4.2536651432    -1.2133773133    -1.7186560535
   32      O      -1.5881987602    -1.3413104451     1.1822560878
   33      C      -2.9658773062    -3.2409979327    -1.2595926393
   34      C      -3.4324578780     0.9074815799    -1.4850090490
   35      C      -3.8398047663     2.4321666677    -1.4618231091
   36      C      -2.7122942008     3.0375767823    -0.5441769669
   37      C      -1.8659523576     1.7526948987    -0.1959367697
   38      O      -1.9520605920     0.9588887415    -1.4425907394
   39      H      -4.8233437107     0.5608258657     0.2404462100
   40      H      -3.1574212834     1.5489754089     1.6225167615
   41      H      -3.9677872044    -3.7172027957    -1.2636527640
   42      H      -3.7752119411     0.3351696675    -2.3678579444
   43      H      -3.8035148378     2.8542738774    -2.4786699281
   44      H      -4.8513294759     2.5847467970    -1.0527153862
   45      H      -2.0908612351     3.7617590554    -1.0946571088
   46      H      -3.1129628851     3.5295619821     0.3562953556
   47      H      -0.7919579037     1.9369392007     0.0489939189
   48      H      -2.4056706572    -3.5999578994    -0.3722173254
   49      H      -2.4184369055    -3.5174693240    -2.1793047920
   50      H      -0.7444290454    -0.3887698564    -1.5210235609
   51      H      -0.3414986113    -1.8752238953    -0.5645985609
   52      H       0.0780090042    -1.8142751364    -2.3247000660
   53      H       1.5170981767     0.8206399654     3.3199079688
   54      H       1.7774663214    -0.7928253128     2.5411870201
   55      H      -0.4434635156    -1.5601907802     3.0496275189
   56      H      -0.2423660987    -0.4053123629     4.4444329125
 ----------------------------------------------------------------

    9   -1510.2895943314      5.83E-09 Convergence criterion met
 Total energy in the final basis set = -1510.28959433
 Final energy is   -1510.28959433139
 **  OPTIMIZATION CONVERGED  **

                    Orbital Energies (a.u.)
 --------------------------------------------------------------

 Alpha MOs
 -- Occupied --
-18.937 -18.932 -18.922 -18.921 -18.891 -18.891 -18.890 -18.878
-18.864 -18.856 -10.113 -10.101 -10.091 -10.087 -10.084 -10.076
-10.062 -10.061 -10.056 -10.052 -10.045 -10.044 -10.038 -10.033
-10.030 -10.023 -10.022 -10.016 -10.014 -10.011  -1.023  -1.008
 -0.998  -0.996  -0.971  -0.967  -0.948  -0.934  -0.925  -0.922
 -0.766  -0.757  -0.725  -0.722  -0.711  -0.707  -0.695  -0.649
 -0.636  -0.614  -0.600  -0.581  -0.553  -0.540  -0.538  -0.530
 -0.511  -0.505  -0.488  -0.482  -0.467  -0.462  -0.446  -0.443
 -0.435  -0.429  -0.426  -0.410  -0.403  -0.403  -0.398  -0.397
 -0.395  -0.382  -0.369  -0.361  -0.358  -0.355  -0.349  -0.344
 -0.341  -0.334  -0.332  -0.328  -0.324  -0.318  -0.318  -0.313
 -0.308  -0.304  -0.301  -0.296  -0.295  -0.292  -0.275  -0.274
 -0.270  -0.255  -0.247  -0.242  -0.235  -0.233  -0.223  -0.184
 -0.173  -0.164  -0.161  -0.159  -0.155  -0.147  -0.144  -0.142
 -0.136

          Ground-State Mulliken Net Atomic Charges

     Atom                 Charge (a.u.)
  ----------------------------------------
      1 O                    -0.221772
      2 C                     0.211914
      3 C                    -0.081238
      4 C                    -0.079929
      5 C                     0.223197
      6 O                    -0.168904
      7 C                    -0.050331
      8 C                    -0.048318
      9 O                    -0.181043
     10 C                     0.225468
     11 C                    -0.084178
     12 C                    -0.082882
     13 C                     0.202061
     14 O                    -0.219543
     15 O                    -0.169029
     16 O                    -0.169820
     17 O                    -0.192877
     18 C                    -0.154317
     19 C                     0.026496
     20 C                    -0.144546
     21 C                    -0.143796
     22 C                     0.027166
     23 O                    -0.181981
     24 H                     0.078876
     25 H                     0.079774
     26 H                     0.091162
     27 H                     0.079217
     28 H                     0.071575
     29 H                     0.078932
     30 H                     0.072941
     31 H                     0.085328
     32 O                    -0.211877
     33 C                    -0.127142
     34 C                     0.027860
     35 C                    -0.144325
     36 C                    -0.143634
     37 C                     0.016901
     38 O                    -0.186433
     39 H                     0.083063
     40 H                     0.086267
     41 H                     0.086021
     42 H                     0.088843
     43 H                     0.077587
     44 H                     0.072291
     45 H                     0.080013
     46 H                     0.071944
     47 H                     0.110717
     48 H                     0.093805
     49 H                     0.087819
     50 H                     0.120415
     51 H                     0.097390
     52 H                     0.071137
     53 H                     0.079982
     54 H                     0.088854
     55 H                     0.103228
     56 H                     0.089669
  ----------------------------------------
  Sum of atomic charges =     0.000000

                    Cartesian Multipole Moments
 -----------------------------------------------------------------
    Charge (ESU x 10^10)
                 0.0000
    Dipole Moment (Debye)
         X       2.1708      Y       1.1728      Z       2.3345
       Tot       3.3967
    Quadrupole Moments (Debye-Ang)
        XX    -145.7688     XY      -5.4922     YY    -162.1012
        XZ      12.7865     YZ       7.0588     ZZ    -155.1497

 Total job time:  197.20s(wall), 9397.81s(cpu)
        *  Thank you very much for using Q-Chem.  Have a nice day.  *
