 Q-Chem 5.0, Q-Chem, Inc., Pleasanton, CA (2017)
 Q-Chem 5.0.1 for Intel X86 EM64T Linux

User input:
--------------------------------------------------------------
$molecule
0  1
O -3.94934 -3.66094 2.70899
C -3.26408 -4.56952 2.26188
C -3.36658 -6.02376 2.66595
C -4.06137 -6.97914 1.68189
C -4.41791 -6.40938 0.32677
O -5.75795 -6.54904 0.10269
C -6.07081 -6.87455 -1.25578
C -5.97787 -8.38174 -1.46994
O -4.62102 -8.75193 -1.76115
C -4.46103 -9.96042 -2.35537
C -5.40115 -10.17353 -3.51787
C -5.479 -9.00413 -4.51021
C -4.37381 -7.97264 -4.40394
O -4.06559 -7.1718 -5.27469
O -2.4009 -4.28566 1.2499
O -3.33234 -8.0921 -3.5341
O -3.45358 -10.62749 -2.17411
C -2.22892 -7.26303 -3.42901
C -4.97005 -11.31667 -4.46582
C -6.18221 -11.83707 -5.23788
C -6.44907 -10.66896 -6.16279
C -5.24979 -9.77511 -5.82608
O -4.23086 -10.6793 -5.47595
H -6.3904 -10.47359 -3.10455
H -6.44885 -8.462 -4.51064
H -4.46546 -12.16107 -3.94771
H -5.82861 -12.69931 -5.84806
H -7.04761 -12.16041 -4.62036
H -6.39327 -11.03366 -7.2125
H -7.41036 -10.13722 -5.99281
H -5.02565 -9.10178 -6.68271
O -3.61151 -6.00051 -0.49961
C -2.21018 -3.02853 0.71609
C -1.99198 -6.70197 2.79853
C -2.09828 -7.93481 3.69686
C -2.82719 -8.89353 2.7771
C -2.952 -8.03397 1.51602
O -1.77265 -7.26361 1.52638
H -3.89759 -6.02968 3.64494
H -4.9764 -7.42476 2.13722
H -1.84511 -2.33127 1.50017
H -1.20491 -6.01295 3.17631
H -1.06896 -8.32352 3.86744
H -2.59004 -7.74755 4.67568
H -2.15818 -9.75867 2.57051
H -3.80935 -9.25747 3.14877
H -3.10908 -8.67857 0.62315
H -3.16106 -2.6475 0.28602
H -1.45194 -3.08805 -0.09135
H -1.57916 -7.62798 -2.60734
H -2.55315 -6.22679 -3.19453
H -1.64639 -7.27269 -4.3747
H -6.3954 -8.96323 -0.61916
H -6.66439 -8.51455 -2.3175
H -5.54339 -6.26426 -2.02359
H -7.14803 -6.61463 -1.35569
$end

$opt
CONSTRAINT
tors           1           2           3           4    +104.211
tors           3           4           5           6    -123.158
tors           4           5           6           7    -142.105
tors           5           6           7           8     +85.263
tors           6           7           8           9     -85.263
tors           7           8           9          10    -161.053
tors           8           9          10          11     +47.368
tors           9          10          11          12     +47.368
tors          11          12          13          14    +161.053
ENDCONSTRAINT
$end

$rem
JOBTYPE                   OPT
METHOD                    B3LYP
DFT_D                     d3_op
BASIS                     STO-3G
GEOM_OPT_MAX_CYCLES       100
GEOM_OPT_TOL_GRADIENT     300
GEOM_OPT_TOL_DISPLACEMENT 1200
GEOM_OPT_TOL_ENERGY       100
SYMMETRY                  False
THRESH                    12
SCF_CONVERGENCE           8
MAX_SUB_FILE_NUM          128
MEM_STATIC                400
MEM_TOTAL                 4000
$end
--------------------------------------------------------------

   15   -1510.1016981308      7.03E-09 Convergence criterion met
 Total energy in the final basis set = -1510.10169813
   14   -1510.1791357276      8.10E-09 Convergence criterion met
 Total energy in the final basis set = -1510.17913573
   14   -1510.2209498933      6.98E-09 Convergence criterion met
 Total energy in the final basis set = -1510.22094989
   14   -1510.2392385751      5.51E-09 Convergence criterion met
 Total energy in the final basis set = -1510.23923858
   14   -1510.2489503201      3.74E-09 Convergence criterion met
 Total energy in the final basis set = -1510.24895032
   14   -1510.2521691920      2.52E-09 Convergence criterion met
 Total energy in the final basis set = -1510.25216919
   13   -1510.2536400473      4.15E-09 Convergence criterion met
 Total energy in the final basis set = -1510.25364005
   13   -1510.2540759405      5.37E-09 Convergence criterion met
   12   -1510.2546041130      3.14E-09 Convergence criterion met
 Total energy in the final basis set = -1510.25460411
   12   -1510.2546370819      2.45E-09 Convergence criterion met
 Total energy in the final basis set = -1510.25463708
   11   -1510.2546496243      5.78E-09 Convergence criterion met
 Total energy in the final basis set = -1510.25464962
   10   -1510.2546555932      7.80E-09 Convergence criterion met
 Total energy in the final basis set = -1510.25465559
   10   -1510.2546581921      7.04E-09 Convergence criterion met
 Total energy in the final basis set = -1510.25465819
    9   -1510.2546605924      8.61E-09 Convergence criterion met
 Total energy in the final basis set = -1510.25466059

             Standard Nuclear Orientation (Angstroms)
    I     Atom           X                Y                Z
 ----------------------------------------------------------------
    1      O      -5.4443937457    -1.5924391686     1.0821944632
    2      C      -4.7838419984    -0.8798449117     0.2937402989
    3      C      -4.4162511498     0.6331714016     0.4818924519
    4      C      -2.9046467340     0.8767069867     0.9069315091
    5      C      -2.0240643478    -0.4007373222     1.0892565478
    6      O      -1.4665058694    -0.4177872214     2.4323400329
    7      C      -0.0884449065    -0.9474410826     2.3298674779
    8      C       0.8813063017     0.2408115312     1.9766646592
    9      O       0.8343711549     0.3633683292     0.5064734471
   10      C       1.9395707789     1.0810799111    -0.0829694696
   11      C       3.4008819684     0.7002349039     0.3864234829
   12      C       3.8071669400    -0.8298454611     0.4507057114
   13      C       3.0418072252    -1.8427153754    -0.4930233775
   14      O       3.4594630953    -2.9811734248    -0.8024827742
   15      O      -4.2670363349    -1.3346724764    -0.9579516343
   16      O       1.8783590945    -1.2485366449    -1.0529744532
   17      O       1.6959164255     1.8718324508    -1.0191143979
   18      C       1.1839316946    -2.1882049328    -1.9618787366
   19      C       4.5405990526     1.2919659607    -0.5525469882
   20      C       5.7818310124     1.5989502517     0.3697725413
   21      C       6.2180230319     0.1352709595     0.7542464900
   22      C       5.2690248860    -0.7288370646    -0.1694802086
   23      O       5.0131238600     0.1355001153    -1.3480912145
   24      H       3.5303462001     1.1258913222     1.3986845078
   25      H       3.8039925922    -1.2204426187     1.4847492350
   26      H       4.1970140168     2.1126488917    -1.2124608192
   27      H       6.5680010042     2.1130776352    -0.2062075967
   28      H       5.5201681917     2.2157284386     1.2444352604
   29      H       7.2747656566    -0.0545387734     0.5093887093
   30      H       6.0599074010    -0.0863043813     1.8222958858
   31      H       5.6752885659    -1.7099814275    -0.4845917717
   32      O      -1.7521964917    -1.2616347151     0.2257314495
   33      C      -4.5404787229    -2.7797711544    -1.1273742706
   34      C      -4.4604038082     1.4436168247    -0.8848528009
   35      C      -4.4352544906     2.9894969501    -0.5531956055
   36      C      -2.9208979157     3.1995870149    -0.1776069088
   37      C      -2.3672499082     1.7290758374    -0.3295414447
   38      O      -3.1271594751     1.1911094943    -1.4772182645
   39      H      -5.1044734796     1.0523815743     1.2369547313
   40      H      -2.8524697209     1.4541583387     1.8461869056
   41      H      -5.6265491610    -3.0015913780    -1.0817534812
   42      H      -5.2590478160     1.1243014038    -1.5817745882
   43      H      -4.7168257461     3.5775863873    -1.4410845734
   44      H      -5.1183222142     3.2471046508     0.2720610936
   45      H      -2.4166296750     3.8732573151    -0.8886087015
   46      H      -2.7835833043     3.5931528313     0.8421208023
   47      H      -1.2748747216     1.6378153894    -0.5018644199
   48      H      -4.0233743145    -3.3823848940    -0.3530432503
   49      H      -4.1474761397    -3.0472904847    -2.1252933859
   50      H       0.2220282063    -1.7041765900    -2.2137711506
   51      H       0.9948334619    -3.1631089387    -1.4693687713
   52      H       1.7723271932    -2.3632138757    -2.8860444766
   53      H       0.5233130081     1.1746882167     2.4668411243
   54      H       1.9003102429     0.0125103322     2.3541565397
   55      H      -0.0198908451    -1.7312962956     1.5452435812
   56      H       0.1725584257    -1.3751692034     3.3192350949
 ----------------------------------------------------------------

    9   -1510.2546615348      6.04E-09 Convergence criterion met
 Total energy in the final basis set = -1510.25466153
 Final energy is   -1510.25466153485
 **  OPTIMIZATION CONVERGED  **

                    Orbital Energies (a.u.)
 --------------------------------------------------------------

 Alpha MOs
 -- Occupied --
-18.939 -18.929 -18.921 -18.920 -18.888 -18.885 -18.885 -18.882
-18.871 -18.866 -10.107 -10.100 -10.097 -10.092 -10.079 -10.073
-10.061 -10.060 -10.060 -10.056 -10.056 -10.054 -10.044 -10.039
-10.034 -10.033 -10.024 -10.022 -10.017 -10.016  -1.015  -1.010
 -1.004  -1.001  -0.972  -0.965  -0.942  -0.935  -0.932  -0.928
 -0.766  -0.759  -0.726  -0.721  -0.711  -0.705  -0.698  -0.660
 -0.654  -0.612  -0.603  -0.583  -0.550  -0.541  -0.540  -0.533
 -0.513  -0.508  -0.492  -0.479  -0.470  -0.458  -0.450  -0.438
 -0.434  -0.429  -0.419  -0.413  -0.412  -0.407  -0.405  -0.403
 -0.396  -0.392  -0.374  -0.370  -0.361  -0.354  -0.353  -0.346
 -0.342  -0.339  -0.336  -0.332  -0.327  -0.322  -0.317  -0.315
 -0.310  -0.305  -0.303  -0.302  -0.299  -0.295  -0.276  -0.274
 -0.273  -0.251  -0.248  -0.244  -0.237  -0.235  -0.229  -0.182
 -0.171  -0.170  -0.165  -0.157  -0.153  -0.146  -0.146  -0.144
 -0.139

          Ground-State Mulliken Net Atomic Charges

     Atom                 Charge (a.u.)
  ----------------------------------------
      1 O                    -0.217374
      2 C                     0.205027
      3 C                    -0.079209
      4 C                    -0.080165
      5 C                     0.210106
      6 O                    -0.180551
      7 C                    -0.051467
      8 C                    -0.050170
      9 O                    -0.179957
     10 C                     0.222311
     11 C                    -0.087191
     12 C                    -0.078912
     13 C                     0.209354
     14 O                    -0.217332
     15 O                    -0.159128
     16 O                    -0.162703
     17 O                    -0.194064
     18 C                    -0.125324
     19 C                     0.023610
     20 C                    -0.142091
     21 C                    -0.146053
     22 C                     0.024299
     23 O                    -0.190689
     24 H                     0.075317
     25 H                     0.079504
     26 H                     0.092825
     27 H                     0.079113
     28 H                     0.071780
     29 H                     0.079581
     30 H                     0.071808
     31 H                     0.089702
     32 O                    -0.197539
     33 C                    -0.126158
     34 C                     0.027273
     35 C                    -0.144573
     36 C                    -0.143537
     37 C                     0.025032
     38 O                    -0.181692
     39 H                     0.083977
     40 H                     0.084089
     41 H                     0.086782
     42 H                     0.084212
     43 H                     0.077599
     44 H                     0.072494
     45 H                     0.079589
     46 H                     0.071945
     47 H                     0.095946
     48 H                     0.089015
     49 H                     0.091554
     50 H                     0.103367
     51 H                     0.091064
     52 H                     0.089945
     53 H                     0.082775
     54 H                     0.076844
     55 H                     0.102616
     56 H                     0.085422
  ----------------------------------------
  Sum of atomic charges =     0.000000

                    Cartesian Multipole Moments
 -----------------------------------------------------------------
    Charge (ESU x 10^10)
                 0.0000
    Dipole Moment (Debye)
         X       1.2035      Y       1.4470      Z       3.1439
       Tot       3.6642
    Quadrupole Moments (Debye-Ang)
        XX    -156.0642     XY      -1.1861     YY    -157.9545
        XZ      15.4900     YZ       6.0976     ZZ    -160.3008

 Total job time:  57.53s(wall), 2735.68s(cpu)
        *  Thank you very much for using Q-Chem.  Have a nice day.  *
