 Q-Chem 5.0, Q-Chem, Inc., Pleasanton, CA (2017)
 Q-Chem 5.0.1 for Intel X86 EM64T Linux

User input:
--------------------------------------------------------------
$molecule
0  1
O -3.94934 -3.66094 2.70899
C -3.26408 -4.56952 2.26188
C -3.36658 -6.02376 2.66595
C -3.63629 -7.04588 1.54953
C -3.59671 -6.52161 0.1312
O -2.75076 -5.45201 0.05532
C -1.4953 -5.76918 -0.55499
C -1.69966 -6.12296 -2.02441
O -1.59901 -7.54438 -2.20417
C -0.53313 -8.13355 -1.60758
C 0.71525 -8.08868 -2.45623
C 0.50097 -7.60466 -3.89778
C -0.81823 -6.91126 -4.17279
O -0.97249 -5.94762 -4.9091
O -2.00878 -4.17712 1.88408
O -1.77455 -7.87469 -4.43106
O -0.71729 -9.09842 -0.88364
C -3.05376 -7.66577 -4.91983
C 1.7667 -7.08466 -1.95002
C 3.14878 -7.50269 -2.44779
C 3.01568 -7.20015 -3.92716
C 1.62819 -6.54413 -3.94924
O 1.53228 -5.91782 -2.69448
H 1.1623 -9.10973 -2.43595
H 0.65844 -8.38813 -4.67287
H 1.76735 -6.96997 -0.84394
H 3.88091 -6.7911 -2.00259
H 3.45557 -8.54218 -2.20239
H 3.80618 -6.46849 -4.2061
H 3.05825 -8.08394 -4.59992
H 1.54321 -5.87392 -4.83245
O -4.49995 -6.694 -0.67255
C -1.61017 -2.87105 1.677
C -2.07978 -6.60679 3.28458
C -2.41653 -7.82048 4.15244
C -2.74848 -8.84482 3.0861
C -2.48076 -8.02604 1.81898
O -1.41361 -7.19042 2.19678
H -4.16851 -6.05837 3.43801
H -4.61415 -7.56388 1.67233
H -1.71584 -2.28232 2.61296
H -1.50405 -5.86006 3.87402
H -1.48309 -8.13859 4.66955
H -3.2132 -7.64311 4.90659
H -2.01067 -9.67522 3.15589
H -3.78079 -9.2549 3.12361
H -2.30538 -8.70306 0.96038
H -2.21998 -2.41118 0.87033
H -0.54454 -2.86139 1.36933
H -3.78737 -8.08174 -4.19893
H -3.16551 -8.19344 -5.88911
H -3.28546 -6.58888 -5.06352
H -2.61866 -5.68395 -2.47055
H -0.83836 -5.5444 -2.41737
H -0.84233 -6.42052 0.0482
H -0.96002 -4.7918 -0.51163
$end

$opt
CONSTRAINT
tors           1           2           3           4    +123.158
tors           3           4           5           6     +28.421
tors           4           5           6           7    +104.211
tors           5           6           7           8     +66.316
tors           6           7           8           9    -104.211
tors           7           8           9          10     -47.368
tors           8           9          10          11     -85.263
tors           9          10          11          12      -9.474
tors          11          12          13          14    +142.105
ENDCONSTRAINT
$end

$rem
JOBTYPE                   OPT
METHOD                    B3LYP
DFT_D                     d3_op
BASIS                     STO-3G
GEOM_OPT_MAX_CYCLES       100
GEOM_OPT_TOL_GRADIENT     300
GEOM_OPT_TOL_DISPLACEMENT 1200
GEOM_OPT_TOL_ENERGY       100
SYMMETRY                  False
THRESH                    12
SCF_CONVERGENCE           8
MAX_SUB_FILE_NUM          128
MEM_STATIC                400
MEM_TOTAL                 4000
$end
--------------------------------------------------------------

   15   -1510.0263023821      9.52E-09 Convergence criterion met
 Total energy in the final basis set = -1510.02630238
   14   -1510.1083600825      9.02E-09 Convergence criterion met
 Total energy in the final basis set = -1510.10836008
   14   -1510.1612458887      8.40E-09 Convergence criterion met
 Total energy in the final basis set = -1510.16124589
   14   -1510.1912571800      5.39E-09 Convergence criterion met
 Total energy in the final basis set = -1510.19125718
   14   -1510.2086404489      5.93E-09 Convergence criterion met
 Total energy in the final basis set = -1510.20864045
   14   -1510.2201273912      3.24E-09 Convergence criterion met
 Total energy in the final basis set = -1510.22012739
   14   -1510.2276444249      3.21E-09 Convergence criterion met
 Total energy in the final basis set = -1510.22764442
   13   -1510.2330491870      6.55E-09 Convergence criterion met
   10   -1510.2462085221      9.13E-09 Convergence criterion met
 Total energy in the final basis set = -1510.24620852
   11   -1510.2462205238      3.79E-09 Convergence criterion met
 Total energy in the final basis set = -1510.24622052
   10   -1510.2462284810      7.81E-09 Convergence criterion met
 Total energy in the final basis set = -1510.24622848
    9   -1510.2462328939      9.10E-09 Convergence criterion met
 Total energy in the final basis set = -1510.24623289
    9   -1510.2462361234      6.13E-09 Convergence criterion met
 Total energy in the final basis set = -1510.24623612
    9   -1510.2462376871      6.69E-09 Convergence criterion met
 Total energy in the final basis set = -1510.24623769

             Standard Nuclear Orientation (Angstroms)
    I     Atom           X                Y                Z
 ----------------------------------------------------------------
    1      O       4.5572858717    -0.0285172717     2.6215059035
    2      C       3.8748128096     0.3019805268     1.6260356402
    3      C       4.2027645291    -0.0591303975     0.1288264683
    4      C       3.0931353274    -0.8401998819    -0.6856304803
    5      C       1.9565933114    -1.5789280908     0.0997735802
    6      O       1.6178613569    -0.9984207303     1.3984055975
    7      C       0.3420928570    -0.2753795509     1.2192425326
    8      C      -0.9069033177    -1.1951359040     0.8974967392
    9      O      -1.3447286055    -1.1707359024    -0.5252195704
   10      C      -1.4453581877     0.1824755286    -1.0418107775
   11      C      -2.8082078054     0.9423652308    -0.7740191744
   12      C      -3.9595542401     0.0422164800    -0.1842520482
   13      C      -3.7585272165    -1.4989732010    -0.4294332712
   14      O      -4.0300915064    -2.4309941788     0.3570080356
   15      O       2.8430600471     1.2980808036     1.6782912084
   16      O      -3.5314035861    -1.6642712153    -1.8409343077
   17      O      -0.5396673046     0.6526754514    -1.7680764659
   18      C      -3.3296206695    -3.0948599017    -2.1538871933
   19      C      -2.5901252821     1.9294178907     0.4635074747
   20      C      -3.8656669712     2.8469943261     0.6322550525
   21      C      -4.8707920974     1.8625725751     1.3414051354
   22      C      -4.0365527373     0.5259226673     1.3205878900
   23      O      -2.6658376192     1.0068590516     1.6244257145
   24      H      -3.0981230170     1.4797260670    -1.6935792366
   25      H      -4.9069118917     0.2969071403    -0.6959544736
   26      H      -1.6207702263     2.4656303104     0.4560909036
   27      H      -3.6336630511     3.7184726915     1.2647098627
   28      H      -4.2403851405     3.2065270918    -0.3395352563
   29      H      -5.0695093888     2.1729012640     2.3797699708
   30      H      -5.8300525010     1.7714113529     0.8076392597
   31      H      -4.3465337322    -0.2568630000     2.0404110057
   32      O       1.3963612224    -2.6115647553    -0.3270032817
   33      C       2.6005180285     1.6822578493     3.0860638964
   34      C       4.2459610157     1.2894527826    -0.7185629683
   35      C       4.7975965321     0.9977191078    -2.1726187946
   36      C       3.5251302632     0.3912368731    -2.8760561924
   37      C       2.5308374546     0.3094762066    -1.6546315235
   38      O       2.8073266233     1.5674621607    -0.9310586466
   39      H       5.1621893250    -0.6054174227     0.1224262129
   40      H       3.5744278327    -1.6183933589    -1.3049380654
   41      H       3.5173398389     2.0770535483     3.5697848030
   42      H       4.7307237207     2.1373303737    -0.1969261891
   43      H       5.1227824377     1.9325135193    -2.6557734817
   44      H       5.6477199117     0.2967801061    -2.1572191028
   45      H       3.1287736328     1.0737920436    -3.6452492826
   46      H       3.7150294867    -0.5909907695    -3.3371513758
   47      H       1.4450812282     0.2421806362    -1.8950066788
   48      H       2.2307231494     0.8239665260     3.6837630113
   49      H       1.8274472058     2.4721227907     3.0568710158
   50      H      -2.3558731872    -3.4527003222    -1.7597892784
   51      H      -3.3307271264    -3.1741290760    -3.2566347026
   52      H      -4.1385098855    -3.7245252566    -1.7307228411
   53      H      -0.6820014590    -2.2571534003     1.1185383572
   54      H      -1.7404061071    -0.8264541860     1.5358335127
   55      H       0.4406201466     0.5241597752     0.4526169539
   56      H       0.1548397841     0.2195023941     2.1934855322
 ----------------------------------------------------------------

    9   -1510.2462381851      3.01E-09 Convergence criterion met
 Total energy in the final basis set = -1510.24623819
 Final energy is   -1510.24623818514
 **  OPTIMIZATION CONVERGED  **

                    Orbital Energies (a.u.)
 --------------------------------------------------------------

 Alpha MOs
 -- Occupied --
-18.921 -18.921 -18.916 -18.914 -18.903 -18.903 -18.896 -18.883
-18.867 -18.860 -10.120 -10.102 -10.098 -10.089 -10.073 -10.070
-10.065 -10.061 -10.056 -10.055 -10.055 -10.048 -10.047 -10.042
-10.033 -10.031 -10.030 -10.029 -10.016 -10.014  -1.019  -1.005
 -1.002  -0.997  -0.985  -0.965  -0.945  -0.933  -0.930  -0.922
 -0.773  -0.756  -0.731  -0.718  -0.714  -0.701  -0.694  -0.656
 -0.652  -0.610  -0.597  -0.588  -0.556  -0.548  -0.538  -0.533
 -0.516  -0.511  -0.481  -0.476  -0.465  -0.461  -0.448  -0.439
 -0.432  -0.425  -0.423  -0.413  -0.409  -0.406  -0.404  -0.400
 -0.396  -0.376  -0.372  -0.368  -0.365  -0.362  -0.353  -0.351
 -0.344  -0.343  -0.337  -0.332  -0.329  -0.325  -0.321  -0.320
 -0.317  -0.312  -0.305  -0.298  -0.292  -0.288  -0.284  -0.282
 -0.269  -0.252  -0.250  -0.244  -0.241  -0.237  -0.228  -0.178
 -0.171  -0.169  -0.164  -0.160  -0.154  -0.148  -0.144  -0.140
 -0.137

          Ground-State Mulliken Net Atomic Charges

     Atom                 Charge (a.u.)
  ----------------------------------------
      1 O                    -0.219186
      2 C                     0.213004
      3 C                    -0.079568
      4 C                    -0.085313
      5 C                     0.216395
      6 O                    -0.190465
      7 C                    -0.053925
      8 C                    -0.062551
      9 O                    -0.188385
     10 C                     0.228334
     11 C                    -0.080283
     12 C                    -0.083251
     13 C                     0.215617
     14 O                    -0.220994
     15 O                    -0.165565
     16 O                    -0.177580
     17 O                    -0.181750
     18 C                    -0.129023
     19 C                     0.022287
     20 C                    -0.143781
     21 C                    -0.141521
     22 C                     0.021664
     23 O                    -0.195412
     24 H                     0.092046
     25 H                     0.086200
     26 H                     0.085757
     27 H                     0.080656
     28 H                     0.076657
     29 H                     0.080169
     30 H                     0.076327
     31 H                     0.092172
     32 O                    -0.183350
     33 C                    -0.128053
     34 C                     0.027000
     35 C                    -0.145703
     36 C                    -0.142047
     37 C                     0.014568
     38 O                    -0.187599
     39 H                     0.084821
     40 H                     0.083882
     41 H                     0.086967
     42 H                     0.081478
     43 H                     0.076796
     44 H                     0.072922
     45 H                     0.077695
     46 H                     0.073454
     47 H                     0.100875
     48 H                     0.087681
     49 H                     0.085576
     50 H                     0.092143
     51 H                     0.087475
     52 H                     0.088865
     53 H                     0.102739
     54 H                     0.096930
     55 H                     0.086027
     56 H                     0.090124
  ----------------------------------------
  Sum of atomic charges =    -0.000000

                    Cartesian Multipole Moments
 -----------------------------------------------------------------
    Charge (ESU x 10^10)
                -0.0000
    Dipole Moment (Debye)
         X      -2.0539      Y       2.5769      Z      -1.1779
       Tot       3.4995
    Quadrupole Moments (Debye-Ang)
        XX    -149.9604     XY      -5.1281     YY    -161.4451
        XZ      -6.6099     YZ       6.7367     ZZ    -160.6532

 Total job time:  109.32s(wall), 5199.70s(cpu)
        *  Thank you very much for using Q-Chem.  Have a nice day.  *
