 Q-Chem 5.0, Q-Chem, Inc., Pleasanton, CA (2017)
 Q-Chem 5.0.1 for Intel X86 EM64T Linux

User input:
--------------------------------------------------------------
$molecule
0  1
O 4.5572858717 -0.0285172717 2.6215059035
C 3.8748128096 0.3019805268 1.6260356402
C 4.2027645291 -0.0591303975 0.1288264683
C 3.0931353274 -0.8401998819 -0.6856304803
C 1.9565933114 -1.5789280908 0.0997735802
O 1.6178613569 -0.9984207303 1.3984055975
C 0.342092857 -0.2753795509 1.2192425326
C -0.9069033177 -1.195135904 0.8974967392
O -1.3447286055 -1.1707359024 -0.5252195704
C -1.4453581877 0.1824755286 -1.0418107775
C -2.8082078054 0.9423652308 -0.7740191744
C -3.9595542401 0.04221648 -0.1842520482
C -3.7585272165 -1.498973201 -0.4294332712
O -4.0300915064 -2.4309941788 0.3570080356
O 2.8430600471 1.2980808036 1.6782912084
O -3.5314035861 -1.6642712153 -1.8409343077
O -0.5396673046 0.6526754514 -1.7680764659
C -3.3296206695 -3.0948599017 -2.1538871933
C -2.5901252821 1.9294178907 0.4635074747
C -3.8656669712 2.8469943261 0.6322550525
C -4.8707920974 1.8625725751 1.3414051354
C -4.0365527373 0.5259226673 1.32058789
O -2.6658376192 1.0068590516 1.6244257145
H -3.098123017 1.479726067 -1.6935792366
H -4.9069118917 0.2969071403 -0.6959544736
H -1.6207702263 2.4656303104 0.4560909036
H -3.6336630511 3.7184726915 1.2647098627
H -4.2403851405 3.2065270918 -0.3395352563
H -5.0695093888 2.172901264 2.3797699708
H -5.830052501 1.7714113529 0.8076392597
H -4.3465337322 -0.256863 2.0404110057
O 1.3963612224 -2.6115647553 -0.3270032817
C 2.6005180285 1.6822578493 3.0860638964
C 4.2459610157 1.2894527826 -0.7185629683
C 4.7975965321 0.9977191078 -2.1726187946
C 3.5251302632 0.3912368731 -2.8760561924
C 2.5308374546 0.3094762066 -1.6546315235
O 2.8073266233 1.5674621607 -0.9310586466
H 5.162189325 -0.6054174227 0.1224262129
H 3.5744278327 -1.6183933589 -1.3049380654
H 3.5173398389 2.0770535483 3.569784803
H 4.7307237207 2.1373303737 -0.1969261891
H 5.1227824377 1.9325135193 -2.6557734817
H 5.6477199117 0.2967801061 -2.1572191028
H 3.1287736328 1.0737920436 -3.6452492826
H 3.7150294867 -0.5909907695 -3.3371513758
H 1.4450812282 0.2421806362 -1.8950066788
H 2.2307231494 0.823966526 3.6837630113
H 1.8274472058 2.4721227907 3.0568710158
H -2.3558731872 -3.4527003222 -1.7597892784
H -3.3307271264 -3.174129076 -3.2566347026
H -4.1385098855 -3.7245252566 -1.7307228411
H -0.682001459 -2.2571534003 1.1185383572
H -1.7404061071 -0.826454186 1.5358335127
H 0.4406201466 0.5241597752 0.4526169539
H 0.1548397841 0.2195023941 2.1934855322
$end

$rem
JOBTYPE                   OPT
METHOD                    B3LYP
DFT_D                     d3_op
BASIS                     STO-3G
GEOM_OPT_MAX_CYCLES       100
GEOM_OPT_TOL_GRADIENT     300
GEOM_OPT_TOL_DISPLACEMENT 1200
GEOM_OPT_TOL_ENERGY       100
SYMMETRY                  False
THRESH                    12
SCF_CONVERGENCE           8
MAX_SUB_FILE_NUM          128
MEM_STATIC                400
MEM_TOTAL                 4000
$end
--------------------------------------------------------------

   16   -1510.2460438293      3.85E-09 Convergence criterion met
 Total energy in the final basis set = -1510.24604383
   14   -1510.2489666303      4.67E-09 Convergence criterion met
 Total energy in the final basis set = -1510.24896663
   13   -1510.2529856383      9.39E-09 Convergence criterion met
 Total energy in the final basis set = -1510.25298564
   13   -1510.2555070984      8.28E-09 Convergence criterion met
 Total energy in the final basis set = -1510.25550710
   13   -1510.2583026523      6.35E-09 Convergence criterion met
 Total energy in the final basis set = -1510.25830265
   13   -1510.2604738558      6.87E-09 Convergence criterion met
 Total energy in the final basis set = -1510.26047386
   13   -1510.2630206580      6.76E-09 Convergence criterion met
 Total energy in the final basis set = -1510.26302066
   13   -1510.2651987569      7.79E-09 Convergence criterion met
   12   -1510.2788127848      5.25E-09 Convergence criterion met
 Total energy in the final basis set = -1510.27881278
   11   -1510.2788447013      9.38E-09 Convergence criterion met
 Total energy in the final basis set = -1510.27884470
    9   -1510.2788483056      8.87E-09 Convergence criterion met
 Total energy in the final basis set = -1510.27884831
   11   -1510.2788550039      2.83E-09 Convergence criterion met
 Total energy in the final basis set = -1510.27885500
   11   -1510.2788671825      9.80E-09 Convergence criterion met
 Total energy in the final basis set = -1510.27886718
    9   -1510.2788687488      8.78E-09 Convergence criterion met
 Total energy in the final basis set = -1510.27886875

             Standard Nuclear Orientation (Angstroms)
    I     Atom           X                Y                Z
 ----------------------------------------------------------------
    1      O      -4.1087403120     0.1268913980     2.6309827318
    2      C      -3.7962444105    -0.3022627065     1.4990711875
    3      C      -3.7225483080     0.5491780783     0.1753999258
    4      C      -2.4340327699     1.4708713196     0.0507391807
    5      C      -1.3881600772     1.2740150630     1.2290838993
    6      O      -1.3262047438    -0.0459352429     1.8344964500
    7      C      -0.7471498784    -1.0344682989     0.8838939228
    8      C       0.7728404514    -0.6970425634     0.7325059480
    9      O       0.7917156233     0.6153233235     0.0284925865
   10      C       1.4290511900     0.6901537232    -1.2399649117
   11      C       2.8312205191     0.0140882560    -1.5187635294
   12      C       3.8552948650     0.0204814792    -0.3088035074
   13      C       3.3477053231     0.7739797301     0.9772430982
   14      O       3.2717090921     0.3066436606     2.1347235234
   15      O      -3.5913046835    -1.6906074511     1.1979892598
   16      O       3.0053288728     2.1068380936     0.6012169568
   17      O       0.8842840065     1.4308086241    -2.1012491122
   18      C       2.2849338018     2.7905395378     1.7056206984
   19      C       2.7721722033    -1.5382538094    -1.8515518146
   20      C       4.1518005944    -1.9750293295    -2.4829385104
   21      C       5.0756466458    -2.0392825867    -1.2072872431
   22      C       4.0855450464    -1.5346999854    -0.0910013335
   23      O       2.8056433995    -2.1710677466    -0.5104718456
   24      H       3.2386375694     0.5711912256    -2.3808464214
   25      H       4.7967105244     0.5046606496    -0.6263743781
   26      H       1.8712909723    -1.8605361840    -2.4094810067
   27      H       4.0588809874    -2.9611296074    -2.9648097824
   28      H       4.5095429365    -1.2487369511    -3.2302429045
   29      H       5.3963311145    -3.0721124827    -0.9968733842
   30      H       5.9690118358    -1.4005641900    -1.2931513196
   31      H       4.3297711939    -1.8179373017     0.9515499187
   32      O      -0.8052419688     2.2349864668     1.7810245416
   33      C      -3.6564501286    -2.4836219496     2.4448119172
   34      C      -3.6376872313    -0.2890148167    -1.1701492045
   35      C      -4.1502371950     0.6261345125    -2.3431470298
   36      C      -2.9605559274     1.6523261559    -2.4591052370
   37      C      -1.9305137341     1.0818934544    -1.4057139161
   38      O      -2.1823930319    -0.3837012304    -1.4597004022
   39      H      -4.6262898405     1.1852229858     0.1706192508
   40      H      -2.7101842661     2.5398758614     0.0811962205
   41      H      -4.6493417853    -2.4008637950     2.9326608392
   42      H      -4.0847742957    -1.2994722071    -1.1103255861
   43      H      -4.2654327202     0.0367328456    -3.2670913304
   44      H      -5.1128745477     1.1079194339    -2.1091456057
   45      H      -2.5181685264     1.6466183849    -3.4679271113
   46      H      -3.2664882338     2.6822223724    -2.2156987548
   47      H      -0.8571033421     1.3150640096    -1.6276050621
   48      H      -2.8813102412    -2.1613622274     3.1699123651
   49      H      -3.4758887866    -3.5337856549     2.1497420501
   50      H       1.2183634343     2.4625686991     1.7431602537
   51      H       2.3301814012     3.8709975862     1.4776387792
   52      H       2.7661748392     2.5892006543     2.6829212223
   53      H       1.2031673119    -0.5233523671     1.7414283632
   54      H       1.4051066240    -1.4673855765     0.2164799308
   55      H      -1.2834019871    -0.9874053715    -0.1072541370
   56      H      -0.8789235903    -2.0262764288     1.3593374702
 ----------------------------------------------------------------

    9   -1510.2788687959      8.73E-09 Convergence criterion met
 Total energy in the final basis set = -1510.27886880
 Final energy is   -1510.27886879594
 **  OPTIMIZATION CONVERGED  **

                    Orbital Energies (a.u.)
 --------------------------------------------------------------

 Alpha MOs
 -- Occupied --
-18.932 -18.929 -18.923 -18.922 -18.899 -18.897 -18.890 -18.878
-18.877 -18.857 -10.114 -10.103 -10.094 -10.089 -10.081 -10.077
-10.058 -10.056 -10.051 -10.048 -10.046 -10.041 -10.041 -10.036
-10.036 -10.035 -10.030 -10.027 -10.018 -10.014  -1.019  -1.007
 -1.000  -0.996  -0.988  -0.973  -0.942  -0.937  -0.923  -0.921
 -0.779  -0.758  -0.735  -0.720  -0.715  -0.699  -0.687  -0.655
 -0.653  -0.609  -0.593  -0.580  -0.563  -0.553  -0.543  -0.532
 -0.523  -0.504  -0.489  -0.473  -0.469  -0.457  -0.450  -0.446
 -0.433  -0.425  -0.422  -0.416  -0.411  -0.404  -0.403  -0.399
 -0.387  -0.380  -0.373  -0.365  -0.363  -0.359  -0.351  -0.351
 -0.349  -0.341  -0.337  -0.335  -0.328  -0.325  -0.321  -0.318
 -0.315  -0.310  -0.302  -0.296  -0.295  -0.290  -0.281  -0.276
 -0.272  -0.261  -0.251  -0.248  -0.241  -0.234  -0.217  -0.182
 -0.172  -0.171  -0.166  -0.159  -0.158  -0.153  -0.146  -0.137
 -0.134

          Ground-State Mulliken Net Atomic Charges

     Atom                 Charge (a.u.)
  ----------------------------------------
      1 O                    -0.219317
      2 C                     0.210809
      3 C                    -0.084310
      4 C                    -0.084767
      5 C                     0.224093
      6 O                    -0.191007
      7 C                    -0.072901
      8 C                    -0.082678
      9 O                    -0.186242
     10 C                     0.221490
     11 C                    -0.082776
     12 C                    -0.083353
     13 C                     0.210597
     14 O                    -0.214372
     15 O                    -0.175693
     16 O                    -0.172096
     17 O                    -0.200252
     18 C                    -0.138391
     19 C                     0.023923
     20 C                    -0.142691
     21 C                    -0.141723
     22 C                     0.024465
     23 O                    -0.184428
     24 H                     0.093195
     25 H                     0.088988
     26 H                     0.090123
     27 H                     0.082572
     28 H                     0.078635
     29 H                     0.082311
     30 H                     0.078081
     31 H                     0.096654
     32 O                    -0.196322
     33 C                    -0.128519
     34 C                     0.024227
     35 C                    -0.143120
     36 C                    -0.144312
     37 C                     0.005977
     38 O                    -0.191660
     39 H                     0.083982
     40 H                     0.085946
     41 H                     0.087068
     42 H                     0.090949
     43 H                     0.076708
     44 H                     0.073736
     45 H                     0.078090
     46 H                     0.074053
     47 H                     0.113003
     48 H                     0.092418
     49 H                     0.086075
     50 H                     0.110824
     51 H                     0.087501
     52 H                     0.090048
     53 H                     0.089280
     54 H                     0.112759
     55 H                     0.112681
     56 H                     0.079666
  ----------------------------------------
  Sum of atomic charges =     0.000000

                    Cartesian Multipole Moments
 -----------------------------------------------------------------
    Charge (ESU x 10^10)
                -0.0000
    Dipole Moment (Debye)
         X       2.1055      Y      -2.1967      Z      -3.4214
       Tot       4.5787
    Quadrupole Moments (Debye-Ang)
        XX    -141.0385     XY      -1.4258     YY    -158.1365
        XZ      -0.0914     YZ      -1.9061     ZZ    -167.1764

 Total job time:  118.35s(wall), 5635.09s(cpu)
        *  Thank you very much for using Q-Chem.  Have a nice day.  *
