 Q-Chem 5.0, Q-Chem, Inc., Pleasanton, CA (2017)
 Q-Chem 5.0.1 for Intel X86 EM64T Linux

User input:
--------------------------------------------------------------
$molecule
0  1
O -5.5479973097 -1.1237526364 0.4941856782
C -4.3756555702 -0.8556000944 0.1452889306
C -3.4410384447 0.1605489763 0.8954471565
C -1.8453960155 0.1422230254 0.6982112207
C -1.3790409056 -0.7638202284 -0.5482237518
O -1.7645883489 -0.3032500737 -1.8595006245
C -1.1244029326 0.9673159824 -2.2640853867
C 0.4739253854 1.0767853208 -2.03422899
O 1.2607930016 0.3819162758 -1.0036191707
C 1.506849278 0.767074252 0.3499874734
C 3.0677998018 0.8471508779 0.5664760879
C 3.6797364451 -0.5805563051 0.9318113147
C 2.6489490046 -1.7329461079 0.6458620959
O 2.2150362432 -2.0894839608 -0.471329071
O -3.7146507864 -1.4980146149 -0.9383403307
O 2.1426453255 -2.2207899102 1.8916033937
O 0.6991791109 0.875992336 1.2934870378
C 1.0033747057 -3.140572143 1.6364799372
C 3.9262138794 1.2342625988 -0.7077288361
C 5.3282895815 1.7484138558 -0.1922635454
C 5.9792885931 0.3996318711 0.2925049298
C 4.8670378661 -0.6471510604 -0.1174419006
O 4.25791236 -0.0640403267 -1.3356278051
H 3.2368496252 1.5539062073 1.3989631054
H 4.0150267592 -0.6299638848 1.9822687099
H 3.413493858 1.8952853842 -1.4320372688
H 5.8988646772 2.1963794956 -1.0214868813
H 5.2335977401 2.492393818 0.614914442
H 6.9235047398 0.1911217898 -0.2349543059
H 6.1705897528 0.3893972171 1.3775049012
H 5.2348830256 -1.6703918955 -0.3257652869
O -0.8761344811 -1.9003809827 -0.4024882816
C -4.6035044855 -2.4908245657 -1.5817175826
C -3.8190273178 1.6859261288 0.6468025752
C -3.5139116549 2.4578441 1.9868833292
C -1.9423129939 2.3774221939 2.0053698412
C -1.6395951435 1.7256841543 0.5952117193
O -2.7614455637 2.1860094119 -0.2522976153
H -3.6404557682 -0.0598182628 1.9612529182
H -1.356470845 -0.27053989 1.5958846167
H -5.4919991329 -2.0053550852 -2.0347550485
H -4.8237770713 1.8536207522 0.2122758327
H -3.8632865019 3.5006241224 1.9161675899
H -3.9826312258 1.9836762692 2.8638435427
H -1.4842716294 3.376588694 2.0729759632
H -1.5551728918 1.7582076287 2.8296110556
H -0.6880330322 2.0560936795 0.156050351
H -4.948447407 -3.2580975456 -0.8588045347
H -3.9961692299 -2.9675422092 -2.3729010955
H 0.5513240996 -3.340129048 2.6251425008
H 1.3526285274 -4.0963814671 1.1958255836
H 0.2535634026 -2.6801502718 0.9478510731
H 0.9407628573 0.6750683916 -2.9586254487
H 0.6979027147 2.1686318966 -2.0017528007
H -1.6645134863 1.8139992891 -1.7859179718
H -1.2760998334 1.0257885884 -3.3614563727
$end

$rem
JOBTYPE                   OPT
METHOD                    B3LYP
DFT_D                     d3_op
BASIS                     STO-3G
GEOM_OPT_MAX_CYCLES       100
GEOM_OPT_TOL_GRADIENT     300
GEOM_OPT_TOL_DISPLACEMENT 1200
GEOM_OPT_TOL_ENERGY       100
SYMMETRY                  False
THRESH                    12
SCF_CONVERGENCE           8
MAX_SUB_FILE_NUM          128
MEM_STATIC                400
MEM_TOTAL                 4000
$end
--------------------------------------------------------------

   16   -1510.2172499710      4.28E-09 Convergence criterion met
 Total energy in the final basis set = -1510.21724997
   15   -1510.2194594131      3.75E-09 Convergence criterion met
 Total energy in the final basis set = -1510.21945941
   15   -1510.2254150652      2.86E-09 Convergence criterion met
 Total energy in the final basis set = -1510.22541507
   15   -1510.2379862037      3.26E-09 Convergence criterion met
 Total energy in the final basis set = -1510.23798620
   14   -1510.2419669415      8.05E-09 Convergence criterion met
 Total energy in the final basis set = -1510.24196694
   14   -1510.2474412522      2.62E-09 Convergence criterion met
 Total energy in the final basis set = -1510.24744125
   13   -1510.2508212257      5.29E-09 Convergence criterion met
 Total energy in the final basis set = -1510.25082123
   13   -1510.2535225855      5.74E-09 Convergence criterion met
   11   -1510.2918954432      5.30E-09 Convergence criterion met
 Total energy in the final basis set = -1510.29189544
   13   -1510.2919377566      2.47E-09 Convergence criterion met
 Total energy in the final basis set = -1510.29193776
   11   -1510.2919520505      4.45E-09 Convergence criterion met
 Total energy in the final basis set = -1510.29195205
   11   -1510.2919618091      7.18E-09 Convergence criterion met
 Total energy in the final basis set = -1510.29196181
   11   -1510.2919571068      5.60E-09 Convergence criterion met
 Total energy in the final basis set = -1510.29195711
   11   -1510.2919637059      4.91E-09 Convergence criterion met
 Total energy in the final basis set = -1510.29196371

             Standard Nuclear Orientation (Angstroms)
    I     Atom           X                Y                Z
 ----------------------------------------------------------------
    1      O      -3.8833130824     0.9942884169    -1.8652282696
    2      C      -3.9173155510     0.4423184972    -0.7450227705
    3      C      -3.0923857457     0.8149110020     0.5370693056
    4      C      -2.1235786784    -0.3338450509     1.0473957919
    5      C      -2.1079272710    -1.6926404376     0.2243871883
    6      O      -2.2189424077    -1.7115220861    -1.2073258126
    7      C      -1.3562232975    -0.7335689531    -1.9103695003
    8      C       0.0874761366    -1.3211084554    -2.1580976586
    9      O       1.0146321394    -0.7858462489    -1.1309553761
   10      C       1.6653237605     0.3952913270    -1.6036940815
   11      C       2.4413801839     1.0926242830    -0.4305578792
   12      C       2.9797915483     0.1632714210     0.7383314226
   13      C       2.5809707483    -1.3503283412     0.6479011506
   14      O       3.1879250560    -2.2743725552     0.0688493674
   15      O      -4.7667400651    -0.6553199997    -0.3992153630
   16      O       1.4059720703    -1.5391641041     1.4643258634
   17      O       1.5888539165     0.8158254065    -2.7785033269
   18      C       0.9679989542    -2.9563026754     1.4434362685
   19      C       3.7968492438     1.7056986603    -0.9764633022
   20      C       4.3559909800     2.7413066511     0.0752401117
   21      C       4.9238602128     1.7766717226     1.1823761517
   22      C       4.5481470277     0.3683163296     0.5769061828
   23      O       4.7315291614     0.5600324824    -0.8794581740
   24      H       1.7664584066     1.8720997550    -0.0281661759
   25      H       2.6222402839     0.5388003158     1.7137977828
   26      H       3.7267936574     2.0676568327    -2.0210313343
   27      H       5.1522684031     3.3551043570    -0.3746527111
   28      H       3.5678060683     3.4098173059     0.4569461529
   29      H       6.0171253697     1.8727763573     1.2784085811
   30      H       4.4661213877     1.9432099312     2.1705515738
   31      H       5.1579714195    -0.4843302584     0.9330468221
   32      O      -2.1028969994    -2.7972078547     0.8203928563
   33      C      -5.4768193676    -1.1478192011    -1.6015797344
   34      C      -2.0694613465     2.0034863018     0.3085178365
   35      C      -1.6843744480     2.6028641296     1.7120195596
   36      C      -0.7681845064     1.4572813480     2.2877956477
   37      C      -0.7362032445     0.4321273547     1.0909392411
   38      O      -0.8111409161     1.3225320831    -0.1007912562
   39      H      -3.8153452452     1.0699166428     1.3330731670
   40      H      -2.4076457685    -0.6477242353     2.0673159734
   41      H      -4.7660113928    -1.6234238071    -2.3084024955
   42      H      -2.3794236721     2.7307842135    -0.4674610713
   43      H      -1.1239685614     3.5434100377     1.5873182381
   44      H      -2.5692549931     2.7996938350     2.3380975483
   45      H       0.2476161934     1.8237382433     2.5064432116
   46      H      -1.1815107125     1.0047307871     3.2031443254
   47      H       0.1515716440    -0.2484764366     1.0685225709
   48      H      -6.0117005375    -0.3303778145    -2.1262213685
   49      H      -6.2017658774    -1.9017873430    -1.2438324354
   50      H       1.2253626188    -3.4338041228     2.4098971996
   51      H       1.4845637251    -3.4936186967     0.6239417486
   52      H      -0.1324705403    -2.9811082813     1.2980538247
   53      H       0.0936540043    -2.4253913870    -2.0551149697
   54      H       0.4522450975    -1.0252431930    -3.1645660762
   55      H      -1.2248066280     0.2210548061    -1.3260630142
   56      H      -1.8569876237    -0.5383099240    -2.8791772571
 ----------------------------------------------------------------

    9   -1510.2919641881      4.08E-09 Convergence criterion met
 Total energy in the final basis set = -1510.29196419
 Final energy is   -1510.29196418810
 **  OPTIMIZATION CONVERGED  **

                    Orbital Energies (a.u.)
 --------------------------------------------------------------

 Alpha MOs
 -- Occupied --
-18.937 -18.936 -18.933 -18.921 -18.917 -18.887 -18.880 -18.880
-18.877 -18.876 -10.105 -10.104 -10.103 -10.103 -10.073 -10.064
-10.064 -10.060 -10.058 -10.056 -10.048 -10.046 -10.046 -10.040
-10.040 -10.039 -10.032 -10.029 -10.021 -10.020  -1.018  -1.016
 -1.006  -1.003  -0.989  -0.970  -0.941  -0.941  -0.935  -0.933
 -0.773  -0.764  -0.731  -0.726  -0.713  -0.707  -0.695  -0.664
 -0.656  -0.611  -0.603  -0.586  -0.558  -0.546  -0.544  -0.538
 -0.519  -0.509  -0.487  -0.481  -0.469  -0.458  -0.454  -0.445
 -0.442  -0.432  -0.426  -0.415  -0.414  -0.412  -0.409  -0.406
 -0.391  -0.382  -0.375  -0.372  -0.367  -0.362  -0.354  -0.354
 -0.349  -0.343  -0.338  -0.336  -0.331  -0.329  -0.323  -0.320
 -0.314  -0.312  -0.307  -0.305  -0.299  -0.293  -0.288  -0.281
 -0.271  -0.260  -0.257  -0.247  -0.240  -0.234  -0.231  -0.188
 -0.181  -0.175  -0.170  -0.161  -0.160  -0.154  -0.151  -0.149
 -0.145

          Ground-State Mulliken Net Atomic Charges

     Atom                 Charge (a.u.)
  ----------------------------------------
      1 O                    -0.213769
      2 C                     0.209692
      3 C                    -0.083987
      4 C                    -0.085771
      5 C                     0.214427
      6 O                    -0.183824
      7 C                    -0.077356
      8 C                    -0.057087
      9 O                    -0.177987
     10 C                     0.217346
     11 C                    -0.078933
     12 C                    -0.081874
     13 C                     0.222077
     14 O                    -0.210669
     15 O                    -0.170082
     16 O                    -0.177721
     17 O                    -0.212285
     18 C                    -0.143066
     19 C                     0.024064
     20 C                    -0.144373
     21 C                    -0.143785
     22 C                     0.025532
     23 O                    -0.188012
     24 H                     0.090396
     25 H                     0.082567
     26 H                     0.091035
     27 H                     0.078775
     28 H                     0.072584
     29 H                     0.078539
     30 H                     0.072178
     31 H                     0.086616
     32 O                    -0.203085
     33 C                    -0.128283
     34 C                     0.024072
     35 C                    -0.143056
     36 C                    -0.143691
     37 C                     0.004246
     38 O                    -0.190204
     39 H                     0.088194
     40 H                     0.089219
     41 H                     0.093681
     42 H                     0.093144
     43 H                     0.078781
     44 H                     0.076605
     45 H                     0.075173
     46 H                     0.077113
     47 H                     0.117075
     48 H                     0.090132
     49 H                     0.091953
     50 H                     0.081251
     51 H                     0.098421
     52 H                     0.099347
     53 H                     0.093008
     54 H                     0.100097
     55 H                     0.116170
     56 H                     0.085391
  ----------------------------------------
  Sum of atomic charges =     0.000000

                    Cartesian Multipole Moments
 -----------------------------------------------------------------
    Charge (ESU x 10^10)
                 0.0000
    Dipole Moment (Debye)
         X      -1.5101      Y       2.7646      Z       3.0388
       Tot       4.3770
    Quadrupole Moments (Debye-Ang)
        XX    -159.6579     XY       3.0157     YY    -162.1707
        XZ       7.3682     YZ       6.7700     ZZ    -160.9681

 Total job time:  218.74s(wall), 10433.38s(cpu)
        *  Thank you very much for using Q-Chem.  Have a nice day.  *
