 Q-Chem 5.0, Q-Chem, Inc., Pleasanton, CA (2017)
 Q-Chem 5.0.1 for Intel X86 EM64T Linux

User input:
--------------------------------------------------------------
$molecule
0  1
O -3.94934 -3.66094 2.70899
C -3.26408 -4.56952 2.26188
C -3.36658 -6.02376 2.66595
C -2.76261 -7.06348 1.7078
C -1.9673 -6.5228 0.54022
O -0.8359 -5.90736 0.99475
C 0.09137 -6.81208 1.60375
C 0.28752 -8.03854 0.71862
O -0.89825 -8.27799 -0.05565
C -1.8608 -9.00667 0.56215
C -2.24539 -10.24712 -0.20857
C -3.31107 -10.03104 -1.29296
C -3.56871 -8.59097 -1.68857
O -2.77074 -7.85772 -2.25439
O -2.37452 -4.13586 1.33606
O -4.84659 -8.15981 -1.511
O -1.63544 -9.49505 1.64386
C -5.33984 -6.94124 -1.92881
C -1.1135 -10.85234 -1.08389
C -1.38332 -12.33664 -1.33323
C -2.57729 -12.25443 -2.26334
C -2.64719 -10.73864 -2.48448
O -1.31184 -10.31071 -2.3671
H -2.5958 -11.07339 0.46884
H -4.28635 -10.47638 -0.99213
H -0.09934 -10.72238 -0.64758
H -0.51198 -12.72539 -1.90815
H -1.52854 -12.9665 -0.42939
H -2.32571 -12.79022 -3.20527
H -3.53214 -12.64099 -1.84536
H -3.15436 -10.50225 -3.44615
O -2.54282 -6.06157 -0.43062
C -2.23186 -2.83729 0.88421
C -3.09292 -6.20893 4.12575
C -3.85479 -7.4109 4.66269
C -3.13321 -8.50058 3.93269
C -2.09859 -7.65703 3.15254
O -1.80152 -6.60477 4.03442
H -4.4709 -6.13097 2.53464
H -3.61547 -7.69219 1.3464
H -1.96121 -2.16517 1.72609
H -3.2832 -5.30363 4.74458
H -3.6573 -7.49706 5.75533
H -4.94939 -7.36419 4.47567
H -2.62226 -9.12954 4.69874
H -3.76024 -9.14428 3.2793
H -1.19902 -8.28473 3.23182
H -3.17634 -2.4913 0.41224
H -1.42291 -2.80441 0.12595
H -6.41577 -6.87851 -1.66666
H -5.23433 -6.84293 -3.03019
H -4.81122 -6.10874 -1.42479
H 1.0436 -7.7472 -0.04333
H 0.72035 -8.92569 1.23172
H 0.10124 -6.85557 2.69275
H 1.07816 -6.30021 1.58853
$end

$opt
CONSTRAINT
tors           1           2           3           4    +161.053
tors           3           4           5           6     +66.316
tors           4           5           6           7     +66.316
tors           5           6           7           8     +47.368
tors           6           7           8           9     -28.421
tors           7           8           9          10     -85.263
tors           8           9          10          11    -123.158
tors           9          10          11          12     -85.263
tors          11          12          13          14     +66.316
ENDCONSTRAINT
$end

$rem
JOBTYPE                   OPT
METHOD                    B3LYP
DFT_D                     d3_op
BASIS                     STO-3G
GEOM_OPT_MAX_CYCLES       100
GEOM_OPT_TOL_GRADIENT     300
GEOM_OPT_TOL_DISPLACEMENT 1200
GEOM_OPT_TOL_ENERGY       100
SYMMETRY                  False
THRESH                    12
SCF_CONVERGENCE           8
MAX_SUB_FILE_NUM          128
MEM_STATIC                400
MEM_TOTAL                 4000
$end
--------------------------------------------------------------

   16   -1509.9111751398      5.23E-09 Convergence criterion met
 Total energy in the final basis set = -1509.91117514
   15   -1510.0070611569      8.56E-09 Convergence criterion met
 Total energy in the final basis set = -1510.00706116
   15   -1510.0802934279      2.99E-09 Convergence criterion met
 Total energy in the final basis set = -1510.08029343
   15   -1510.1262521096      3.24E-09 Convergence criterion met
 Total energy in the final basis set = -1510.12625211
   15   -1510.1542956046      3.30E-09 Convergence criterion met
 Total energy in the final basis set = -1510.15429560
   14   -1510.1713372240      7.87E-09 Convergence criterion met
 Total energy in the final basis set = -1510.17133722
   14   -1510.1814710202      6.63E-09 Convergence criterion met
 Total energy in the final basis set = -1510.18147102
   14   -1510.1894345602      3.87E-09 Convergence criterion met
   11   -1510.2171652397      2.49E-09 Convergence criterion met
 Total energy in the final basis set = -1510.21716524
   10   -1510.2171710727      8.17E-09 Convergence criterion met
 Total energy in the final basis set = -1510.21717107
   11   -1510.2171743458      2.08E-09 Convergence criterion met
 Total energy in the final basis set = -1510.21717435
    9   -1510.2171763294      7.64E-09 Convergence criterion met
 Total energy in the final basis set = -1510.21717633
    9   -1510.2171778243      7.92E-09 Convergence criterion met
 Total energy in the final basis set = -1510.21717782
    9   -1510.2171790802      8.03E-09 Convergence criterion met
 Total energy in the final basis set = -1510.21717908

             Standard Nuclear Orientation (Angstroms)
    I     Atom           X                Y                Z
 ----------------------------------------------------------------
    1      O      -5.5479973097    -1.1237526364     0.4941856782
    2      C      -4.3756555702    -0.8556000944     0.1452889306
    3      C      -3.4410384447     0.1605489763     0.8954471565
    4      C      -1.8453960155     0.1422230254     0.6982112207
    5      C      -1.3790409056    -0.7638202284    -0.5482237518
    6      O      -1.7645883489    -0.3032500737    -1.8595006245
    7      C      -1.1244029326     0.9673159824    -2.2640853867
    8      C       0.4739253854     1.0767853208    -2.0342289900
    9      O       1.2607930016     0.3819162758    -1.0036191707
   10      C       1.5068492780     0.7670742520     0.3499874734
   11      C       3.0677998018     0.8471508779     0.5664760879
   12      C       3.6797364451    -0.5805563051     0.9318113147
   13      C       2.6489490046    -1.7329461079     0.6458620959
   14      O       2.2150362432    -2.0894839608    -0.4713290710
   15      O      -3.7146507864    -1.4980146149    -0.9383403307
   16      O       2.1426453255    -2.2207899102     1.8916033937
   17      O       0.6991791109     0.8759923360     1.2934870378
   18      C       1.0033747057    -3.1405721430     1.6364799372
   19      C       3.9262138794     1.2342625988    -0.7077288361
   20      C       5.3282895815     1.7484138558    -0.1922635454
   21      C       5.9792885931     0.3996318711     0.2925049298
   22      C       4.8670378661    -0.6471510604    -0.1174419006
   23      O       4.2579123600    -0.0640403267    -1.3356278051
   24      H       3.2368496252     1.5539062073     1.3989631054
   25      H       4.0150267592    -0.6299638848     1.9822687099
   26      H       3.4134938580     1.8952853842    -1.4320372688
   27      H       5.8988646772     2.1963794956    -1.0214868813
   28      H       5.2335977401     2.4923938180     0.6149144420
   29      H       6.9235047398     0.1911217898    -0.2349543059
   30      H       6.1705897528     0.3893972171     1.3775049012
   31      H       5.2348830256    -1.6703918955    -0.3257652869
   32      O      -0.8761344811    -1.9003809827    -0.4024882816
   33      C      -4.6035044855    -2.4908245657    -1.5817175826
   34      C      -3.8190273178     1.6859261288     0.6468025752
   35      C      -3.5139116549     2.4578441000     1.9868833292
   36      C      -1.9423129939     2.3774221939     2.0053698412
   37      C      -1.6395951435     1.7256841543     0.5952117193
   38      O      -2.7614455637     2.1860094119    -0.2522976153
   39      H      -3.6404557682    -0.0598182628     1.9612529182
   40      H      -1.3564708450    -0.2705398900     1.5958846167
   41      H      -5.4919991329    -2.0053550852    -2.0347550485
   42      H      -4.8237770713     1.8536207522     0.2122758327
   43      H      -3.8632865019     3.5006241224     1.9161675899
   44      H      -3.9826312258     1.9836762692     2.8638435427
   45      H      -1.4842716294     3.3765886940     2.0729759632
   46      H      -1.5551728918     1.7582076287     2.8296110556
   47      H      -0.6880330322     2.0560936795     0.1560503510
   48      H      -4.9484474070    -3.2580975456    -0.8588045347
   49      H      -3.9961692299    -2.9675422092    -2.3729010955
   50      H       0.5513240996    -3.3401290480     2.6251425008
   51      H       1.3526285274    -4.0963814671     1.1958255836
   52      H       0.2535634026    -2.6801502718     0.9478510731
   53      H       0.9407628573     0.6750683916    -2.9586254487
   54      H       0.6979027147     2.1686318966    -2.0017528007
   55      H      -1.6645134863     1.8139992891    -1.7859179718
   56      H      -1.2760998334     1.0257885884    -3.3614563727
 ----------------------------------------------------------------

    9   -1510.2171798938      4.17E-09 Convergence criterion met
 Total energy in the final basis set = -1510.21717989
 Final energy is   -1510.21717989375
 **  OPTIMIZATION CONVERGED  **

                    Orbital Energies (a.u.)
 --------------------------------------------------------------

 Alpha MOs
 -- Occupied --
-18.939 -18.920 -18.918 -18.903 -18.899 -18.895 -18.888 -18.886
-18.868 -18.862 -10.117 -10.103 -10.098 -10.083 -10.078 -10.065
-10.063 -10.060 -10.060 -10.058 -10.057 -10.036 -10.035 -10.035
-10.033 -10.031 -10.021 -10.020 -10.019 -10.019  -1.015  -1.012
 -0.995  -0.994  -0.978  -0.967  -0.949  -0.934  -0.928  -0.919
 -0.761  -0.760  -0.723  -0.718  -0.709  -0.703  -0.697  -0.660
 -0.645  -0.613  -0.595  -0.586  -0.548  -0.544  -0.540  -0.535
 -0.516  -0.510  -0.485  -0.472  -0.456  -0.454  -0.443  -0.438
 -0.432  -0.426  -0.423  -0.409  -0.409  -0.404  -0.400  -0.399
 -0.393  -0.390  -0.372  -0.367  -0.359  -0.355  -0.349  -0.347
 -0.342  -0.340  -0.333  -0.331  -0.329  -0.324  -0.315  -0.314
 -0.309  -0.307  -0.305  -0.298  -0.296  -0.289  -0.277  -0.277
 -0.269  -0.243  -0.241  -0.240  -0.232  -0.230  -0.223  -0.177
 -0.176  -0.164  -0.160  -0.155  -0.152  -0.146  -0.142  -0.139
 -0.135

          Ground-State Mulliken Net Atomic Charges

     Atom                 Charge (a.u.)
  ----------------------------------------
      1 O                    -0.218801
      2 C                     0.206023
      3 C                    -0.083738
      4 C                    -0.079398
      5 C                     0.231617
      6 O                    -0.180089
      7 C                    -0.060663
      8 C                    -0.046934
      9 O                    -0.188081
     10 C                     0.220875
     11 C                    -0.078440
     12 C                    -0.077832
     13 C                     0.198875
     14 O                    -0.200657
     15 O                    -0.161269
     16 O                    -0.174939
     17 O                    -0.197059
     18 C                    -0.144260
     19 C                     0.026165
     20 C                    -0.143366
     21 C                    -0.144958
     22 C                     0.026210
     23 O                    -0.182479
     24 H                     0.081633
     25 H                     0.085446
     26 H                     0.079852
     27 H                     0.077158
     28 H                     0.071905
     29 H                     0.077692
     30 H                     0.073270
     31 H                     0.084510
     32 O                    -0.187444
     33 C                    -0.124455
     34 C                     0.026918
     35 C                    -0.141777
     36 C                    -0.143203
     37 C                     0.029236
     38 O                    -0.197942
     39 H                     0.084706
     40 H                     0.092296
     41 H                     0.089478
     42 H                     0.085892
     43 H                     0.077162
     44 H                     0.075858
     45 H                     0.076330
     46 H                     0.080263
     47 H                     0.080638
     48 H                     0.090533
     49 H                     0.097310
     50 H                     0.079514
     51 H                     0.080219
     52 H                     0.112214
     53 H                     0.096677
     54 H                     0.075642
     55 H                     0.099111
     56 H                     0.086557
  ----------------------------------------
  Sum of atomic charges =    -0.000000

                    Cartesian Multipole Moments
 -----------------------------------------------------------------
    Charge (ESU x 10^10)
                -0.0000
    Dipole Moment (Debye)
         X       0.9937      Y       3.0675      Z       1.1737
       Tot       3.4314
    Quadrupole Moments (Debye-Ang)
        XX    -155.8148     XY       5.1700     YY    -155.1361
        XZ       5.6149     YZ      -2.3682     ZZ    -158.4132

 Total job time:  91.72s(wall), 4373.24s(cpu)
        *  Thank you very much for using Q-Chem.  Have a nice day.  *
