 Q-Chem 5.0, Q-Chem, Inc., Pleasanton, CA (2017)
 Q-Chem 5.0.1 for Intel X86 EM64T Linux

User input:
--------------------------------------------------------------
$molecule
0  1
O -5.5034963519 0.6067387076 2.0542505659
C -4.7287014212 0.4031414939 1.0949634095
C -4.8633462347 -0.7327891809 0.0119142005
C -3.7243953809 -0.7542561103 -1.1018113965
C -3.2423446755 0.7408020014 -1.4233701212
O -1.8893674259 1.2201797776 -1.3197810031
C -0.8067103207 0.2383593829 -1.5228718046
C 0.3342823176 0.9861585938 -2.3116261438
O 1.6046868589 0.2409421704 -2.1567757605
C 2.4687702676 0.9205292102 -1.218643109
C 3.516141183 -0.1476406434 -0.7570564667
C 4.8650187036 0.337960822 -0.0952918511
C 4.8568395599 1.7009712811 0.6918992268
O 5.8695258566 2.3797385121 0.9764729719
O -3.4776990464 1.071880267 0.9307736117
O 3.5720752844 1.9097752699 1.2771478615
O 2.3354745232 2.1242415297 -0.9174197028
C 3.5850780488 3.1270671059 2.1181223464
C 2.9902638644 -1.2129348226 0.3152591532
C 3.7062989552 -2.5759828573 -0.0256970228
C 5.1919203222 -2.2156801293 0.3533412517
C 5.0103875179 -0.7931165461 1.0237544208
O 3.6391802436 -0.8270981721 1.5864048808
H 3.7672741719 -0.7007971165 -1.6808728874
H 5.7048148437 0.3438036887 -0.8118122642
H 1.890086073 -1.2607594745 0.4319293198
H 3.3138244055 -3.3820498604 0.6152617069
H 3.5871222175 -2.8686130737 -1.0810611723
H 5.6161598135 -2.9330621535 1.0733290599
H 5.8518650434 -2.1695724967 -0.5279367643
H 5.7478438166 -0.552292427 1.8140008487
O -4.0972364647 1.5814582223 -1.7837503142
C -3.2992148859 2.124818565 1.9535948341
C -4.5623421996 -2.094788402 0.7668553722
C -4.8092205536 -3.3204389556 -0.1982960289
C -3.5044169654 -3.2894598047 -1.0752317787
C -2.8255941297 -1.9621356856 -0.5494338541
O -3.0879147758 -2.0229922481 0.9048230447
H -5.8773366393 -0.6984448848 -0.425115488
H -4.1867697754 -1.0861882285 -2.0502508202
H -3.3270063421 1.7000197471 2.9778852617
H -5.0448250441 -2.1721594227 1.7607608378
H -4.8942669248 -4.2564784011 0.3757507322
H -5.7254693996 -3.1893228587 -0.7961712121
H -2.857057116 -4.1549981187 -0.8601885738
H -3.7119409572 -3.2624060072 -2.1568362276
H -1.7397591032 -1.9106290683 -0.7247091634
H -4.0804488163 2.9077635765 1.8711277526
H -2.3061590328 2.5693455261 1.7578661133
H 2.5866439593 3.1794184295 2.5895377215
H 3.7542281583 4.038678177 1.5093287344
H 4.3677440416 3.0744158939 2.9025363586
H 0.0885107386 1.0363332012 -3.3914076767
H 0.4604208908 2.0153534046 -1.9105359331
H -1.1341009123 -0.6385513889 -2.1140704806
H -0.4080727418 -0.1130211896 -0.5441000955
$end

$rem
JOBTYPE                   OPT
METHOD                    B3LYP
DFT_D                     d3_op
BASIS                     STO-3G
GEOM_OPT_MAX_CYCLES       100
GEOM_OPT_TOL_GRADIENT     300
GEOM_OPT_TOL_DISPLACEMENT 1200
GEOM_OPT_TOL_ENERGY       100
SYMMETRY                  False
THRESH                    12
SCF_CONVERGENCE           8
MAX_SUB_FILE_NUM          128
MEM_STATIC                400
MEM_TOTAL                 4000
$end
--------------------------------------------------------------

   16   -1510.2426867460      6.40E-09 Convergence criterion met
 Total energy in the final basis set = -1510.24268675
   14   -1510.2459641673      5.00E-09 Convergence criterion met
 Total energy in the final basis set = -1510.24596417
   13   -1510.2483994103      9.66E-09 Convergence criterion met
 Total energy in the final basis set = -1510.24839941
   14   -1510.2506600619      1.83E-09 Convergence criterion met
 Total energy in the final basis set = -1510.25066006
   13   -1510.2526600384      9.77E-09 Convergence criterion met
 Total energy in the final basis set = -1510.25266004
   13   -1510.2544283520      8.25E-09 Convergence criterion met
 Total energy in the final basis set = -1510.25442835
   13   -1510.2559777670      8.50E-09 Convergence criterion met
 Total energy in the final basis set = -1510.25597777
   13   -1510.2574565420      5.91E-09 Convergence criterion met
   12   -1510.2824467462      4.72E-09 Convergence criterion met
 Total energy in the final basis set = -1510.28244675
   12   -1510.2824392723      3.29E-09 Convergence criterion met
 Total energy in the final basis set = -1510.28243927
   10   -1510.2824530854      9.50E-09 Convergence criterion met
 Total energy in the final basis set = -1510.28245309
   10   -1510.2824552416      8.69E-09 Convergence criterion met
 Total energy in the final basis set = -1510.28245524
   10   -1510.2824562618      5.96E-09 Convergence criterion met
 Total energy in the final basis set = -1510.28245626
    9   -1510.2824517205      8.46E-09 Convergence criterion met
 Total energy in the final basis set = -1510.28245172

             Standard Nuclear Orientation (Angstroms)
    I     Atom           X                Y                Z
 ----------------------------------------------------------------
    1      O      -4.7643850350     2.1366762802     1.0486695143
    2      C      -3.6797463117     1.5178702296     1.0684004369
    3      C      -3.4690245452    -0.0151819738     0.7710539270
    4      C      -2.4341889500    -0.3330843693    -0.3920397605
    5      C      -2.1573953348     0.9859585416    -1.2331238052
    6      O      -1.2934460442     0.9845198764    -2.3736163017
    7      C      -0.2185648767    -0.0282878365    -2.3021227608
    8      C       0.7965597611     0.2246268770    -3.4780004242
    9      O       2.0284207023    -0.5271360030    -3.1271571801
   10      C       2.7193662210     0.1761215935    -2.0771503236
   11      C       3.4048012510    -0.8424347156    -1.0944027924
   12      C       3.2271057417    -0.3898330751     0.4206470500
   13      C       2.4822441330     0.9770160488     0.6295804941
   14      O       2.9707289924     2.0171804117     1.1201167090
   15      O      -2.4544914956     2.0604121619     1.6145137812
   16      O       1.0975017903     0.8212018112     0.2783218555
   17      O       2.7110516375     1.4199059180    -1.9449492471
   18      C       0.3445581560     2.0763955991     0.5237805554
   19      C       2.6505100484    -2.2366434901    -1.0825562872
   20      C       3.5426748714    -3.2939766758    -0.3255244315
   21      C       3.3454987309    -2.8469772582     1.1709935703
   22      C       2.3832360776    -1.6084722566     0.9958487993
   23      O       1.5247538980    -1.9984435257    -0.1464811883
   24      H       4.4734399983    -0.9511505444    -1.3554694179
   25      H       4.2072098719    -0.3017381242     0.9209443168
   26      H       2.2694078160    -2.5392203507    -2.0764763302
   27      H       3.1616268520    -4.3133041622    -0.4962844002
   28      H       4.5952252511    -3.2508029493    -0.6475634261
   29      H       2.8566766724    -3.6337349511     1.7673960764
   30      H       4.2917165155    -2.5680826011     1.6612136772
   31      H       1.7596603550    -1.3607908753     1.8768582684
   32      O      -2.8131122243     2.0409818589    -1.0430818318
   33      C      -2.6266537900     3.5051399747     1.8764786896
   34      C      -2.7737692357    -0.7258024626     2.0066786236
   35      C      -2.8936071222    -2.2906219800     1.8297147598
   36      C      -1.8134039700    -2.5476162587     0.7166347372
   37      C      -1.2885978977    -1.0809486285     0.4427116125
   38      O      -1.3375277876    -0.4512847583     1.7773022341
   39      H      -4.4622927711    -0.4436089794     0.5506989113
   40      H      -2.8794907102    -1.0500265705    -1.1082071367
   41      H      -3.5147299799     3.7016595459     2.5102369402
   42      H      -3.0911621790    -0.3370889772     2.9935771089
   43      H      -2.6411323774    -2.8067617897     2.7695473797
   44      H      -3.9066115264    -2.5941543955     1.5207049613
   45      H      -0.9859914528    -3.1720169493     1.0897571391
   46      H      -2.2304525078    -3.0219746757    -0.1859734817
   47      H      -0.2505042815    -1.0612705592     0.0559228028
   48      H      -2.7357923350     4.0716214852     0.9285887962
   49      H      -1.7112727258     3.8356765821     2.4006808262
   50      H      -0.6463848645     1.8157567420     0.9655045583
   51      H       0.1980813786     2.6085575781    -0.4376208924
   52      H       0.9240287561     2.7259195472     1.2074365668
   53      H       0.4358402886    -0.1828163440    -4.4426064014
   54      H       0.9972056869     1.3128547308    -3.5797869706
   55      H      -0.6187815444    -1.0628225372    -2.3609602720
   56      H       0.3480819867     0.1007361665    -1.3484450527
 ----------------------------------------------------------------

    9   -1510.2824508587      5.96E-09 Convergence criterion met
 Total energy in the final basis set = -1510.28245086
 Final energy is   -1510.28245085874
 **  OPTIMIZATION CONVERGED  **

                    Orbital Energies (a.u.)
 --------------------------------------------------------------

 Alpha MOs
 -- Occupied --
-18.938 -18.937 -18.931 -18.918 -18.903 -18.896 -18.887 -18.885
-18.876 -18.854 -10.113 -10.108 -10.101 -10.088 -10.079 -10.070
-10.069 -10.067 -10.057 -10.051 -10.048 -10.048 -10.044 -10.038
-10.036 -10.030 -10.030 -10.028 -10.018 -10.015  -1.024  -1.014
 -1.007  -0.993  -0.984  -0.967  -0.951  -0.942  -0.934  -0.920
 -0.772  -0.759  -0.732  -0.720  -0.718  -0.705  -0.700  -0.649
 -0.648  -0.618  -0.596  -0.589  -0.554  -0.547  -0.541  -0.535
 -0.521  -0.511  -0.489  -0.482  -0.474  -0.462  -0.452  -0.443
 -0.441  -0.438  -0.431  -0.412  -0.409  -0.406  -0.401  -0.398
 -0.393  -0.387  -0.374  -0.368  -0.361  -0.357  -0.352  -0.346
 -0.343  -0.341  -0.337  -0.332  -0.330  -0.324  -0.323  -0.317
 -0.314  -0.314  -0.306  -0.304  -0.294  -0.290  -0.284  -0.280
 -0.271  -0.259  -0.253  -0.245  -0.243  -0.239  -0.229  -0.184
 -0.182  -0.170  -0.167  -0.161  -0.159  -0.154  -0.153  -0.141
 -0.136

          Ground-State Mulliken Net Atomic Charges

     Atom                 Charge (a.u.)
  ----------------------------------------
      1 O                    -0.220649
      2 C                     0.218310
      3 C                    -0.081061
      4 C                    -0.086253
      5 C                     0.215053
      6 O                    -0.170844
      7 C                    -0.061517
      8 C                    -0.049080
      9 O                    -0.178583
     10 C                     0.213212
     11 C                    -0.079622
     12 C                    -0.080850
     13 C                     0.215346
     14 O                    -0.207487
     15 O                    -0.177486
     16 O                    -0.180667
     17 O                    -0.198716
     18 C                    -0.151620
     19 C                     0.022748
     20 C                    -0.144122
     21 C                    -0.143589
     22 C                     0.025509
     23 O                    -0.194637
     24 H                     0.088628
     25 H                     0.087503
     26 H                     0.093828
     27 H                     0.079231
     28 H                     0.075805
     29 H                     0.079324
     30 H                     0.076597
     31 H                     0.091858
     32 O                    -0.193261
     33 C                    -0.128820
     34 C                     0.025603
     35 C                    -0.145383
     36 C                    -0.143785
     37 C                     0.011239
     38 O                    -0.190213
     39 H                     0.083161
     40 H                     0.080822
     41 H                     0.088863
     42 H                     0.082653
     43 H                     0.076019
     44 H                     0.072931
     45 H                     0.077705
     46 H                     0.069223
     47 H                     0.109957
     48 H                     0.090386
     49 H                     0.086666
     50 H                     0.116060
     51 H                     0.081283
     52 H                     0.093462
     53 H                     0.091595
     54 H                     0.101072
     55 H                     0.078514
     56 H                     0.108078
  ----------------------------------------
  Sum of atomic charges =    -0.000000

                    Cartesian Multipole Moments
 -----------------------------------------------------------------
    Charge (ESU x 10^10)
                 0.0000
    Dipole Moment (Debye)
         X       2.0454      Y      -4.8044      Z      -0.2818
       Tot       5.2292
    Quadrupole Moments (Debye-Ang)
        XX    -165.6975     XY      -0.0817     YY    -160.9980
        XZ      -1.9547     YZ       2.8456     ZZ    -156.8650

 Total job time:  134.55s(wall), 6413.53s(cpu)
        *  Thank you very much for using Q-Chem.  Have a nice day.  *
