 Q-Chem 5.0, Q-Chem, Inc., Pleasanton, CA (2017)
 Q-Chem 5.0.1 for Intel X86 EM64T Linux

User input:
--------------------------------------------------------------
$molecule
0  1
O -3.94934 -3.66094 2.70899
C -3.26408 -4.56952 2.26188
C -3.36658 -6.02376 2.66595
C -2.40867 -7.01244 1.98128
C -1.33566 -6.41165 1.10049
O -0.10337 -6.81477 1.52988
C -0.12236 -8.09161 2.17685
C 1.12648 -8.88599 1.80878
O 1.33572 -9.93883 2.76305
C 2.32681 -9.72171 3.66292
C 2.2147 -10.60137 4.88533
C 3.50653 -10.73953 5.70409
C 4.59166 -9.72553 5.40244
O 5.77476 -9.84823 5.68492
O -2.27755 -4.12402 1.44602
O 4.1619 -8.42668 5.36998
O 3.35569 -9.20112 3.25723
C 4.98079 -7.31567 5.32826
C 1.24617 -10.06149 5.95326
C 0.75519 -11.21695 6.82412
C 2.01898 -11.54623 7.59646
C 2.94209 -10.4244 7.10446
O 2.06481 -9.35231 6.84937
H 1.85717 -11.59737 4.53578
H 3.96233 -11.75169 5.63354
H 0.3859 -9.50225 5.52403
H 0.00673 -10.79238 7.53127
H 0.29755 -12.06977 6.27812
H 1.80424 -11.43568 8.68252
H 2.4541 -12.54847 7.39203
H 3.74888 -10.22688 7.8447
O -1.50876 -5.90413 0.00088
C -2.07163 -2.81368 1.05644
C -3.30117 -6.27242 4.17881
C -4.37961 -7.276 4.53664
C -3.87874 -8.4551 3.73762
C -2.46383 -7.937 3.33922
O -2.14092 -7.0226 4.34535
H -4.40272 -6.24394 2.31036
H -2.97265 -7.61587 1.23461
H -1.87733 -2.17506 1.94443
H -3.36725 -5.35716 4.8066
H -4.26741 -7.47935 5.62648
H -5.43014 -6.98362 4.32171
H -3.86786 -9.33654 4.4189
H -4.46117 -8.69122 2.82075
H -1.92288 -8.89768 3.42964
H -2.95872 -2.43488 0.50525
H -1.18925 -2.76898 0.38573
H 4.35184 -6.40255 5.29736
H 5.61582 -7.34475 4.41725
H 5.62223 -7.27591 6.23434
H 1.1027 -9.2816 0.76915
H 1.95223 -8.13859 1.82
H -0.84495 -8.81912 1.73056
H 0.00106 -7.91614 3.26989
$end

$opt
CONSTRAINT
tors           1           2           3           4    -180.000
tors           3           4           5           6    +123.158
tors           4           5           6           7     +28.421
tors           5           6           7           8    +142.105
tors           6           7           8           9    +161.053
tors           7           8           9          10    -104.211
tors           8           9          10          11    +161.053
tors           9          10          11          12    +161.053
tors          11          12          13          14    -161.053
ENDCONSTRAINT
$end

$rem
JOBTYPE                   OPT
METHOD                    B3LYP
DFT_D                     d3_op
BASIS                     STO-3G
GEOM_OPT_MAX_CYCLES       100
GEOM_OPT_TOL_GRADIENT     300
GEOM_OPT_TOL_DISPLACEMENT 1200
GEOM_OPT_TOL_ENERGY       100
SYMMETRY                  False
THRESH                    12
SCF_CONVERGENCE           8
MAX_SUB_FILE_NUM          128
MEM_STATIC                400
MEM_TOTAL                 4000
$end
--------------------------------------------------------------

   15   -1510.0104856586      9.41E-09 Convergence criterion met
 Total energy in the final basis set = -1510.01048566
   14   -1510.1006620687      5.27E-09 Convergence criterion met
 Total energy in the final basis set = -1510.10066207
   14   -1510.1568568959      3.49E-09 Convergence criterion met
 Total energy in the final basis set = -1510.15685690
   14   -1510.1919182486      2.51E-09 Convergence criterion met
 Total energy in the final basis set = -1510.19191825
   14   -1510.2107375047      2.26E-09 Convergence criterion met
 Total energy in the final basis set = -1510.21073750
   13   -1510.2210729871      7.39E-09 Convergence criterion met
 Total energy in the final basis set = -1510.22107299
   13   -1510.2262906349      5.62E-09 Convergence criterion met
 Total energy in the final basis set = -1510.22629063
   13   -1510.2292195475      3.40E-09 Convergence criterion met
   12   -1510.2425179046      3.56E-09 Convergence criterion met
 Total energy in the final basis set = -1510.24251790
   11   -1510.2425781299      8.53E-09 Convergence criterion met
 Total energy in the final basis set = -1510.24257813
   11   -1510.2426071172      4.91E-09 Convergence criterion met
 Total energy in the final basis set = -1510.24260712
   10   -1510.2426249740      7.28E-09 Convergence criterion met
 Total energy in the final basis set = -1510.24262497
   10   -1510.2426330578      8.80E-09 Convergence criterion met
 Total energy in the final basis set = -1510.24263306
    9   -1510.2426360972      5.83E-09 Convergence criterion met
 Total energy in the final basis set = -1510.24263610

             Standard Nuclear Orientation (Angstroms)
    I     Atom           X                Y                Z
 ----------------------------------------------------------------
    1      O      -5.5034963519     0.6067387076     2.0542505659
    2      C      -4.7287014212     0.4031414939     1.0949634095
    3      C      -4.8633462347    -0.7327891809     0.0119142005
    4      C      -3.7243953809    -0.7542561103    -1.1018113965
    5      C      -3.2423446755     0.7408020014    -1.4233701212
    6      O      -1.8893674259     1.2201797776    -1.3197810031
    7      C      -0.8067103207     0.2383593829    -1.5228718046
    8      C       0.3342823176     0.9861585938    -2.3116261438
    9      O       1.6046868589     0.2409421704    -2.1567757605
   10      C       2.4687702676     0.9205292102    -1.2186431090
   11      C       3.5161411830    -0.1476406434    -0.7570564667
   12      C       4.8650187036     0.3379608220    -0.0952918511
   13      C       4.8568395599     1.7009712811     0.6918992268
   14      O       5.8695258566     2.3797385121     0.9764729719
   15      O      -3.4776990464     1.0718802670     0.9307736117
   16      O       3.5720752844     1.9097752699     1.2771478615
   17      O       2.3354745232     2.1242415297    -0.9174197028
   18      C       3.5850780488     3.1270671059     2.1181223464
   19      C       2.9902638644    -1.2129348226     0.3152591532
   20      C       3.7062989552    -2.5759828573    -0.0256970228
   21      C       5.1919203222    -2.2156801293     0.3533412517
   22      C       5.0103875179    -0.7931165461     1.0237544208
   23      O       3.6391802436    -0.8270981721     1.5864048808
   24      H       3.7672741719    -0.7007971165    -1.6808728874
   25      H       5.7048148437     0.3438036887    -0.8118122642
   26      H       1.8900860730    -1.2607594745     0.4319293198
   27      H       3.3138244055    -3.3820498604     0.6152617069
   28      H       3.5871222175    -2.8686130737    -1.0810611723
   29      H       5.6161598135    -2.9330621535     1.0733290599
   30      H       5.8518650434    -2.1695724967    -0.5279367643
   31      H       5.7478438166    -0.5522924270     1.8140008487
   32      O      -4.0972364647     1.5814582223    -1.7837503142
   33      C      -3.2992148859     2.1248185650     1.9535948341
   34      C      -4.5623421996    -2.0947884020     0.7668553722
   35      C      -4.8092205536    -3.3204389556    -0.1982960289
   36      C      -3.5044169654    -3.2894598047    -1.0752317787
   37      C      -2.8255941297    -1.9621356856    -0.5494338541
   38      O      -3.0879147758    -2.0229922481     0.9048230447
   39      H      -5.8773366393    -0.6984448848    -0.4251154880
   40      H      -4.1867697754    -1.0861882285    -2.0502508202
   41      H      -3.3270063421     1.7000197471     2.9778852617
   42      H      -5.0448250441    -2.1721594227     1.7607608378
   43      H      -4.8942669248    -4.2564784011     0.3757507322
   44      H      -5.7254693996    -3.1893228587    -0.7961712121
   45      H      -2.8570571160    -4.1549981187    -0.8601885738
   46      H      -3.7119409572    -3.2624060072    -2.1568362276
   47      H      -1.7397591032    -1.9106290683    -0.7247091634
   48      H      -4.0804488163     2.9077635765     1.8711277526
   49      H      -2.3061590328     2.5693455261     1.7578661133
   50      H       2.5866439593     3.1794184295     2.5895377215
   51      H       3.7542281583     4.0386781770     1.5093287344
   52      H       4.3677440416     3.0744158939     2.9025363586
   53      H       0.0885107386     1.0363332012    -3.3914076767
   54      H       0.4604208908     2.0153534046    -1.9105359331
   55      H      -1.1341009123    -0.6385513889    -2.1140704806
   56      H      -0.4080727418    -0.1130211896    -0.5441000955
 ----------------------------------------------------------------

    9   -1510.2426366524      3.35E-09 Convergence criterion met
 Total energy in the final basis set = -1510.24263665
 Final energy is   -1510.24263665242
 **  OPTIMIZATION CONVERGED  **

                    Orbital Energies (a.u.)
 --------------------------------------------------------------

 Alpha MOs
 -- Occupied --
-18.942 -18.930 -18.929 -18.925 -18.893 -18.892 -18.888 -18.875
-18.864 -18.864 -10.104 -10.102 -10.101 -10.093 -10.078 -10.069
-10.066 -10.065 -10.065 -10.064 -10.064 -10.057 -10.041 -10.041
-10.039 -10.038 -10.026 -10.025 -10.025 -10.024  -1.016  -1.015
 -1.004  -0.998  -0.976  -0.975  -0.942  -0.938  -0.931  -0.927
 -0.767  -0.765  -0.727  -0.726  -0.716  -0.707  -0.700  -0.662
 -0.656  -0.616  -0.601  -0.586  -0.550  -0.548  -0.543  -0.541
 -0.523  -0.512  -0.491  -0.481  -0.474  -0.456  -0.448  -0.441
 -0.438  -0.437  -0.434  -0.414  -0.413  -0.410  -0.406  -0.402
 -0.398  -0.387  -0.379  -0.369  -0.367  -0.361  -0.349  -0.346
 -0.341  -0.337  -0.336  -0.335  -0.332  -0.325  -0.318  -0.316
 -0.315  -0.311  -0.309  -0.302  -0.299  -0.292  -0.288  -0.278
 -0.272  -0.256  -0.250  -0.244  -0.243  -0.238  -0.231  -0.184
 -0.178  -0.174  -0.163  -0.157  -0.155  -0.153  -0.147  -0.144
 -0.139

          Ground-State Mulliken Net Atomic Charges

     Atom                 Charge (a.u.)
  ----------------------------------------
      1 O                    -0.213344
      2 C                     0.214391
      3 C                    -0.075457
      4 C                    -0.086012
      5 C                     0.219233
      6 O                    -0.173606
      7 C                    -0.044864
      8 C                    -0.054739
      9 O                    -0.181970
     10 C                     0.211397
     11 C                    -0.079844
     12 C                    -0.078090
     13 C                     0.209926
     14 O                    -0.219323
     15 O                    -0.164613
     16 O                    -0.158893
     17 O                    -0.199404
     18 C                    -0.125072
     19 C                     0.028207
     20 C                    -0.141288
     21 C                    -0.145393
     22 C                     0.024922
     23 O                    -0.185749
     24 H                     0.086141
     25 H                     0.085629
     26 H                     0.082085
     27 H                     0.078395
     28 H                     0.074662
     29 H                     0.079261
     30 H                     0.074726
     31 H                     0.084571
     32 O                    -0.211081
     33 C                    -0.124751
     34 C                     0.023557
     35 C                    -0.145220
     36 C                    -0.142444
     37 C                     0.018922
     38 O                    -0.192379
     39 H                     0.088923
     40 H                     0.081033
     41 H                     0.091766
     42 H                     0.087375
     43 H                     0.079314
     44 H                     0.075641
     45 H                     0.077510
     46 H                     0.072984
     47 H                     0.081726
     48 H                     0.092124
     49 H                     0.096342
     50 H                     0.090449
     51 H                     0.089464
     52 H                     0.088328
     53 H                     0.086110
     54 H                     0.105661
     55 H                     0.081320
     56 H                     0.081442
  ----------------------------------------
  Sum of atomic charges =    -0.000000

                    Cartesian Multipole Moments
 -----------------------------------------------------------------
    Charge (ESU x 10^10)
                 0.0000
    Dipole Moment (Debye)
         X       0.5635      Y      -3.7845      Z      -1.4431
       Tot       4.0893
    Quadrupole Moments (Debye-Ang)
        XX    -170.5529     XY       0.8076     YY    -158.2329
        XZ       0.3159     YZ       9.1102     ZZ    -159.3725

 Total job time:  72.24s(wall), 3442.18s(cpu)
        *  Thank you very much for using Q-Chem.  Have a nice day.  *
