 Q-Chem 5.0, Q-Chem, Inc., Pleasanton, CA (2017)
 Q-Chem 5.0.1 for Intel X86 EM64T Linux

User input:
--------------------------------------------------------------
$molecule
0  1
O -2.705168767 -2.4867427234 -1.6575406788
C -2.9342555244 -1.5720424337 -0.8301498888
C -3.0572816963 -0.0736657116 -1.2813156576
C -3.6138927111 1.161220698 -0.4585981052
C -3.4078893821 1.3269086624 1.1127443527
O -3.3483148389 0.1842736077 1.9806699754
C -1.9910798914 -0.0982702342 2.5139830727
C -0.7259020238 0.5797023623 1.8484373787
O 0.0513052037 -0.5616062749 1.2870662909
C 1.0150364938 -0.1230949895 0.2953176415
C 2.332506628 0.528790127 0.8853619738
C 3.6255985951 -0.380495204 0.7779250723
C 3.4195222557 -1.9080978876 0.4831764974
O 4.3156846278 -2.7388011628 0.2204072034
O -3.1646576208 -1.8103636453 0.5550745997
O 2.0514486045 -2.2560397749 0.7030738144
O 0.8615470812 -0.3623319834 -0.9232265303
C 1.8121427056 -3.6880372941 0.4208200879
C 2.7566007181 1.7264917705 -0.0692468061
C 3.9275340576 2.5516524383 0.5991408313
C 5.1619243158 1.614068849 0.3246436107
C 4.4507788741 0.3800804525 -0.3532598898
O 3.4108577219 1.0150787323 -1.192662365
H 2.1534186515 0.8489423987 1.9258191542
H 4.1836551944 -0.3326112259 1.7324112474
H 1.9052177919 2.3296070014 -0.4407171679
H 4.0425267357 3.5302592042 0.1069968931
H 3.7508961411 2.7164238332 1.6742836214
H 5.8708016299 2.0786118373 -0.3793115239
H 5.704596973 1.3370221515 1.2424309307
H 5.1035363502 -0.2773898691 -0.9601155608
O -3.3691061963 2.4849035359 1.5970100661
C -3.0374521751 -3.2595134344 0.8486456693
C -1.6563488173 0.5255777847 -1.7980670129
C -1.9562448402 1.2691340765 -3.1488558804
C -2.8532650582 2.4539497805 -2.6231675718
C -2.6913683202 2.3045827401 -1.0600313665
O -1.3647656889 1.6616530074 -0.8856564274
H -3.7138938297 -0.1497496945 -2.1682065333
H -4.6882667851 1.3120969587 -0.678150103
H -2.988277514 -3.8252844367 -0.1036645571
H -0.787032337 -0.1682091154 -1.7660266543
H -1.0214315926 1.6427430119 -3.5974410527
H -2.4724943752 0.6288782181 -3.8815980901
H -2.4795649378 3.4337782301 -2.9597781058
H -3.9064108581 2.3555315554 -2.9329927815
H -2.7531389238 3.2435928432 -0.4762621155
H -3.9165908711 -3.5661091389 1.44637794
H -2.1133621146 -3.4358296336 1.4347534097
H 0.7442411454 -3.8651846837 0.6455770832
H 2.4444010161 -4.3378574733 1.0599268289
H 2.0123525804 -3.9304443265 -0.6428172594
H -1.021763518 1.2547586946 1.0022167031
H -0.142616949 1.1495681022 2.605209747
H -1.8551480045 -1.1964349299 2.4213870918
H -2.0020809044 0.1554977197 3.598826651
$end

$rem
JOBTYPE                   OPT
METHOD                    B3LYP
DFT_D                     d3_op
BASIS                     STO-3G
GEOM_OPT_MAX_CYCLES       100
GEOM_OPT_TOL_GRADIENT     300
GEOM_OPT_TOL_DISPLACEMENT 1200
GEOM_OPT_TOL_ENERGY       100
SYMMETRY                  False
THRESH                    12
SCF_CONVERGENCE           8
MAX_SUB_FILE_NUM          128
MEM_STATIC                400
MEM_TOTAL                 4000
$end
--------------------------------------------------------------

   16   -1510.2198243008      3.45E-09 Convergence criterion met
 Total energy in the final basis set = -1510.21982430
   15   -1510.2232550879      3.18E-09 Convergence criterion met
 Total energy in the final basis set = -1510.22325509
   15   -1510.2170993927      5.02E-09 Convergence criterion met
 Total energy in the final basis set = -1510.21709939
   15   -1510.2283014358      3.09E-09 Convergence criterion met
 Total energy in the final basis set = -1510.22830144
   14   -1510.2300957986      2.01E-09 Convergence criterion met
 Total energy in the final basis set = -1510.23009580
   14   -1510.2343990274      7.57E-09 Convergence criterion met
 Total energy in the final basis set = -1510.23439903
   14   -1510.2373556282      5.48E-09 Convergence criterion met
 Total energy in the final basis set = -1510.23735563
   15   -1510.2357577014      2.17E-09 Convergence criterion met
   11   -1510.2873270575      8.32E-09 Convergence criterion met
 Total energy in the final basis set = -1510.28732706
   12   -1510.2873731567      5.16E-09 Convergence criterion met
 Total energy in the final basis set = -1510.28737316
   12   -1510.2873947330      4.65E-09 Convergence criterion met
 Total energy in the final basis set = -1510.28739473
   11   -1510.2874075003      6.88E-09 Convergence criterion met
 Total energy in the final basis set = -1510.28740750
   10   -1510.2874114139      5.81E-09 Convergence criterion met
 Total energy in the final basis set = -1510.28741141
    9   -1510.2874111259      4.01E-09 Convergence criterion met
 Total energy in the final basis set = -1510.28741113

             Standard Nuclear Orientation (Angstroms)
    I     Atom           X                Y                Z
 ----------------------------------------------------------------
    1      O      -3.6865443367     1.3290109583     1.3261627763
    2      C      -2.8180011773     0.4317047795     1.2648099436
    3      C      -3.0835118591    -1.1129216983     1.3188626623
    4      C      -2.9238760358    -1.9039970306    -0.0469404683
    5      C      -2.2959805724    -1.1281966076    -1.2606335504
    6      O      -2.6672315375     0.2525359794    -1.2311886146
    7      C      -2.1652817782     0.9654155940    -2.4336625939
    8      C      -0.5986701767     1.0721925949    -2.5109882100
    9      O      -0.1459203361     2.1764223217    -1.6378702794
   10      C       1.2044892803     2.0649103789    -1.1365843895
   11      C       1.8717309619     0.6455572067    -1.0501865853
   12      C       3.3659260699     0.7008807209    -0.5266345130
   13      C       3.9278905366     2.1498332216    -0.2702997550
   14      O       4.1745931181     2.6853114517     0.8305416970
   15      O      -1.4071244791     0.6728287834     1.2500379493
   16      O       4.2753591074     2.7124097155    -1.5469972993
   17      O       1.7044493826     3.1106934478    -0.6643586313
   18      C       4.7581115878     4.0982766500    -1.3652882264
   19      C       1.1801576742    -0.2085239092     0.1112094384
   20      C       1.6237607238    -1.7117746738    -0.0450191391
   21      C       3.1063071936    -1.6530936135     0.4785627948
   22      C       3.2455016802    -0.1183114439     0.8253662586
   23      O       1.8993638491     0.2463256790     1.3211012436
   24      H       1.8305100643     0.1316977312    -2.0243992925
   25      H       4.0362306505     0.2030886635    -1.2502082221
   26      H       0.0890659321    -0.0464286702     0.2641380173
   27      H       0.9718471085    -2.3334106563     0.5925691856
   28      H       1.5489790422    -2.0625513338    -1.0867942591
   29      H       3.2397905650    -2.2648066376     1.3850901824
   30      H       3.8397149056    -1.9767410174    -0.2775776145
   31      H       4.0173469961     0.1406279957     1.5758978409
   32      O      -1.5931697074    -1.6426051231    -2.1595954854
   33      C      -1.1295625349     2.1301355135     1.2211086278
   34      C      -2.0530517546    -1.9079297682     2.2388324804
   35      C      -2.7385521985    -3.2598412124     2.6806531165
   36      C      -2.6979632392    -4.0724370479     1.3325188715
   37      C      -1.9359059381    -3.0632376616     0.3878015362
   38      O      -1.0034538817    -2.3594602548     1.2976507554
   39      H      -4.1151297943    -1.2337252992     1.6940055092
   40      H      -3.9006037931    -2.3035318325    -0.3797279099
   41      H      -1.9295159778     2.6903905591     1.7416165303
   42      H      -1.6081203006    -1.3078286629     3.0555469647
   43      H      -2.1419136857    -3.7522175980     3.4651071471
   44      H      -3.7623097954    -3.1075213226     3.0578779064
   45      H      -2.1273112161    -5.0085523456     1.4394317800
   46      H      -3.7034791755    -4.3125593232     0.9517563468
   47      H      -1.3858229611    -3.5130168261    -0.4619137914
   48      H      -1.0533766057     2.4670575484     0.1648012941
   49      H      -0.1549051259     2.2750931700     1.7232495228
   50      H       5.0636903443     4.4529635300    -2.3669470008
   51      H       5.6240347220     4.1444431917    -0.6735922927
   52      H       3.9549716770     4.7530210232    -0.9688728675
   53      H      -0.1806241086     0.0845470582    -2.2416015316
   54      H      -0.3144111086     1.2963821101    -3.5637608235
   55      H      -2.6140554008     1.9776692280    -2.3783938949
   56      H      -2.5231713720     0.4541806512    -3.3539792393
 ----------------------------------------------------------------

    9   -1510.2874107669      5.05E-09 Convergence criterion met
 Total energy in the final basis set = -1510.28741077
 Final energy is   -1510.28741076689
 **  OPTIMIZATION CONVERGED  **

                    Orbital Energies (a.u.)
 --------------------------------------------------------------

 Alpha MOs
 -- Occupied --
-18.955 -18.940 -18.931 -18.912 -18.897 -18.889 -18.889 -18.875
-18.869 -18.854 -10.116 -10.108 -10.100 -10.090 -10.084 -10.084
-10.066 -10.065 -10.049 -10.049 -10.048 -10.044 -10.041 -10.041
-10.035 -10.027 -10.026 -10.025 -10.009 -10.002  -1.031  -1.014
 -1.006  -0.991  -0.979  -0.959  -0.954  -0.944  -0.932  -0.918
 -0.770  -0.754  -0.735  -0.720  -0.712  -0.710  -0.695  -0.651
 -0.648  -0.622  -0.596  -0.594  -0.551  -0.544  -0.535  -0.529
 -0.518  -0.513  -0.490  -0.478  -0.471  -0.454  -0.451  -0.442
 -0.439  -0.437  -0.421  -0.416  -0.412  -0.408  -0.406  -0.397
 -0.390  -0.389  -0.382  -0.370  -0.361  -0.356  -0.349  -0.343
 -0.341  -0.337  -0.336  -0.334  -0.325  -0.324  -0.319  -0.317
 -0.313  -0.311  -0.303  -0.301  -0.295  -0.292  -0.285  -0.270
 -0.265  -0.258  -0.252  -0.244  -0.239  -0.236  -0.223  -0.196
 -0.182  -0.170  -0.168  -0.158  -0.155  -0.155  -0.147  -0.135
 -0.134

          Ground-State Mulliken Net Atomic Charges

     Atom                 Charge (a.u.)
  ----------------------------------------
      1 O                    -0.214765
      2 C                     0.216871
      3 C                    -0.081537
      4 C                    -0.077896
      5 C                     0.211679
      6 O                    -0.165623
      7 C                    -0.045790
      8 C                    -0.053050
      9 O                    -0.174565
     10 C                     0.216439
     11 C                    -0.086985
     12 C                    -0.080515
     13 C                     0.216015
     14 O                    -0.217725
     15 O                    -0.174165
     16 O                    -0.179069
     17 O                    -0.190446
     18 C                    -0.128801
     19 C                     0.010348
     20 C                    -0.151784
     21 C                    -0.144738
     22 C                     0.024682
     23 O                    -0.191595
     24 H                     0.080049
     25 H                     0.081655
     26 H                     0.100953
     27 H                     0.094132
     28 H                     0.065893
     29 H                     0.076047
     30 H                     0.069577
     31 H                     0.086647
     32 O                    -0.217846
     33 C                    -0.142953
     34 C                     0.027228
     35 C                    -0.143276
     36 C                    -0.144544
     37 C                     0.023973
     38 O                    -0.189602
     39 H                     0.085759
     40 H                     0.087459
     41 H                     0.093712
     42 H                     0.090681
     43 H                     0.079588
     44 H                     0.075180
     45 H                     0.079415
     46 H                     0.074310
     47 H                     0.090049
     48 H                     0.098040
     49 H                     0.096540
     50 H                     0.084525
     51 H                     0.086062
     52 H                     0.091587
     53 H                     0.100964
     54 H                     0.086380
     55 H                     0.102496
     56 H                     0.092336
  ----------------------------------------
  Sum of atomic charges =    -0.000000

                    Cartesian Multipole Moments
 -----------------------------------------------------------------
    Charge (ESU x 10^10)
                 0.0000
    Dipole Moment (Debye)
         X      -1.8426      Y      -3.3919      Z      -2.4275
       Tot       4.5599
    Quadrupole Moments (Debye-Ang)
        XX    -157.8815     XY       4.4226     YY    -160.9480
        XZ      -4.1416     YZ      -8.4619     ZZ    -154.8591

 Total job time:  218.45s(wall), 10425.72s(cpu)
        *  Thank you very much for using Q-Chem.  Have a nice day.  *
