 Q-Chem 5.0, Q-Chem, Inc., Pleasanton, CA (2017)
 Q-Chem 5.0.1 for Intel X86 EM64T Linux

User input:
--------------------------------------------------------------
$molecule
0  1
O -3.94934 -3.66094 2.70899
C -3.26408 -4.56952 2.26188
C -3.36658 -6.02376 2.66595
C -2.64602 -7.05202 1.77863
C -1.75662 -6.49646 0.68849
O -2.26644 -5.31489 0.23087
C -1.50127 -4.17585 0.63872
C -0.5542 -4.55716 1.77176
O -0.90958 -3.84493 2.96729
C -0.40882 -4.35425 4.1201
C 1.04667 -4.01141 4.33147
C 1.31247 -2.95705 5.41588
C 0.1587 -2.67043 6.35576
O 0.21958 -1.98004 7.36285
O -4.0124 -4.68743 1.07315
O -1.09893 -2.63705 5.83559
O -1.08407 -4.84634 5.0013
C -2.25811 -2.35269 6.53568
C 1.88247 -5.19321 4.85033
C 3.35508 -4.97131 4.50876
C 3.69495 -3.83343 5.45106
C 2.37902 -3.71711 6.22978
O 1.87579 -5.03256 6.24701
H 1.47991 -3.66032 3.3698
H 1.66995 -1.98378 5.01345
H 1.53567 -6.17712 4.46465
H 3.90528 -5.88215 4.83728
H 3.57378 -4.77962 3.43615
H 4.51985 -4.16747 6.11891
H 3.96428 -2.87283 4.9609
H 2.56145 -3.25526 7.22535
O -1.0481 -7.2022 -0.01326
C -4.63589 -3.72587 0.26715
C -2.91996 -6.52485 4.04122
C -3.62027 -7.84098 4.41681
C -2.8776 -8.82502 3.53621
C -1.90145 -7.88488 2.82873
O -1.59242 -6.95263 3.82499
H -4.46523 -6.24058 2.66203
H -3.36928 -7.6962 1.2286
H -4.45293 -2.68792 0.6189
H -3.14363 -5.78703 4.83799
H -3.38338 -8.07618 5.47895
H -4.72384 -7.8256 4.28584
H -2.30024 -9.51851 4.18796
H -3.5135 -9.41246 2.83898
H -1.04742 -8.45532 2.40333
H -5.72831 -3.91759 0.25076
H -4.24788 -3.80856 -0.7689
H -3.12672 -2.44024 5.8515
H -2.22537 -1.32128 6.94545
H -2.38623 -3.08283 7.36435
H -0.05259 -5.53978 1.93409
H 0.36632 -4.01527 1.46088
H -2.01197 -3.18851 0.70776
H -0.86546 -3.98783 -0.25705
$end

$opt
CONSTRAINT
tors           1           2           3           4    +166.791
tors           3           4           5           6     -32.298
tors           4           5           6           7    +108.024
tors           5           6           7           8     -15.276
tors           6           7           8           9    -115.650
tors           7           8           9          10    +162.202
tors           8           9          10          11     +77.716
tors           9          10          11          12    +106.851
tors          11          12          13          14    +171.538
ENDCONSTRAINT
$end

$rem
JOBTYPE                   OPT
METHOD                    B3LYP
DFT_D                     d3_op
BASIS                     STO-3G
GEOM_OPT_MAX_CYCLES       100
GEOM_OPT_TOL_GRADIENT     300
GEOM_OPT_TOL_DISPLACEMENT 1200
GEOM_OPT_TOL_ENERGY       100
SYMMETRY                  False
THRESH                    12
SCF_CONVERGENCE           8
MAX_SUB_FILE_NUM          128
MEM_STATIC                400
MEM_TOTAL                 4000
$end
--------------------------------------------------------------

   17   -1509.8680031373      9.01E-09 Convergence criterion met
 Total energy in the final basis set = -1509.86800314
   16   -1509.9720502029      3.31E-09 Convergence criterion met
 Total energy in the final basis set = -1509.97205020
   15   -1510.0449695437      3.40E-09 Convergence criterion met
 Total energy in the final basis set = -1510.04496954
   15   -1510.0912262823      4.49E-09 Convergence criterion met
 Total energy in the final basis set = -1510.09122628
   15   -1510.1222815894      4.02E-09 Convergence criterion met
 Total energy in the final basis set = -1510.12228159
   15   -1510.1449179120      3.10E-09 Convergence criterion met
 Total energy in the final basis set = -1510.14491791
   14   -1510.1615080625      6.27E-09 Convergence criterion met
 Total energy in the final basis set = -1510.16150806
   14   -1510.1745089213      4.54E-09 Convergence criterion met
   12   -1510.2200392036      8.90E-09 Convergence criterion met
 Total energy in the final basis set = -1510.22003920
   11   -1510.2200530053      4.81E-09 Convergence criterion met
 Total energy in the final basis set = -1510.22005301
   11   -1510.2200672648      6.17E-09 Convergence criterion met
 Total energy in the final basis set = -1510.22006726
   11   -1510.2200724192      3.03E-09 Convergence criterion met
 Total energy in the final basis set = -1510.22007242
   11   -1510.2200751355      1.75E-09 Convergence criterion met
 Total energy in the final basis set = -1510.22007514
   11   -1510.2200769441      2.20E-09 Convergence criterion met
 Total energy in the final basis set = -1510.22007694

             Standard Nuclear Orientation (Angstroms)
    I     Atom           X                Y                Z
 ----------------------------------------------------------------
    1      O      -2.7051687670    -2.4867427234    -1.6575406788
    2      C      -2.9342555244    -1.5720424337    -0.8301498888
    3      C      -3.0572816963    -0.0736657116    -1.2813156576
    4      C      -3.6138927111     1.1612206980    -0.4585981052
    5      C      -3.4078893821     1.3269086624     1.1127443527
    6      O      -3.3483148389     0.1842736077     1.9806699754
    7      C      -1.9910798914    -0.0982702342     2.5139830727
    8      C      -0.7259020238     0.5797023623     1.8484373787
    9      O       0.0513052037    -0.5616062749     1.2870662909
   10      C       1.0150364938    -0.1230949895     0.2953176415
   11      C       2.3325066280     0.5287901270     0.8853619738
   12      C       3.6255985951    -0.3804952040     0.7779250723
   13      C       3.4195222557    -1.9080978876     0.4831764974
   14      O       4.3156846278    -2.7388011628     0.2204072034
   15      O      -3.1646576208    -1.8103636453     0.5550745997
   16      O       2.0514486045    -2.2560397749     0.7030738144
   17      O       0.8615470812    -0.3623319834    -0.9232265303
   18      C       1.8121427056    -3.6880372941     0.4208200879
   19      C       2.7566007181     1.7264917705    -0.0692468061
   20      C       3.9275340576     2.5516524383     0.5991408313
   21      C       5.1619243158     1.6140688490     0.3246436107
   22      C       4.4507788741     0.3800804525    -0.3532598898
   23      O       3.4108577219     1.0150787323    -1.1926623650
   24      H       2.1534186515     0.8489423987     1.9258191542
   25      H       4.1836551944    -0.3326112259     1.7324112474
   26      H       1.9052177919     2.3296070014    -0.4407171679
   27      H       4.0425267357     3.5302592042     0.1069968931
   28      H       3.7508961411     2.7164238332     1.6742836214
   29      H       5.8708016299     2.0786118373    -0.3793115239
   30      H       5.7045969730     1.3370221515     1.2424309307
   31      H       5.1035363502    -0.2773898691    -0.9601155608
   32      O      -3.3691061963     2.4849035359     1.5970100661
   33      C      -3.0374521751    -3.2595134344     0.8486456693
   34      C      -1.6563488173     0.5255777847    -1.7980670129
   35      C      -1.9562448402     1.2691340765    -3.1488558804
   36      C      -2.8532650582     2.4539497805    -2.6231675718
   37      C      -2.6913683202     2.3045827401    -1.0600313665
   38      O      -1.3647656889     1.6616530074    -0.8856564274
   39      H      -3.7138938297    -0.1497496945    -2.1682065333
   40      H      -4.6882667851     1.3120969587    -0.6781501030
   41      H      -2.9882775140    -3.8252844367    -0.1036645571
   42      H      -0.7870323370    -0.1682091154    -1.7660266543
   43      H      -1.0214315926     1.6427430119    -3.5974410527
   44      H      -2.4724943752     0.6288782181    -3.8815980901
   45      H      -2.4795649378     3.4337782301    -2.9597781058
   46      H      -3.9064108581     2.3555315554    -2.9329927815
   47      H      -2.7531389238     3.2435928432    -0.4762621155
   48      H      -3.9165908711    -3.5661091389     1.4463779400
   49      H      -2.1133621146    -3.4358296336     1.4347534097
   50      H       0.7442411454    -3.8651846837     0.6455770832
   51      H       2.4444010161    -4.3378574733     1.0599268289
   52      H       2.0123525804    -3.9304443265    -0.6428172594
   53      H      -1.0217635180     1.2547586946     1.0022167031
   54      H      -0.1426169490     1.1495681022     2.6052097470
   55      H      -1.8551480045    -1.1964349299     2.4213870918
   56      H      -2.0020809044     0.1554977197     3.5988266510
 ----------------------------------------------------------------

   10   -1510.2200776480      8.81E-09 Convergence criterion met
 Total energy in the final basis set = -1510.22007765
 Final energy is   -1510.22007764795
 **  OPTIMIZATION CONVERGED  **

                    Orbital Energies (a.u.)
 --------------------------------------------------------------

 Alpha MOs
 -- Occupied --
-18.944 -18.935 -18.900 -18.895 -18.892 -18.890 -18.889 -18.887
-18.878 -18.864 -10.106 -10.105 -10.105 -10.097 -10.069 -10.064
-10.061 -10.060 -10.058 -10.058 -10.055 -10.044 -10.041 -10.038
-10.035 -10.033 -10.022 -10.021 -10.020 -10.015  -1.018  -1.009
 -1.002  -0.997  -0.972  -0.971  -0.941  -0.934  -0.930  -0.923
 -0.763  -0.759  -0.724  -0.718  -0.706  -0.700  -0.694  -0.665
 -0.658  -0.607  -0.600  -0.585  -0.547  -0.540  -0.536  -0.535
 -0.514  -0.506  -0.482  -0.468  -0.466  -0.462  -0.450  -0.448
 -0.432  -0.427  -0.418  -0.415  -0.412  -0.411  -0.408  -0.399
 -0.393  -0.385  -0.373  -0.364  -0.361  -0.358  -0.354  -0.349
 -0.342  -0.338  -0.336  -0.331  -0.326  -0.319  -0.315  -0.314
 -0.311  -0.308  -0.305  -0.297  -0.294  -0.292  -0.287  -0.275
 -0.265  -0.255  -0.243  -0.237  -0.236  -0.228  -0.227  -0.181
 -0.170  -0.162  -0.158  -0.155  -0.153  -0.150  -0.144  -0.142
 -0.139

          Ground-State Mulliken Net Atomic Charges

     Atom                 Charge (a.u.)
  ----------------------------------------
      1 O                    -0.221788
      2 C                     0.209660
      3 C                    -0.084920
      4 C                    -0.077761
      5 C                     0.219512
      6 O                    -0.187464
      7 C                    -0.043120
      8 C                    -0.063673
      9 O                    -0.195571
     10 C                     0.235751
     11 C                    -0.082283
     12 C                    -0.079253
     13 C                     0.211599
     14 O                    -0.212474
     15 O                    -0.157485
     16 O                    -0.165350
     17 O                    -0.189622
     18 C                    -0.124925
     19 C                     0.024545
     20 C                    -0.145294
     21 C                    -0.142618
     22 C                     0.025408
     23 O                    -0.185248
     24 H                     0.078111
     25 H                     0.085195
     26 H                     0.086066
     27 H                     0.078551
     28 H                     0.072645
     29 H                     0.078757
     30 H                     0.073572
     31 H                     0.088408
     32 O                    -0.194322
     33 C                    -0.136036
     34 C                     0.011234
     35 C                    -0.141360
     36 C                    -0.146433
     37 C                     0.021123
     38 O                    -0.201615
     39 H                     0.084787
     40 H                     0.083767
     41 H                     0.102770
     42 H                     0.113805
     43 H                     0.079522
     44 H                     0.075831
     45 H                     0.078379
     46 H                     0.073678
     47 H                     0.091034
     48 H                     0.087533
     49 H                     0.081972
     50 H                     0.094777
     51 H                     0.091065
     52 H                     0.093416
     53 H                     0.100443
     54 H                     0.071904
     55 H                     0.096978
     56 H                     0.076816
  ----------------------------------------
  Sum of atomic charges =     0.000000

                    Cartesian Multipole Moments
 -----------------------------------------------------------------
    Charge (ESU x 10^10)
                 0.0000
    Dipole Moment (Debye)
         X       0.2934      Y       0.6258      Z       1.4104
       Tot       1.5707
    Quadrupole Moments (Debye-Ang)
        XX    -158.8367     XY       6.9195     YY    -156.4475
        XZ      12.0714     YZ      -6.9985     ZZ    -160.0975

 Total job time:  113.99s(wall), 5440.05s(cpu)
        *  Thank you very much for using Q-Chem.  Have a nice day.  *
