 Q-Chem 5.0, Q-Chem, Inc., Pleasanton, CA (2017)
 Q-Chem 5.0.1 for Intel X86 EM64T Linux

User input:
--------------------------------------------------------------
$molecule
0  1
O -3.94934 -3.66094 2.70899
C -3.26408 -4.56952 2.26188
C -3.36658 -6.02376 2.66595
C -3.03467 -6.37235 4.12614
C -2.80994 -5.2066 5.06348
O -3.62388 -4.16688 4.71433
C -3.46827 -3.02166 5.55903
C -2.07063 -2.43358 5.39502
O -1.88211 -1.35359 6.3229
C -0.59424 -0.98603 6.53603
C -0.27538 0.38491 5.98875
C 1.1233 0.91283 6.33987
C 2.10636 -0.11613 6.86096
O 3.3167 -0.0899 6.6908
O -2.36119 -4.28347 1.28728
O 1.70832 -0.70785 8.02615
O 0.24928 -1.87312 6.47853
C 2.45386 -1.56857 8.81292
C -0.22007 0.47033 4.44656
C -0.477 1.90987 4.00348
C 0.80553 2.57627 4.45186
C 1.59145 1.35386 4.93913
O 1.13717 0.30138 4.12517
H -1.07778 1.06625 6.35289
H 1.10146 1.74847 7.07368
H -0.92909 -0.19929 3.92584
H -0.50245 1.90491 2.88979
H -1.41201 2.37279 4.38601
H 1.29208 3.03471 3.56239
H 0.69208 3.33264 5.25861
H 2.68252 1.56466 4.89685
O -2.32233 -5.35607 6.17841
C -2.13079 -3.0176 0.79029
C -4.81241 -6.54018 2.56788
C -4.81962 -8.06449 2.4497
C -4.43837 -8.45853 3.86179
C -4.34671 -7.07942 4.52139
O -5.33409 -6.32796 3.85629
H -2.71339 -6.60098 1.9723
H -2.15651 -7.04913 4.22256
H -1.7812 -2.3454 1.60323
H -5.37915 -6.08429 1.72633
H -5.86979 -8.38515 2.26487
H -4.16372 -8.46899 1.64899
H -5.28294 -9.03097 4.3064
H -3.49598 -9.04009 3.95677
H -4.46363 -7.17092 5.62402
H -3.05956 -2.60871 0.338
H -1.34594 -3.07092 0.00827
H 1.90922 -2.53011 8.91224
H 2.57924 -1.12423 9.82175
H 3.45735 -1.7817 8.38688
H -1.34398 -3.24184 5.6036
H -1.91725 -2.10426 4.34852
H -3.66435 -3.29153 6.62164
H -4.21343 -2.25156 5.26796
$end

$opt
CONSTRAINT
tors           1           2           3           4     -63.624
tors           3           4           5           6     +34.295
tors           4           5           6           7    -180.000
tors           5           6           7           8     +65.298
tors           6           7           8           9    -175.301
tors           7           8           9          10    +162.913
tors           8           9          10          11    +111.792
tors           9          10          11          12    +173.514
tors          11          12          13          14    +148.392
ENDCONSTRAINT
$end

$rem
JOBTYPE                   OPT
METHOD                    B3LYP
DFT_D                     d3_op
BASIS                     STO-3G
GEOM_OPT_MAX_CYCLES       100
GEOM_OPT_TOL_GRADIENT     300
GEOM_OPT_TOL_DISPLACEMENT 1200
GEOM_OPT_TOL_ENERGY       100
SYMMETRY                  False
THRESH                    12
SCF_CONVERGENCE           8
MAX_SUB_FILE_NUM          128
MEM_STATIC                400
MEM_TOTAL                 4000
$end
--------------------------------------------------------------

   15   -1510.0836228728      8.42E-09 Convergence criterion met
 Total energy in the final basis set = -1510.08362287
   14   -1510.1564096589      4.13E-09 Convergence criterion met
 Total energy in the final basis set = -1510.15640966
   14   -1510.2019511728      9.71E-09 Convergence criterion met
 Total energy in the final basis set = -1510.20195117
   14   -1510.2252241240      6.11E-09 Convergence criterion met
 Total energy in the final basis set = -1510.22522412
   13   -1510.2368420389      7.62E-09 Convergence criterion met
 Total energy in the final basis set = -1510.23684204
   13   -1510.2426095278      6.21E-09 Convergence criterion met
 Total energy in the final basis set = -1510.24260953
   13   -1510.2459709001      9.42E-09 Convergence criterion met
 Total energy in the final basis set = -1510.24597090
   13   -1510.2481030310      2.53E-09 Convergence criterion met
   11   -1510.2538011367      7.41E-09 Convergence criterion met
 Total energy in the final basis set = -1510.25380114
   12   -1510.2538221583      3.07E-09 Convergence criterion met
 Total energy in the final basis set = -1510.25382216
   12   -1510.2538446541      2.24E-09 Convergence criterion met
 Total energy in the final basis set = -1510.25384465
   11   -1510.2538596855      9.83E-09 Convergence criterion met
 Total energy in the final basis set = -1510.25385969
   11   -1510.2538651289      3.24E-09 Convergence criterion met
 Total energy in the final basis set = -1510.25386513
    9   -1510.2538668582      6.93E-09 Convergence criterion met
 Total energy in the final basis set = -1510.25386686

             Standard Nuclear Orientation (Angstroms)
    I     Atom           X                Y                Z
 ----------------------------------------------------------------
    1      O      -2.7177966979     1.9865709582     0.7390971925
    2      C      -3.3657377198     1.8229050268    -0.3156066429
    3      C      -4.3944253032     0.7111950154    -0.7274874734
    4      C      -3.8988110266    -0.7969241866    -0.8448042190
    5      C      -2.5358394536    -1.2106320369    -0.1834191653
    6      O      -2.3379129996    -0.4669439535     1.0145252206
    7      C      -1.0617809633    -0.8176217470     1.6840452679
    8      C       0.1943885312    -0.4173938190     0.8262510849
    9      O       1.3860489711    -0.9209287829     1.5465742858
   10      C       2.5238598473    -0.9493041822     0.6377327779
   11      C       3.6148498746     0.1185683009     1.0325225298
   12      C       4.9236224415    -0.0087174539     0.1598478102
   13      C       5.1854209691    -1.4090764480    -0.4990167019
   14      O       5.7615326912    -1.6171684197    -1.5893221441
   15      O      -3.2679832167     2.7176341296    -1.4382445976
   16      O       4.9231521405    -2.4255703588     0.4806518122
   17      O       2.5460264977    -1.6476534778    -0.3978090846
   18      C       5.1847491279    -3.7672697202    -0.0857678032
   19      C       3.0886125083     1.5293394949     0.5103003882
   20      C       4.0991162988     2.6697652134     0.9359141108
   21      C       5.2378804290     2.4964418093    -0.1373572277
   22      C       4.7491589873     1.1871284529    -0.8667806953
   23      O       3.2828592035     1.3951061414    -0.9530134532
   24      H       3.8034392378     0.1009462059     2.1202853290
   25      H       5.8042755846     0.1840071708     0.8017227229
   26      H       2.0298667912     1.7423321518     0.7473767483
   27      H       3.6172537964     3.6576910363     0.8651180969
   28      H       4.4630485560     2.5289519802     1.9664075976
   29      H       5.2583695244     3.3434815197    -0.8418635352
   30      H       6.2374067366     2.3827764762     0.3115014392
   31      H       5.1803741704     0.9944657178    -1.8685599447
   32      O      -1.7584496127    -2.0921698199    -0.6155212154
   33      C      -2.3007742486     3.7987840225    -1.1418763080
   34      C      -5.6083271471     0.5565393829     0.2990914680
   35      C      -6.8576579052     0.0527166907    -0.5224220550
   36      C      -6.4202616708    -1.4254920100    -0.8395426329
   37      C      -5.0639136310    -1.5272513901    -0.0333647438
   38      O      -5.2554103487    -0.6215475150     1.1198801052
   39      H      -4.7814573701     1.0267292413    -1.7127423695
   40      H      -3.8652131553    -1.1241612108    -1.8991273989
   41      H      -1.2836289307     3.3970556469    -0.9557908588
   42      H      -5.7843720924     1.4385012171     0.9449227373
   43      H      -7.7623333235     0.0770578511     0.1062291301
   44      H      -7.0393224587     0.6514236765    -1.4292612190
   45      H      -7.1514686929    -2.1572593643    -0.4610103242
   46      H      -6.2705601768    -1.6013428334    -1.9169032127
   47      H      -4.8016355040    -2.5464581859     0.3116158455
   48      H      -2.6086241091     4.3943881983    -0.2581600939
   49      H      -2.2822352051     4.4473348264    -2.0368880670
   50      H       4.2239524610    -4.2586880333    -0.3414096487
   51      H       5.7100213015    -4.3655950961     0.6827904097
   52      H       5.8059710807    -3.6763168524    -0.9995357940
   53      H       0.1014209043    -0.8856978607    -0.1779217106
   54      H       0.2288491684     0.6886081260     0.7085511729
   55      H      -1.0136020418    -1.9085269649     1.8944968299
   56      H      -1.0734476002    -0.2612538918     2.6417785081
 ----------------------------------------------------------------

    9   -1510.2538677763      2.80E-09 Convergence criterion met
 Total energy in the final basis set = -1510.25386778
 Final energy is   -1510.25386777635
 **  OPTIMIZATION CONVERGED  **

                    Orbital Energies (a.u.)
 --------------------------------------------------------------

 Alpha MOs
 -- Occupied --
-18.937 -18.932 -18.922 -18.903 -18.898 -18.891 -18.889 -18.877
-18.870 -18.868 -10.105 -10.098 -10.098 -10.095 -10.069 -10.065
-10.064 -10.064 -10.062 -10.061 -10.059 -10.051 -10.039 -10.039
-10.037 -10.035 -10.023 -10.022 -10.021 -10.021  -1.014  -1.009
 -1.007  -0.999  -0.973  -0.972  -0.938  -0.935  -0.931  -0.927
 -0.764  -0.763  -0.726  -0.723  -0.711  -0.706  -0.695  -0.663
 -0.653  -0.611  -0.598  -0.585  -0.546  -0.544  -0.539  -0.538
 -0.517  -0.510  -0.483  -0.469  -0.461  -0.458  -0.452  -0.443
 -0.434  -0.433  -0.428  -0.413  -0.410  -0.408  -0.403  -0.397
 -0.388  -0.379  -0.371  -0.370  -0.365  -0.358  -0.350  -0.348
 -0.343  -0.338  -0.336  -0.334  -0.330  -0.330  -0.325  -0.313
 -0.310  -0.309  -0.306  -0.300  -0.294  -0.286  -0.285  -0.275
 -0.271  -0.257  -0.247  -0.243  -0.240  -0.236  -0.234  -0.182
 -0.173  -0.166  -0.161  -0.156  -0.149  -0.148  -0.148  -0.146
 -0.145

          Ground-State Mulliken Net Atomic Charges

     Atom                 Charge (a.u.)
  ----------------------------------------
      1 O                    -0.205049
      2 C                     0.206064
      3 C                    -0.080542
      4 C                    -0.078141
      5 C                     0.205504
      6 O                    -0.157958
      7 C                    -0.043902
      8 C                    -0.052196
      9 O                    -0.195312
     10 C                     0.226103
     11 C                    -0.076471
     12 C                    -0.080411
     13 C                     0.217282
     14 O                    -0.217234
     15 O                    -0.171873
     16 O                    -0.174884
     17 O                    -0.181558
     18 C                    -0.134421
     19 C                     0.022492
     20 C                    -0.144645
     21 C                    -0.142028
     22 C                     0.023787
     23 O                    -0.192368
     24 H                     0.088712
     25 H                     0.084113
     26 H                     0.080419
     27 H                     0.078069
     28 H                     0.074726
     29 H                     0.078188
     30 H                     0.074222
     31 H                     0.092064
     32 O                    -0.216806
     33 C                    -0.129585
     34 C                     0.026984
     35 C                    -0.142644
     36 C                    -0.144805
     37 C                     0.025971
     38 O                    -0.185361
     39 H                     0.086653
     40 H                     0.086443
     41 H                     0.086843
     42 H                     0.084308
     43 H                     0.078154
     44 H                     0.074464
     45 H                     0.078662
     46 H                     0.074808
     47 H                     0.083513
     48 H                     0.087827
     49 H                     0.090223
     50 H                     0.087733
     51 H                     0.084495
     52 H                     0.099618
     53 H                     0.097298
     54 H                     0.074885
     55 H                     0.091862
     56 H                     0.095705
  ----------------------------------------
  Sum of atomic charges =     0.000000

                    Cartesian Multipole Moments
 -----------------------------------------------------------------
    Charge (ESU x 10^10)
                 0.0000
    Dipole Moment (Debye)
         X      -0.8923      Y       2.3195      Z       0.6222
       Tot       2.5620
    Quadrupole Moments (Debye-Ang)
        XX    -143.5587     XY       4.2292     YY    -151.8803
        XZ      16.6962     YZ      -2.1653     ZZ    -165.4978

 Total job time:  76.30s(wall), 3632.05s(cpu)
        *  Thank you very much for using Q-Chem.  Have a nice day.  *
