 Q-Chem 5.0, Q-Chem, Inc., Pleasanton, CA (2017)
 Q-Chem 5.0.1 for Intel X86 EM64T Linux

User input:
--------------------------------------------------------------
$molecule
0  1
O -2.7177966979 1.9865709582 0.7390971925
C -3.3657377198 1.8229050268 -0.3156066429
C -4.3944253032 0.7111950154 -0.7274874734
C -3.8988110266 -0.7969241866 -0.844804219
C -2.5358394536 -1.2106320369 -0.1834191653
O -2.3379129996 -0.4669439535 1.0145252206
C -1.0617809633 -0.817621747 1.6840452679
C 0.1943885312 -0.417393819 0.8262510849
O 1.3860489711 -0.9209287829 1.5465742858
C 2.5238598473 -0.9493041822 0.6377327779
C 3.6148498746 0.1185683009 1.0325225298
C 4.9236224415 -0.0087174539 0.1598478102
C 5.1854209691 -1.409076448 -0.4990167019
O 5.7615326912 -1.6171684197 -1.5893221441
O -3.2679832167 2.7176341296 -1.4382445976
O 4.9231521405 -2.4255703588 0.4806518122
O 2.5460264977 -1.6476534778 -0.3978090846
C 5.1847491279 -3.7672697202 -0.0857678032
C 3.0886125083 1.5293394949 0.5103003882
C 4.0991162988 2.6697652134 0.9359141108
C 5.237880429 2.4964418093 -0.1373572277
C 4.7491589873 1.1871284529 -0.8667806953
O 3.2828592035 1.3951061414 -0.9530134532
H 3.8034392378 0.1009462059 2.120285329
H 5.8042755846 0.1840071708 0.8017227229
H 2.0298667912 1.7423321518 0.7473767483
H 3.6172537964 3.6576910363 0.8651180969
H 4.463048556 2.5289519802 1.9664075976
H 5.2583695244 3.3434815197 -0.8418635352
H 6.2374067366 2.3827764762 0.3115014392
H 5.1803741704 0.9944657178 -1.8685599447
O -1.7584496127 -2.0921698199 -0.6155212154
C -2.3007742486 3.7987840225 -1.141876308
C -5.6083271471 0.5565393829 0.299091468
C -6.8576579052 0.0527166907 -0.522422055
C -6.4202616708 -1.42549201 -0.8395426329
C -5.063913631 -1.5272513901 -0.0333647438
O -5.2554103487 -0.621547515 1.1198801052
H -4.7814573701 1.0267292413 -1.7127423695
H -3.8652131553 -1.1241612108 -1.8991273989
H -1.2836289307 3.3970556469 -0.9557908588
H -5.7843720924 1.4385012171 0.9449227373
H -7.7623333235 0.0770578511 0.1062291301
H -7.0393224587 0.6514236765 -1.429261219
H -7.1514686929 -2.1572593643 -0.4610103242
H -6.2705601768 -1.6013428334 -1.9169032127
H -4.801635504 -2.5464581859 0.3116158455
H -2.6086241091 4.3943881983 -0.2581600939
H -2.2822352051 4.4473348264 -2.036888067
H 4.223952461 -4.2586880333 -0.3414096487
H 5.7100213015 -4.3655950961 0.6827904097
H 5.8059710807 -3.6763168524 -0.999535794
H 0.1014209043 -0.8856978607 -0.1779217106
H 0.2288491684 0.688608126 0.7085511729
H -1.0136020418 -1.9085269649 1.8944968299
H -1.0734476002 -0.2612538918 2.6417785081
$end

$rem
JOBTYPE                   OPT
METHOD                    B3LYP
DFT_D                     d3_op
BASIS                     STO-3G
GEOM_OPT_MAX_CYCLES       100
GEOM_OPT_TOL_GRADIENT     300
GEOM_OPT_TOL_DISPLACEMENT 1200
GEOM_OPT_TOL_ENERGY       100
SYMMETRY                  False
THRESH                    12
SCF_CONVERGENCE           8
MAX_SUB_FILE_NUM          128
MEM_STATIC                400
MEM_TOTAL                 4000
$end
--------------------------------------------------------------

   16   -1510.2537013895      3.20E-09 Convergence criterion met
 Total energy in the final basis set = -1510.25370139
   15   -1510.2594415937      2.11E-09 Convergence criterion met
 Total energy in the final basis set = -1510.25944159
   14   -1510.2645207502      5.90E-09 Convergence criterion met
 Total energy in the final basis set = -1510.26452075
   14   -1510.2693267741      3.11E-09 Convergence criterion met
 Total energy in the final basis set = -1510.26932677
   14   -1510.2739923990      6.92E-09 Convergence criterion met
 Total energy in the final basis set = -1510.27399240
   14   -1510.2775994460      9.45E-09 Convergence criterion met
 Total energy in the final basis set = -1510.27759945
   13   -1510.2800453782      7.56E-09 Convergence criterion met
 Total energy in the final basis set = -1510.28004538
   13   -1510.2820727161      6.20E-09 Convergence criterion met
   12   -1510.2908420646      8.49E-09 Convergence criterion met
 Total energy in the final basis set = -1510.29084206
   12   -1510.2908912807      4.08E-09 Convergence criterion met
 Total energy in the final basis set = -1510.29089128
   11   -1510.2908918519      5.59E-09 Convergence criterion met
 Total energy in the final basis set = -1510.29089185
   11   -1510.2908945029      5.04E-09 Convergence criterion met
 Total energy in the final basis set = -1510.29089450
   12   -1510.2908925355      8.12E-09 Convergence criterion met
 Total energy in the final basis set = -1510.29089254
   11   -1510.2909008552      7.11E-09 Convergence criterion met
 Total energy in the final basis set = -1510.29090086

             Standard Nuclear Orientation (Angstroms)
    I     Atom           X                Y                Z
 ----------------------------------------------------------------
    1      O      -2.0412317879     1.0228916178    -0.5230651793
    2      C      -2.5955048560     0.1334634444    -1.2114287484
    3      C      -4.0411973072    -0.4539751455    -1.0285312269
    4      C      -4.1596749243    -1.5843251552     0.0928587190
    5      C      -2.7864624279    -1.9159925586     0.7675635503
    6      O      -2.4972082912    -0.9199455064     1.7555331435
    7      C      -1.0888389062    -1.0392920824     2.2146092223
    8      C      -0.1409349977    -0.6131492169     1.0425101035
    9      O       1.1917985111    -0.2630575797     1.5951025280
   10      C       2.0312147980     0.1738845872     0.5325007373
   11      C       3.4291966784     0.5683856282     1.1056119262
   12      C       4.4907780726     0.8822000862    -0.0255281207
   13      C       3.9621738870     0.6679680214    -1.4932441314
   14      O       3.7006743288     1.5509546088    -2.3376836051
   15      O      -1.9845790964    -0.5152047957    -2.3238285849
   16      O       3.9846757886    -0.7443306310    -1.7643010669
   17      O       1.6686475664     0.2429037925    -0.6672615757
   18      C       3.4262110162    -1.0111361064    -3.1081091110
   19      C       3.3546931047     1.9775134235     1.8430441794
   20      C       4.6821217018     2.1732303513     2.6768972714
   21      C       5.7111774292     2.5157972245     1.5358718274
   22      C       4.7916307023     2.4127395072     0.2576286396
   23      O       3.4884944042     2.9407785454     0.7296815661
   24      H       3.7688299613    -0.2285472350     1.7909532365
   25      H       5.3904269023     0.2542997187     0.1055310242
   26      H       2.4140110976     2.1485427798     2.4022104625
   27      H       4.5695858622     3.0084449777     3.3862419638
   28      H       4.9543434755     1.2657484449     3.2391244563
   29      H       6.1057746677     3.5386919461     1.6432995610
   30      H       6.5582655955     1.8121038497     1.5005428590
   31      H       5.1330817519     2.9764875186    -0.6319759545
   32      O      -2.0284131673    -2.8703301629     0.4845986269
   33      C      -0.6530372820     0.0762131145    -2.6215321883
   34      C      -5.0416052306     0.6370107162    -0.4516854928
   35      C      -6.5191894182     0.1301294705    -0.6855221030
   36      C      -6.6329264567    -0.9901956621     0.4140239207
   37      C      -5.2026115197    -0.9100565811     1.0810235683
   38      O      -4.8654537862     0.5295009084     1.0135435886
   39      H      -4.3738203798    -0.8466254994    -2.0056747592
   40      H      -4.5489720913    -2.5200659320    -0.3460194241
   41      H       0.0668565346     0.0097720944    -1.7727228110
   42      H      -4.8334843311     1.6704495831    -0.7897648382
   43      H      -7.2369158940     0.9463960530    -0.5065301930
   44      H      -6.6713395797    -0.2565016548    -1.7060116273
   45      H      -7.4154809876    -0.7533818748     1.1523018991
   46      H      -6.8382920909    -1.9855561278    -0.0114196772
   47      H      -5.1456708845    -1.2724080801     2.1254657308
   48      H      -0.7540372844     1.1413346212    -2.9122148057
   49      H      -0.2640788654    -0.4981747517    -3.4818548094
   50      H       2.3576383025    -1.2974326648    -3.0245751376
   51      H       3.9969678386    -1.8488851688    -3.5512595084
   52      H       3.5075266959    -0.1056634835    -3.7423300304
   53      H      -0.0494736025    -1.4502296016     0.3179294664
   54      H      -0.6069881316     0.2536623550     0.5129388417
   55      H      -0.8602175691    -2.0706842309     2.5579785875
   56      H      -0.9936751778    -0.3346457950     3.0646954974
 ----------------------------------------------------------------

    9   -1510.2909011482      4.80E-09 Convergence criterion met
 Total energy in the final basis set = -1510.29090115
 Final energy is   -1510.29090114823
 **  OPTIMIZATION CONVERGED  **

                    Orbital Energies (a.u.)
 --------------------------------------------------------------

 Alpha MOs
 -- Occupied --
-18.946 -18.937 -18.935 -18.917 -18.890 -18.889 -18.887 -18.878
-18.876 -18.861 -10.111 -10.102 -10.100 -10.091 -10.074 -10.062
-10.062 -10.061 -10.060 -10.056 -10.050 -10.046 -10.042 -10.040
-10.039 -10.034 -10.021 -10.021 -10.020 -10.019  -1.024  -1.015
 -1.009  -0.997  -0.970  -0.970  -0.946  -0.939  -0.934  -0.924
 -0.765  -0.763  -0.729  -0.723  -0.713  -0.706  -0.695  -0.657
 -0.653  -0.616  -0.597  -0.581  -0.547  -0.545  -0.538  -0.537
 -0.517  -0.510  -0.482  -0.473  -0.463  -0.455  -0.454  -0.448
 -0.435  -0.431  -0.430  -0.418  -0.407  -0.404  -0.400  -0.399
 -0.391  -0.386  -0.370  -0.365  -0.360  -0.360  -0.352  -0.349
 -0.345  -0.339  -0.334  -0.332  -0.332  -0.327  -0.326  -0.313
 -0.310  -0.307  -0.306  -0.302  -0.292  -0.284  -0.280  -0.277
 -0.273  -0.264  -0.250  -0.246  -0.240  -0.234  -0.234  -0.191
 -0.178  -0.175  -0.162  -0.161  -0.158  -0.150  -0.145  -0.144
 -0.143

          Ground-State Mulliken Net Atomic Charges

     Atom                 Charge (a.u.)
  ----------------------------------------
      1 O                    -0.213838
      2 C                     0.207415
      3 C                    -0.078487
      4 C                    -0.078544
      5 C                     0.203395
      6 O                    -0.163022
      7 C                    -0.047453
      8 C                    -0.065058
      9 O                    -0.169398
     10 C                     0.221600
     11 C                    -0.077695
     12 C                    -0.080661
     13 C                     0.217403
     14 O                    -0.217751
     15 O                    -0.168888
     16 O                    -0.177956
     17 O                    -0.208611
     18 C                    -0.133467
     19 C                     0.025668
     20 C                    -0.143717
     21 C                    -0.144014
     22 C                     0.024889
     23 O                    -0.187910
     24 H                     0.087994
     25 H                     0.084413
     26 H                     0.085789
     27 H                     0.078641
     28 H                     0.073614
     29 H                     0.078445
     30 H                     0.073413
     31 H                     0.089902
     32 O                    -0.214501
     33 C                    -0.143173
     34 C                     0.026265
     35 C                    -0.143972
     36 C                    -0.144082
     37 C                     0.026666
     38 O                    -0.182823
     39 H                     0.086929
     40 H                     0.085822
     41 H                     0.111205
     42 H                     0.086274
     43 H                     0.078511
     44 H                     0.073717
     45 H                     0.078139
     46 H                     0.073500
     47 H                     0.085635
     48 H                     0.085327
     49 H                     0.084639
     50 H                     0.083066
     51 H                     0.083647
     52 H                     0.097613
     53 H                     0.089368
     54 H                     0.109619
     55 H                     0.090863
     56 H                     0.095632
  ----------------------------------------
  Sum of atomic charges =    -0.000000

                    Cartesian Multipole Moments
 -----------------------------------------------------------------
    Charge (ESU x 10^10)
                -0.0000
    Dipole Moment (Debye)
         X      -0.2615      Y      -1.8323      Z       0.7465
       Tot       1.9957
    Quadrupole Moments (Debye-Ang)
        XX    -135.9991     XY       2.7152     YY    -168.9341
        XZ      10.2482     YZ       1.7108     ZZ    -154.3648

 Total job time:  114.41s(wall), 5454.88s(cpu)
        *  Thank you very much for using Q-Chem.  Have a nice day.  *
