 Q-Chem 5.0, Q-Chem, Inc., Pleasanton, CA (2017)
 Q-Chem 5.0.1 for Intel X86 EM64T Linux

User input:
--------------------------------------------------------------
$molecule
0  1
O -3.0833121687 1.8295654865 2.3460629378
C -2.6830776144 1.3200718769 1.2799219752
C -3.5513002097 0.6800104961 0.1424573823
C -2.8795242766 -0.5259455362 -0.6195222482
C -1.746098817 -1.240816027 0.2124588883
O -0.8705511069 -1.9937019742 -0.6599505688
C 0.5470194777 -1.6346883908 -0.6900023338
C 1.0877671719 -2.0710648879 0.7432095902
O 2.4207479462 -1.6963396812 1.2536633244
C 3.5261220119 -1.5505659588 0.349655931
C 3.8162274099 -0.2445794941 -0.5479689174
C 2.896305176 0.818158605 -1.2961848766
C 1.3689380806 0.6989911351 -1.3674335371
O 0.5294361485 -0.0857732585 -0.7304687852
O -1.3295677881 1.4613120558 0.7874047136
O 0.8556596176 1.8193403837 -2.0433241879
O 4.4913304948 -2.3455004764 0.4586497274
C -0.6293492902 1.8581344485 -1.9934914476
C 4.5877773512 0.745333948 0.4625520606
C 5.6654691886 1.5751206339 -0.3264250689
C 4.7604657072 2.5924392926 -1.1077081128
C 3.3337395229 2.187983789 -0.5685033451
O 3.5741192673 1.7579748589 0.8181336756
H 4.5350719669 -0.6211829125 -1.2972097414
H 3.2278708553 0.8583050924 -2.3494242809
H 4.9536121968 0.2458723573 1.3796544733
H 6.3254507973 2.1016882487 0.378663739
H 6.2743410337 0.9434232037 -0.9897651352
H 4.9981995592 3.6385421392 -0.8527280119
H 4.8378056535 2.4701242864 -2.1990691895
H 2.5695688377 2.9887377205 -0.6005259182
O -1.5988316808 -1.147559807 1.4547890551
C -0.4258053446 1.9959938519 1.8326804955
C -4.9217921379 0.0457444308 0.6343316959
C -5.9436217722 0.1050160275 -0.5611499629
C -5.2678699289 -0.9016923441 -1.5617867316
C -4.1249257292 -1.5194398291 -0.660416539
O -4.6388276441 -1.4047763446 0.7231882453
H -3.7488668495 1.4897068836 -0.5856511857
H -2.512449818 -0.2785636742 -1.6270925814
H -1.0204512045 2.3422767677 2.7042966697
H -5.2721749794 0.4374283634 1.6084676307
H -6.926760949 -0.2630885879 -0.2255625775
H -6.068927219 1.1122853439 -0.9860026481
H -5.9712022438 -1.6753154746 -1.9055377258
H -4.8529505171 -0.3919458493 -2.4459527363
H -3.8621570246 -2.5693322721 -0.887753004
H 0.1536515151 2.8313996025 1.3946359503
H 0.2749376919 1.1966477228 2.145457957
H -1.0630757539 1.0332242181 -2.5990525981
H -0.9180551506 2.8314035662 -2.4403158237
H -0.9798929056 1.7856525023 -0.9295432559
H 0.3728552272 -1.7100045328 1.5260506667
H 0.995412637 -3.1825751889 0.731851172
H 0.4860144816 -4.4219952739 -1.2413148835
H 0.4709752739 -5.1450639652 -1.3421552152
$end

$rem
JOBTYPE                   OPT
METHOD                    B3LYP
DFT_D                     d3_op
BASIS                     STO-3G
GEOM_OPT_MAX_CYCLES       100
GEOM_OPT_TOL_GRADIENT     300
GEOM_OPT_TOL_DISPLACEMENT 1200
GEOM_OPT_TOL_ENERGY       100
SYMMETRY                  False
THRESH                    12
SCF_CONVERGENCE           8
MAX_SUB_FILE_NUM          128
MEM_STATIC                400
MEM_TOTAL                 4000
$end
--------------------------------------------------------------

   17   -1510.0949016048      6.09E-09 Convergence criterion met
 Total energy in the final basis set = -1510.09490160
   14   -1510.0989313191      8.53E-09 Convergence criterion met
 Total energy in the final basis set = -1510.09893132
   15   -1510.1039698871      4.00E-09 Convergence criterion met
 Total energy in the final basis set = -1510.10396989
   14   -1510.1085869886      9.87E-09 Convergence criterion met
 Total energy in the final basis set = -1510.10858699
   15   -1510.1140090720      4.02E-09 Convergence criterion met
 Total energy in the final basis set = -1510.11400907
   14   -1510.1204057276      5.35E-09 Convergence criterion met
 Total energy in the final basis set = -1510.12040573
   14   -1510.1257755771      3.38E-09 Convergence criterion met
 Total energy in the final basis set = -1510.12577558
   14   -1510.1306848036      3.13E-09 Convergence criterion met
   12   -1510.1500008891      2.70E-09 Convergence criterion met
 Total energy in the final basis set = -1510.15000089
   12   -1510.1500575292      4.63E-09 Convergence criterion met
 Total energy in the final basis set = -1510.15005753
   12   -1510.1501063562      5.39E-09 Convergence criterion met
 Total energy in the final basis set = -1510.15010636
   11   -1510.1501264162      8.19E-09 Convergence criterion met
 Total energy in the final basis set = -1510.15012642
   11   -1510.1500995376      8.61E-09 Convergence criterion met
 Total energy in the final basis set = -1510.15009954
   12   -1510.1501259613      3.20E-09 Convergence criterion met
 Total energy in the final basis set = -1510.15012596

             Standard Nuclear Orientation (Angstroms)
    I     Atom           X                Y                Z
 ----------------------------------------------------------------
    1      O      -2.6108175084     1.9373798366     2.0913731853
    2      C      -2.5596901636     1.7025907007     0.8674599545
    3      C      -3.6523005982     0.9751605801    -0.0068792127
    4      C      -3.2121884681    -0.4461840207    -0.5507275804
    5      C      -1.7523973662    -0.7915651388    -0.1082673324
    6      O      -1.1737273365    -1.7356516770    -1.0167671915
    7      C       0.2872161967    -1.8477687727    -0.9429711562
    8      C       0.7646297078    -2.4637005827     0.4469289471
    9      O       2.0806930573    -1.8652486378     0.7469283894
   10      C       3.0095983399    -2.2086650235    -0.2910737941
   11      C       3.9761483977    -0.9935211867    -0.4564667926
   12      C       3.2307739239     0.3363073037    -0.9052413313
   13      C       1.7287785047     0.3275462790    -1.2959047521
   14      O       0.6879207013    -0.3995023667    -0.9792326607
   15      O      -1.5495354245     2.2712263271    -0.0075157821
   16      O       1.4361948309     1.5137337804    -1.9992842727
   17      O       3.0226179232    -3.2765195934    -0.9390873229
   18      C       0.0002381389     1.5881427672    -2.3909894748
   19      C       4.5818469424    -0.5299042157     0.9398043531
   20      C       5.7700611173     0.4765591182     0.6695238502
   21      C       4.9829497555     1.7855043454     0.2908916296
   22      C       3.4926207481     1.2720343137     0.3762795931
   23      O       3.5165279550     0.3271691510     1.5074012730
   24      H       4.7635722810    -1.2612923151    -1.1822176840
   25      H       3.7406884843     0.7783782582    -1.7814518797
   26      H       4.8165845448    -1.3626272095     1.6304776788
   27      H       6.3725044301     0.6160058181     1.5812290984
   28      H       6.4302216481     0.1277064258    -0.1405374779
   29      H       5.1511005270     2.5861795152     1.0286686081
   30      H       5.2390331465     2.1668721414    -0.7104606307
   31      H       2.7250668048     2.0548288477     0.5306890248
   32      O      -1.1525315588    -0.2368544371     0.8454815028
   33      C      -0.4833426479     2.8912261819     0.8103836792
   34      C      -4.9001714044     0.5807866608     0.8877062224
   35      C      -6.1073712184     0.2324383830    -0.0674939101
   36      C      -5.6708192156    -1.1803490857    -0.6069771254
   37      C      -4.2953034405    -1.3820722838     0.1441341029
   38      O      -4.5136443528    -0.7329450863     1.4551556355
   39      H      -3.9339220145     1.6449881026    -0.8395227933
   40      H      -3.2731840907    -0.5127864325    -1.6512201172
   41      H      -0.8986935651     3.6205327822     1.5338908862
   42      H      -5.1178663552     1.3002034191     1.7005669864
   43      H      -7.0473146121     0.1737452453     0.5039162974
   44      H      -6.2275885419     0.9770023633    -0.8704133535
   45      H      -6.3870119321    -1.9645197163    -0.3139045233
   46      H      -5.5514696628    -1.2018672473    -1.7019686856
   47      H      -3.9764174079    -2.4345888669     0.2742327131
   48      H       0.1913155086     3.4066748197     0.1022983488
   49      H       0.0830501807     2.1178979286     1.3697567588
   50      H      -0.3026400708     0.6824025862    -2.9522672760
   51      H      -0.0615360510     2.4727598329    -3.0506865344
   52      H      -0.6638950846     1.7290784211    -1.4976251140
   53      H       0.1146600363    -2.1984673070     1.3082010082
   54      H       0.8148149172    -3.5707581310     0.3469567045
   55      H       1.2617014117    -1.9666920146    -2.8276120243
   56      H       1.6603143276    -1.7666014959    -3.4179647065
 ----------------------------------------------------------------

   10   -1510.1501268463      8.93E-09 Convergence criterion met
 Total energy in the final basis set = -1510.15012685
 Final energy is   -1510.15012684630
 **  OPTIMIZATION CONVERGED  **

                    Orbital Energies (a.u.)
 --------------------------------------------------------------

 Alpha MOs
 -- Occupied --
-19.011 -18.977 -18.931 -18.923 -18.919 -18.902 -18.887 -18.880
-18.880 -18.872 -10.133 -10.099 -10.099 -10.098 -10.073 -10.069
-10.064 -10.063 -10.063 -10.061 -10.058 -10.050 -10.046 -10.038
-10.036 -10.030 -10.028 -10.020 -10.019  -9.994  -1.069  -1.014
 -1.007  -1.003  -0.983  -0.981  -0.970  -0.934  -0.933  -0.932
 -0.777  -0.763  -0.736  -0.722  -0.720  -0.706  -0.680  -0.672
 -0.661  -0.625  -0.601  -0.585  -0.558  -0.548  -0.546  -0.539
 -0.529  -0.511  -0.486  -0.481  -0.473  -0.457  -0.453  -0.448
 -0.446  -0.435  -0.431  -0.424  -0.416  -0.412  -0.411  -0.406
 -0.395  -0.386  -0.379  -0.375  -0.367  -0.360  -0.354  -0.352
 -0.348  -0.344  -0.342  -0.338  -0.336  -0.334  -0.327  -0.319
 -0.314  -0.312  -0.305  -0.303  -0.298  -0.292  -0.284  -0.279
 -0.276  -0.260  -0.253  -0.247  -0.245  -0.237  -0.234  -0.222
 -0.184  -0.176  -0.167  -0.157  -0.154  -0.151  -0.149  -0.144
 -0.082

          Ground-State Mulliken Net Atomic Charges

     Atom                 Charge (a.u.)
  ----------------------------------------
      1 O                    -0.209055
      2 C                     0.221315
      3 C                    -0.081445
      4 C                    -0.079773
      5 C                     0.207527
      6 O                    -0.183996
      7 C                     0.053853
      8 C                    -0.074614
      9 O                    -0.177242
     10 C                     0.209613
     11 C                    -0.079207
     12 C                    -0.069755
     13 C                     0.222858
     14 O                    -0.153355
     15 O                    -0.182555
     16 O                    -0.151091
     17 O                    -0.195134
     18 C                    -0.144982
     19 C                     0.028306
     20 C                    -0.144270
     21 C                    -0.143207
     22 C                     0.028863
     23 O                    -0.179476
     24 H                     0.087941
     25 H                     0.095827
     26 H                     0.088781
     27 H                     0.080599
     28 H                     0.075923
     29 H                     0.080750
     30 H                     0.075524
     31 H                     0.084538
     32 O                    -0.209788
     33 C                    -0.130735
     34 C                     0.025376
     35 C                    -0.144349
     36 C                    -0.143357
     37 C                     0.025902
     38 O                    -0.187237
     39 H                     0.082435
     40 H                     0.086543
     41 H                     0.092755
     42 H                     0.089766
     43 H                     0.078485
     44 H                     0.072652
     45 H                     0.078687
     46 H                     0.074109
     47 H                     0.085593
     48 H                     0.084425
     49 H                     0.094762
     50 H                     0.094292
     51 H                     0.089545
     52 H                     0.120214
     53 H                     0.090232
     54 H                     0.088654
     55 H                     0.020049
     56 H                    -0.052072
  ----------------------------------------
  Sum of atomic charges =    -0.000000

                    Cartesian Multipole Moments
 -----------------------------------------------------------------
    Charge (ESU x 10^10)
                -0.0000
    Dipole Moment (Debye)
         X       0.8964      Y       3.5481      Z      -2.3161
       Tot       4.3309
    Quadrupole Moments (Debye-Ang)
        XX    -138.1129     XY       6.3820     YY    -163.5423
        XZ       8.8924     YZ      -8.4851     ZZ    -170.3260

 Total job time:  145.97s(wall), 6965.71s(cpu)
        *  Thank you very much for using Q-Chem.  Have a nice day.  *
