 Q-Chem 5.0, Q-Chem, Inc., Pleasanton, CA (2017)
 Q-Chem 5.0.1 for Intel X86 EM64T Linux

User input:
--------------------------------------------------------------
$molecule
0  1
O -3.8103958057 -1.8401392026 1.7888307146
C -4.7138860523 -1.4225416337 1.0326327554
C -5.0109388318 0.0746333993 0.6562045307
C -3.7257457278 0.9527804394 0.3731193528
C -2.4524138604 0.1077386214 0.007455631
O -1.2906829513 0.9296527148 0.2106503679
C -0.1005895202 0.0749164908 0.4511310226
C 1.1524741132 1.019169697 0.4181897238
O 2.3845688344 0.2287012532 0.1941982218
C 2.8621722068 0.4203478996 -1.1487349624
C 4.2843883964 -0.2277966357 -1.2748467229
C 5.2773156494 0.1402214036 -0.1005271065
C 4.8857470415 1.373794002 0.7856906856
O 5.3102410066 1.6367854217 1.9309581743
O -5.6784829984 -2.2691531157 0.398841321
O 4.1053608422 2.2857990334 -9.31111e-05
O 2.2185203553 1.00197133 -2.0485143479
C 3.7751498685 3.4932438618 0.7887690689
C 4.1654122268 -1.7998874348 -1.0445036951
C 5.5469966973 -2.4890864012 -1.3867125724
C 6.3884406146 -2.1551774205 -0.0983064088
C 5.3723226997 -1.2378391937 0.6857962774
O 4.0713044748 -1.8973813772 0.4304131235
H 4.6929316248 0.0274207561 -2.2676726857
H 6.2684691112 0.3864656472 -0.5280531509
H 3.279955082 -2.2646013578 -1.5205753898
H 5.4148383263 -3.5748557614 -1.5167442492
H 5.9962558212 -2.0767670932 -2.3046332603
H 6.6104336283 -3.0645331803 0.483122448
H 7.3350328163 -1.6392629255 -0.3249528038
H 5.554944903 -1.130772643 1.772841523
O -2.4184143823 -1.0671231316 -0.4158576883
C -5.4103839258 -3.6840623177 0.7429498686
C -5.8620012256 0.319980935 -0.6649805537
C -6.6009937789 1.703548483 -0.4954958846
C -5.3856872672 2.6985878663 -0.5968977571
C -4.2015212786 1.7103044408 -0.9444128975
O -4.8499404735 0.6165866829 -1.7054451545
H -5.5485767956 0.5049173134 1.5229100946
H -3.4841244769 1.6420759908 1.2006076149
H -5.5009517682 -3.864159687 1.833834664
H -6.4942386277 -0.537833108 -0.9633809334
H -7.3146818901 1.858605251 -1.3204176313
H -7.1421082881 1.7805841019 0.4610786832
H -5.5264186634 3.4325670272 -1.4058533962
H -5.2025050624 3.2421267868 0.3440488182
H -3.3756929396 2.1570800402 -1.5318554924
H -4.3967473436 -3.9954101204 0.4176873265
H -6.1721215313 -4.2780633297 0.2051550259
H 3.12836285 4.1124304482 0.1402109781
H 4.687012113 4.0644425815 1.0589021744
H 3.2317457503 3.2371588333 1.7208132544
H 1.0249425883 1.7502043253 -0.4092900376
H 1.2691913082 1.5503890635 1.3842378695
H -0.0078625992 -0.7003015837 -0.341369939
H -0.1880356658 -0.4422046513 1.4311033774
$end

$rem
JOBTYPE                   OPT
METHOD                    B3LYP
DFT_D                     d3_op
BASIS                     STO-3G
GEOM_OPT_MAX_CYCLES       100
GEOM_OPT_TOL_GRADIENT     300
GEOM_OPT_TOL_DISPLACEMENT 1200
GEOM_OPT_TOL_ENERGY       100
SYMMETRY                  False
THRESH                    12
SCF_CONVERGENCE           8
MAX_SUB_FILE_NUM          128
MEM_STATIC                400
MEM_TOTAL                 4000
$end
--------------------------------------------------------------

   16   -1510.2731232345      5.27E-09 Convergence criterion met
 Total energy in the final basis set = -1510.27312323
   14   -1510.2768081619      1.78E-09 Convergence criterion met
 Total energy in the final basis set = -1510.27680816
   14   -1510.2790634514      2.32E-09 Convergence criterion met
 Total energy in the final basis set = -1510.27906345
   13   -1510.2804492298      4.44E-09 Convergence criterion met
 Total energy in the final basis set = -1510.28044923
   13   -1510.2816798886      3.50E-09 Convergence criterion met
 Total energy in the final basis set = -1510.28167989
   13   -1510.2826703314      3.30E-09 Convergence criterion met
 Total energy in the final basis set = -1510.28267033
   13   -1510.2835788459      2.12E-09 Convergence criterion met
 Total energy in the final basis set = -1510.28357885
   13   -1510.2843105326      2.16E-09 Convergence criterion met
   13   -1510.2883887391      4.02E-09 Convergence criterion met
 Total energy in the final basis set = -1510.28838874
   12   -1510.2883739522      6.65E-09 Convergence criterion met
 Total energy in the final basis set = -1510.28837395
   12   -1510.2884538592      8.00E-09 Convergence criterion met
 Total energy in the final basis set = -1510.28845386
   12   -1510.2884687202      6.78E-09 Convergence criterion met
 Total energy in the final basis set = -1510.28846872
   11   -1510.2884602297      9.73E-09 Convergence criterion met
 Total energy in the final basis set = -1510.28846023
   10   -1510.2884668829      6.64E-09 Convergence criterion met
 Total energy in the final basis set = -1510.28846688

             Standard Nuclear Orientation (Angstroms)
    I     Atom           X                Y                Z
 ----------------------------------------------------------------
    1      O      -3.5292788840     0.2253796556     3.0165348639
    2      C      -4.0834030700    -0.0853550384     1.9393714967
    3      C      -4.6567483083     0.9152921545     0.8661321556
    4      C      -3.6455807397     1.2633464942    -0.3029940992
    5      C      -2.2948752712     0.4790637894    -0.2085157208
    6      O      -1.4455446924     0.9192918638    -1.2710283782
    7      C      -0.1569542547     0.1813571921    -1.2515561687
    8      C       0.7723644043     0.6514521237    -0.0693432759
    9      O       2.1114618047     0.0345025314    -0.1980371443
   10      C       2.9958370775     0.9004734900    -0.9298267728
   11      C       4.3797216998     0.1845788106    -1.0578204037
   12      C       4.9607473944    -0.3353600996     0.3238190307
   13      C       4.0530658999    -0.0001524537     1.5613594850
   14      O       3.6282720658    -0.7902036005     2.4293874190
   15      O      -4.4043414517    -1.4260957476     1.5498623892
   16      O       3.8182038314     1.4158045860     1.5687012330
   17      O       2.6647318272     2.0125199238    -1.3938652681
   18      C       2.9307824729     1.7765016085     2.6971854989
   19      C       4.2487695338    -1.1912045998    -1.8497098267
   20      C       5.6967300693    -1.6721518591    -2.2620103192
   21      C       6.2475644607    -2.1968296103    -0.8835017247
   22      C       5.0233737410    -1.8967556099     0.0660211039
   23      O       3.8464664721    -2.1507198618    -0.7989336678
   24      H       5.0744505173     0.8817982375    -1.5574950864
   25      H       5.9650575715     0.0899474465     0.5053827186
   26      H       3.5056122279    -1.1797834567    -2.6708730408
   27      H       5.6338591945    -2.4811830329    -3.0071331049
   28      H       6.3034346185    -0.8531954936    -2.6802137376
   29      H       6.4530443468    -3.2785280642    -0.9171397825
   30      H       7.1618910802    -1.6727578304    -0.5628665091
   31      H       4.9618607010    -2.5049696699     0.9894092578
   32      O      -1.9770260047    -0.3958915515     0.6284329517
   33      C      -3.8090639721    -2.3806827651     2.5101261448
   34      C      -5.8731463342     0.3213313179     0.0344750279
   35      C      -6.6285234453     1.5230372520    -0.6612054729
   36      C      -5.6258816731     1.8835729557    -1.8195817247
   37      C      -4.4874024961     0.8164323840    -1.5778840711
   38      O      -5.2191018534    -0.3757132078    -1.0979149712
   39      H      -4.9474975314     1.8356395996     1.4029196119
   40      H      -3.4170197644     2.3437907072    -0.3400116746
   41      H      -4.1432666526    -2.1815932640     3.5489580463
   42      H      -6.5161056336    -0.3804434057     0.5991656726
   43      H      -7.6003657380     1.1892205853    -1.0582444887
   44      H      -6.7982546145     2.3627239193     0.0313944252
   45      H      -6.0834646861     1.7386093364    -2.8111047332
   46      H      -5.2479705587     2.9163459140    -1.7524606516
   47      H      -3.8711567581     0.5710862045    -2.4647813795
   48      H      -2.7010385111    -2.3363721732     2.4798151506
   49      H      -4.1484390209    -3.3846439374     2.1951812884
   50      H       2.7421139439     2.8617682456     2.6032328453
   51      H       3.4090205483     1.5668404287     3.6758180162
   52      H       1.9695064131     1.2259929821     2.6512161880
   53      H       0.8542589976     1.7591083049    -0.0835357832
   54      H       0.3490527257     0.3047350119     0.8941843444
   55      H       0.3269689788     0.4144924810    -2.2212985325
   56      H      -0.3277476808    -0.9137941406    -1.1769900161
 ----------------------------------------------------------------

    9   -1510.2884678664      5.93E-09 Convergence criterion met
 Total energy in the final basis set = -1510.28846787
 Final energy is   -1510.28846786644
 **  OPTIMIZATION CONVERGED  **

                    Orbital Energies (a.u.)
 --------------------------------------------------------------

 Alpha MOs
 -- Occupied --
-18.943 -18.935 -18.932 -18.919 -18.889 -18.888 -18.887 -18.878
-18.875 -18.855 -10.108 -10.102 -10.099 -10.088 -10.075 -10.070
-10.063 -10.063 -10.061 -10.058 -10.057 -10.050 -10.040 -10.040
-10.038 -10.032 -10.022 -10.020 -10.020 -10.018  -1.022  -1.016
 -1.006  -0.995  -0.971  -0.969  -0.946  -0.939  -0.935  -0.921
 -0.765  -0.762  -0.729  -0.722  -0.712  -0.706  -0.695  -0.662
 -0.649  -0.620  -0.598  -0.583  -0.547  -0.544  -0.538  -0.536
 -0.513  -0.511  -0.488  -0.476  -0.466  -0.462  -0.451  -0.439
 -0.433  -0.432  -0.428  -0.415  -0.408  -0.405  -0.401  -0.398
 -0.390  -0.386  -0.372  -0.365  -0.364  -0.357  -0.353  -0.349
 -0.339  -0.337  -0.334  -0.332  -0.330  -0.327  -0.324  -0.313
 -0.310  -0.306  -0.304  -0.300  -0.296  -0.291  -0.280  -0.275
 -0.274  -0.264  -0.253  -0.247  -0.241  -0.235  -0.233  -0.195
 -0.176  -0.170  -0.161  -0.161  -0.159  -0.151  -0.144  -0.144
 -0.137

          Ground-State Mulliken Net Atomic Charges

     Atom                 Charge (a.u.)
  ----------------------------------------
      1 O                    -0.223014
      2 C                     0.213450
      3 C                    -0.081890
      4 C                    -0.078439
      5 C                     0.213693
      6 O                    -0.170004
      7 C                    -0.049805
      8 C                    -0.055751
      9 O                    -0.169594
     10 C                     0.212300
     11 C                    -0.078809
     12 C                    -0.078118
     13 C                     0.216037
     14 O                    -0.209853
     15 O                    -0.169511
     16 O                    -0.174958
     17 O                    -0.213439
     18 C                    -0.128860
     19 C                     0.026045
     20 C                    -0.143872
     21 C                    -0.143953
     22 C                     0.024676
     23 O                    -0.185785
     24 H                     0.085938
     25 H                     0.084632
     26 H                     0.080900
     27 H                     0.078278
     28 H                     0.073928
     29 H                     0.078545
     30 H                     0.073373
     31 H                     0.091387
     32 O                    -0.206952
     33 C                    -0.127373
     34 C                     0.026386
     35 C                    -0.144365
     36 C                    -0.143712
     37 C                     0.025453
     38 O                    -0.187372
     39 H                     0.082407
     40 H                     0.086914
     41 H                     0.086129
     42 H                     0.088050
     43 H                     0.077617
     44 H                     0.073276
     45 H                     0.078157
     46 H                     0.073678
     47 H                     0.085444
     48 H                     0.092471
     49 H                     0.087385
     50 H                     0.090634
     51 H                     0.088622
     52 H                     0.090053
     53 H                     0.096016
     54 H                     0.097402
     55 H                     0.091032
     56 H                     0.095124
  ----------------------------------------
  Sum of atomic charges =     0.000000

                    Cartesian Multipole Moments
 -----------------------------------------------------------------
    Charge (ESU x 10^10)
                 0.0000
    Dipole Moment (Debye)
         X       0.9548      Y       1.4431      Z      -1.3872
       Tot       2.2178
    Quadrupole Moments (Debye-Ang)
        XX    -138.0828     XY      -7.9083     YY    -160.8674
        XZ      -1.8856     YZ       2.7968     ZZ    -161.3899

 Total job time:  115.88s(wall), 5510.49s(cpu)
        *  Thank you very much for using Q-Chem.  Have a nice day.  *
