 Q-Chem 5.0, Q-Chem, Inc., Pleasanton, CA (2017)
 Q-Chem 5.0.1 for Intel X86 EM64T Linux

User input:
--------------------------------------------------------------
$molecule
0  1
O -3.94934 -3.66094 2.70899
C -3.26408 -4.56952 2.26188
C -3.36658 -6.02376 2.66595
C -4.77839 -6.60371 2.85116
C -5.93164 -5.71564 2.43955
O -7.08528 -6.1513 3.02669
C -8.07304 -5.12356 3.15843
C -9.40272 -5.726 3.60019
O -10.47347 -4.81323 3.31169
C -11.26316 -5.15352 2.26301
C -12.49599 -4.28866 2.14987
C -13.26391 -4.08114 3.46345
C -12.51888 -4.45179 4.73004
O -12.79754 -4.06412 5.85549
O -2.43454 -4.27958 1.22315
O -12.15063 -5.76998 4.72825
O -11.07519 -6.11208 1.52375
C -11.84962 -6.52735 5.84642
C -12.16444 -2.82666 1.78589
C -13.38212 -2.17515 1.133
C -14.31465 -2.0692 2.32245
C -13.38172 -2.54455 3.44368
O -12.09994 -2.15313 3.0176
H -13.13122 -4.71102 1.33784
H -14.2488 -4.59749 3.4842
H -11.2736 -2.72908 1.12723
H -13.07197 -1.14881 0.83116
H -13.80018 -2.70307 0.24903
H -14.5925 -1.00011 2.4553
H -15.22876 -2.69949 2.2678
H -13.71518 -2.12958 4.42037
O -5.93513 -5.02739 1.42596
C -2.25816 -3.01942 0.69055
C -2.79045 -7.00779 1.62596
C -2.46215 -8.34816 2.28802
C -3.8505 -8.91986 2.47139
C -4.69662 -7.7948 1.87461
O -3.8999 -7.31189 0.81921
H -2.80109 -6.09261 3.62165
H -4.96555 -6.95939 3.89053
H -1.86619 -2.32791 1.46681
H -1.88688 -6.63145 1.10064
H -1.91523 -8.98243 1.55435
H -1.86009 -8.25085 3.21709
H -3.94769 -9.82138 1.82553
H -4.12755 -9.17645 3.51665
H -5.69937 -8.18379 1.58921
H -3.22123 -2.6329 0.29388
H -1.52591 -3.07531 -0.1408
H -11.55685 -7.54811 5.52599
H -12.73824 -6.60345 6.50847
H -11.00803 -6.06903 6.40786
H -9.51511 -6.69981 3.07359
H -9.36612 -5.97461 4.67904
H -8.26505 -4.6991 2.14591
H -7.74906 -4.30115 3.83371
$end

$opt
CONSTRAINT
tors           1           2           3           4     +41.555
tors           3           4           5           6    -161.053
tors           4           5           6           7    +155.828
tors           5           6           7           8    +170.548
tors           6           7           8           9    -161.053
tors           7           8           9          10    +106.163
tors           8           9          10          11    +170.487
tors           9          10          11          12     -47.111
tors          11          12          13          14    +160.574
ENDCONSTRAINT
$end

$rem
JOBTYPE                   OPT
METHOD                    B3LYP
DFT_D                     d3_op
BASIS                     STO-3G
GEOM_OPT_MAX_CYCLES       100
GEOM_OPT_TOL_GRADIENT     300
GEOM_OPT_TOL_DISPLACEMENT 1200
GEOM_OPT_TOL_ENERGY       100
SYMMETRY                  False
THRESH                    12
SCF_CONVERGENCE           8
MAX_SUB_FILE_NUM          128
MEM_STATIC                400
MEM_TOTAL                 4000
$end
--------------------------------------------------------------

   15   -1510.1172727010      7.80E-09 Convergence criterion met
 Total energy in the final basis set = -1510.11727270
   13   -1510.1897283568      9.60E-09 Convergence criterion met
 Total energy in the final basis set = -1510.18972836
   14   -1510.2281579456      3.26E-09 Convergence criterion met
 Total energy in the final basis set = -1510.22815795
   14   -1510.2476617594      2.37E-09 Convergence criterion met
 Total energy in the final basis set = -1510.24766176
   13   -1510.2580116927      7.70E-09 Convergence criterion met
 Total energy in the final basis set = -1510.25801169
   13   -1510.2632398358      4.69E-09 Convergence criterion met
 Total energy in the final basis set = -1510.26323984
   12   -1510.2664035453      9.18E-09 Convergence criterion met
 Total energy in the final basis set = -1510.26640355
   12   -1510.2684419354      7.68E-09 Convergence criterion met
   11   -1510.2730940206      4.16E-09 Convergence criterion met
 Total energy in the final basis set = -1510.27309402
   11   -1510.2731382244      5.12E-09 Convergence criterion met
 Total energy in the final basis set = -1510.27313822
   11   -1510.2731602468      4.28E-09 Convergence criterion met
 Total energy in the final basis set = -1510.27316025
    9   -1510.2731655449      8.07E-09 Convergence criterion met
 Total energy in the final basis set = -1510.27316554
    9   -1510.2731681408      3.28E-09 Convergence criterion met
 Total energy in the final basis set = -1510.27316814
    9   -1510.2731693741      2.28E-09 Convergence criterion met
 Total energy in the final basis set = -1510.27316937

             Standard Nuclear Orientation (Angstroms)
    I     Atom           X                Y                Z
 ----------------------------------------------------------------
    1      O      -3.8103958057    -1.8401392026     1.7888307146
    2      C      -4.7138860523    -1.4225416337     1.0326327554
    3      C      -5.0109388318     0.0746333993     0.6562045307
    4      C      -3.7257457278     0.9527804394     0.3731193528
    5      C      -2.4524138604     0.1077386214     0.0074556310
    6      O      -1.2906829513     0.9296527148     0.2106503679
    7      C      -0.1005895202     0.0749164908     0.4511310226
    8      C       1.1524741132     1.0191696970     0.4181897238
    9      O       2.3845688344     0.2287012532     0.1941982218
   10      C       2.8621722068     0.4203478996    -1.1487349624
   11      C       4.2843883964    -0.2277966357    -1.2748467229
   12      C       5.2773156494     0.1402214036    -0.1005271065
   13      C       4.8857470415     1.3737940020     0.7856906856
   14      O       5.3102410066     1.6367854217     1.9309581743
   15      O      -5.6784829984    -2.2691531157     0.3988413210
   16      O       4.1053608422     2.2857990334    -0.0000931111
   17      O       2.2185203553     1.0019713300    -2.0485143479
   18      C       3.7751498685     3.4932438618     0.7887690689
   19      C       4.1654122268    -1.7998874348    -1.0445036951
   20      C       5.5469966973    -2.4890864012    -1.3867125724
   21      C       6.3884406146    -2.1551774205    -0.0983064088
   22      C       5.3723226997    -1.2378391937     0.6857962774
   23      O       4.0713044748    -1.8973813772     0.4304131235
   24      H       4.6929316248     0.0274207561    -2.2676726857
   25      H       6.2684691112     0.3864656472    -0.5280531509
   26      H       3.2799550820    -2.2646013578    -1.5205753898
   27      H       5.4148383263    -3.5748557614    -1.5167442492
   28      H       5.9962558212    -2.0767670932    -2.3046332603
   29      H       6.6104336283    -3.0645331803     0.4831224480
   30      H       7.3350328163    -1.6392629255    -0.3249528038
   31      H       5.5549449030    -1.1307726430     1.7728415230
   32      O      -2.4184143823    -1.0671231316    -0.4158576883
   33      C      -5.4103839258    -3.6840623177     0.7429498686
   34      C      -5.8620012256     0.3199809350    -0.6649805537
   35      C      -6.6009937789     1.7035484830    -0.4954958846
   36      C      -5.3856872672     2.6985878663    -0.5968977571
   37      C      -4.2015212786     1.7103044408    -0.9444128975
   38      O      -4.8499404735     0.6165866829    -1.7054451545
   39      H      -5.5485767956     0.5049173134     1.5229100946
   40      H      -3.4841244769     1.6420759908     1.2006076149
   41      H      -5.5009517682    -3.8641596870     1.8338346640
   42      H      -6.4942386277    -0.5378331080    -0.9633809334
   43      H      -7.3146818901     1.8586052510    -1.3204176313
   44      H      -7.1421082881     1.7805841019     0.4610786832
   45      H      -5.5264186634     3.4325670272    -1.4058533962
   46      H      -5.2025050624     3.2421267868     0.3440488182
   47      H      -3.3756929396     2.1570800402    -1.5318554924
   48      H      -4.3967473436    -3.9954101204     0.4176873265
   49      H      -6.1721215313    -4.2780633297     0.2051550259
   50      H       3.1283628500     4.1124304482     0.1402109781
   51      H       4.6870121130     4.0644425815     1.0589021744
   52      H       3.2317457503     3.2371588333     1.7208132544
   53      H       1.0249425883     1.7502043253    -0.4092900376
   54      H       1.2691913082     1.5503890635     1.3842378695
   55      H      -0.0078625992    -0.7003015837    -0.3413699390
   56      H      -0.1880356658    -0.4422046513     1.4311033774
 ----------------------------------------------------------------

    9   -1510.2731701290      1.73E-09 Convergence criterion met
 Total energy in the final basis set = -1510.27317013
 Final energy is   -1510.27317012899
 **  OPTIMIZATION CONVERGED  **

                    Orbital Energies (a.u.)
 --------------------------------------------------------------

 Alpha MOs
 -- Occupied --
-18.939 -18.930 -18.925 -18.921 -18.888 -18.884 -18.878 -18.876
-18.870 -18.866 -10.103 -10.097 -10.096 -10.095 -10.068 -10.066
-10.065 -10.061 -10.059 -10.059 -10.058 -10.055 -10.039 -10.038
-10.035 -10.034 -10.021 -10.020 -10.019 -10.017  -1.017  -1.008
 -1.004  -1.001  -0.970  -0.967  -0.939  -0.936  -0.931  -0.927
 -0.764  -0.760  -0.727  -0.721  -0.710  -0.705  -0.692  -0.665
 -0.656  -0.612  -0.596  -0.576  -0.546  -0.542  -0.538  -0.535
 -0.514  -0.510  -0.487  -0.469  -0.464  -0.456  -0.449  -0.445
 -0.433  -0.432  -0.428  -0.416  -0.409  -0.407  -0.406  -0.399
 -0.393  -0.378  -0.372  -0.367  -0.360  -0.355  -0.351  -0.348
 -0.341  -0.337  -0.332  -0.330  -0.327  -0.324  -0.317  -0.312
 -0.309  -0.306  -0.301  -0.296  -0.293  -0.292  -0.283  -0.277
 -0.273  -0.252  -0.251  -0.245  -0.240  -0.234  -0.231  -0.182
 -0.175  -0.170  -0.165  -0.158  -0.153  -0.149  -0.144  -0.143
 -0.140

          Ground-State Mulliken Net Atomic Charges

     Atom                 Charge (a.u.)
  ----------------------------------------
      1 O                    -0.216598
      2 C                     0.214180
      3 C                    -0.080117
      4 C                    -0.077813
      5 C                     0.214673
      6 O                    -0.181099
      7 C                    -0.048710
      8 C                    -0.051176
      9 O                    -0.172621
     10 C                     0.217638
     11 C                    -0.077744
     12 C                    -0.078094
     13 C                     0.214857
     14 O                    -0.213090
     15 O                    -0.170675
     16 O                    -0.170974
     17 O                    -0.215881
     18 C                    -0.127532
     19 C                     0.025495
     20 C                    -0.144870
     21 C                    -0.142514
     22 C                     0.025621
     23 O                    -0.185339
     24 H                     0.086504
     25 H                     0.084710
     26 H                     0.083162
     27 H                     0.078628
     28 H                     0.073821
     29 H                     0.078499
     30 H                     0.073347
     31 H                     0.089486
     32 O                    -0.202895
     33 C                    -0.127428
     34 C                     0.023515
     35 C                    -0.142741
     36 C                    -0.145046
     37 C                     0.024841
     38 O                    -0.189606
     39 H                     0.081964
     40 H                     0.085828
     41 H                     0.086973
     42 H                     0.093724
     43 H                     0.077640
     44 H                     0.072570
     45 H                     0.077936
     46 H                     0.073151
     47 H                     0.084235
     48 H                     0.093732
     49 H                     0.089334
     50 H                     0.092647
     51 H                     0.089733
     52 H                     0.089229
     53 H                     0.101201
     54 H                     0.083663
     55 H                     0.093630
     56 H                     0.086397
  ----------------------------------------
  Sum of atomic charges =    -0.000000

                    Cartesian Multipole Moments
 -----------------------------------------------------------------
    Charge (ESU x 10^10)
                 0.0000
    Dipole Moment (Debye)
         X       0.1867      Y       1.3112      Z       0.5010
       Tot       1.4160
    Quadrupole Moments (Debye-Ang)
        XX    -136.4887     XY      -4.5806     YY    -149.1513
        XZ     -13.4336     YZ       4.1379     ZZ    -167.5723

 Total job time:  59.17s(wall), 2812.94s(cpu)
        *  Thank you very much for using Q-Chem.  Have a nice day.  *
