 Q-Chem 5.0, Q-Chem, Inc., Pleasanton, CA (2017)
 Q-Chem 5.0.1 for Intel X86 EM64T Linux

User input:
--------------------------------------------------------------
$molecule
0  1
O -3.94934 -3.66094 2.70899
C -3.26408 -4.56952 2.26188
C -3.36658 -6.02376 2.66595
C -2.97353 -6.38153 4.10864
C -2.69204 -5.22192 5.03825
O -1.96948 -5.65415 6.11365
C -1.66266 -4.60916 7.0427
C -2.90347 -3.76417 7.31194
O -2.52083 -2.49537 7.86567
C -1.85265 -1.66909 7.0231
C -1.4787 -0.35329 7.66302
C -2.0398 -0.13817 9.07623
C -2.57292 -1.37508 9.77088
O -3.06551 -2.34474 9.2126
O -2.38475 -4.29044 1.26381
O -2.6905 -1.29557 11.12391
O -1.57495 -1.91868 5.85824
C -3.21651 -2.29115 11.92061
C 0.03129 -0.20113 7.88709
C 0.38622 1.28067 7.9803
C -0.22314 1.63 9.32169
C -0.70928 0.24677 9.7729
O 0.22201 -0.64299 9.20557
H -1.85087 0.43945 6.97528
H -2.79591 0.67169 9.16989
H 0.64551 -0.70148 7.10669
H 1.49474 1.34796 8.06362
H 0.0432 1.90446 7.12694
H 0.58926 1.99522 9.9888
H -1.05297 2.36885 9.29138
H -0.77679 0.22639 10.88229
O -2.57785 -4.07244 4.64793
C -2.17253 -3.03025 0.74514
C -4.82418 -6.51169 2.63479
C -4.8682 -8.03596 2.52438
C -4.43878 -8.43184 3.92155
C -4.28182 -7.05247 4.56755
O -5.28 -6.27961 3.94471
H -2.75266 -6.60792 1.9428
H -2.11086 -7.08534 4.15122
H -1.80921 -2.34553 1.54121
H -5.41886 -6.04778 1.81713
H -5.93051 -8.33783 2.38254
H -4.25125 -8.45427 1.70012
H -5.28043 -8.97529 4.40641
H -3.5116 -9.04184 3.98106
H -4.35135 -7.13784 5.67494
H -3.11326 -2.63263 0.30773
H -1.40466 -3.08989 -0.05316
H -3.18701 -1.96311 12.97983
H -2.61614 -3.22025 11.81639
H -4.27182 -2.49192 11.63729
H -3.61845 -3.51424 6.50724
H -3.53402 -4.3482 8.01904
H -0.84755 -4.02171 6.57744
H -1.23407 -5.01509 7.98322
$end

$opt
CONSTRAINT
tors           1           2           3           4     -66.316
tors           3           4           5           6    -161.053
tors           4           5           6           7    -180.000
tors           5           6           7           8     +45.743
tors           6           7           8           9    -161.053
tors           7           8           9          10     +67.891
tors           8           9          10          11    -180.000
tors           9          10          11          12      -5.959
tors          11          12          13          14     -29.697
ENDCONSTRAINT
$end

$rem
JOBTYPE                   OPT
METHOD                    B3LYP
DFT_D                     d3_op
BASIS                     STO-3G
GEOM_OPT_MAX_CYCLES       100
GEOM_OPT_TOL_GRADIENT     300
GEOM_OPT_TOL_DISPLACEMENT 1200
GEOM_OPT_TOL_ENERGY       100
SYMMETRY                  False
THRESH                    12
SCF_CONVERGENCE           8
MAX_SUB_FILE_NUM          128
MEM_STATIC                400
MEM_TOTAL                 4000
$end
--------------------------------------------------------------

   17   -1509.8660352804      9.37E-09 Convergence criterion met
 Total energy in the final basis set = -1509.86603528
   14   -1509.9996978293      8.39E-09 Convergence criterion met
 Total energy in the final basis set = -1509.99969783
   14   -1510.0951629268      8.42E-09 Convergence criterion met
 Total energy in the final basis set = -1510.09516293
   15   -1510.1602475747      2.06E-09 Convergence criterion met
 Total energy in the final basis set = -1510.16024757
   14   -1510.2009467086      9.75E-09 Convergence criterion met
 Total energy in the final basis set = -1510.20094671
   14   -1510.2260642166      6.24E-09 Convergence criterion met
 Total energy in the final basis set = -1510.22606422
   14   -1510.2404745907      3.60E-09 Convergence criterion met
 Total energy in the final basis set = -1510.24047459
   13   -1510.2488563550      9.46E-09 Convergence criterion met
    9   -1510.2661694650      4.24E-09 Convergence criterion met
 Total energy in the final basis set = -1510.26616947
    9   -1510.2661721177      3.90E-09 Convergence criterion met
 Total energy in the final basis set = -1510.26617212
    9   -1510.2661739880      5.71E-09 Convergence criterion met
 Total energy in the final basis set = -1510.26617399
    9   -1510.2661761504      5.77E-09 Convergence criterion met
 Total energy in the final basis set = -1510.26617615
    9   -1510.2661771973      4.26E-09 Convergence criterion met
 Total energy in the final basis set = -1510.26617720
    9   -1510.2661861078      5.46E-09 Convergence criterion met
 Total energy in the final basis set = -1510.26618611

             Standard Nuclear Orientation (Angstroms)
    I     Atom           X                Y                Z
 ----------------------------------------------------------------
    1      O      -3.8492871146     0.6618436553     2.2067364928
    2      C      -4.1652645523     1.2013941474     1.1259138212
    3      C      -4.7528429375     0.5115530367    -0.1620362990
    4      C      -3.7458449149    -0.4784427256    -0.8738212257
    5      C      -2.2333651142    -0.2420326989    -0.5324537124
    6      O      -1.4880159139    -0.8881870308    -1.5659699949
    7      C      -0.0088794653    -0.7873227034    -1.4375011010
    8      C       0.5950753703    -1.0707387548    -0.0019821752
    9      O       1.9648172291    -0.5237905651     0.1436308880
   10      C       1.9828848884     0.9030232650     0.1347265606
   11      C       3.4616292033     1.4289086623     0.2924203092
   12      C       4.5709284093     0.3420171640     0.5693850903
   13      C       4.1496148604    -0.8796369324     1.4616671834
   14      O       3.2950932069    -0.9065001813     2.3723243622
   15      O      -4.0290826379     2.6027875108     0.8535218819
   16      O       4.9525913923    -2.0075734600     1.0872513767
   17      O       0.9721204108     1.6257313983    -0.0073553488
   18      C       4.5954171376    -3.1788212419     1.9189646884
   19      C       3.8814409917     1.8328599574    -1.1919933723
   20      C       5.3431154075     2.4339755415    -1.2332134502
   21      C       6.2227426832     1.1279698318    -1.1888974739
   22      C       5.1094415086     0.0496105746    -0.9025325660
   23      O       4.0174878159     0.4860793381    -1.8049947395
   24      H       3.4826292922     2.2695205307     1.0078347114
   25      H       5.3843073893     0.8356108813     1.1366077309
   26      H       3.1141140201     2.4271223635    -1.7257071464
   27      H       5.5021589337     3.0047576415    -2.1617489078
   28      H       5.5325697522     3.0995743248    -0.3754834650
   29      H       6.7004213857     0.9353681871    -2.1632000285
   30      H       7.0016974632     1.1580221167    -0.4102245841
   31      H       5.3852441390    -1.0051999243    -1.0928653527
   32      O      -1.7556464428     0.4220116482     0.4144877893
   33      C      -3.3780181482     3.2716663920     2.0029033489
   34      C      -5.8642361520    -0.5253137493     0.3015243571
   35      C      -6.5902504129    -1.1398718284    -0.9629253881
   36      C      -5.5315143036    -2.2004681647    -1.4460871222
   37      C      -4.3432510059    -1.8975710803    -0.4527206632
   38      O      -5.0415465856    -1.6424233518     0.8251220435
   39      H      -5.1305731555     1.2864558660    -0.8510901820
   40      H      -3.8269142812    -0.3690573528    -1.9704991307
   41      H      -2.3686586221     2.8519893940     2.1912676005
   42      H      -6.5402826317    -0.1443872396     1.0911594302
   43      H      -7.5394463445    -1.6164364930    -0.6717558276
   44      H      -6.7989726817    -0.3736223948    -1.7265747879
   45      H      -5.8983318959    -3.2292994305    -1.3002415561
   46      H      -5.2437100780    -2.0721854317    -2.5016572838
   47      H      -3.5948725910    -2.7057898753    -0.3397380230
   48      H      -3.9795828114     3.1735702537     2.9298501698
   49      H      -3.2920836745     4.3391360157     1.7285570014
   50      H       5.2511646608    -4.0032316983     1.5832368556
   51      H       3.5339222672    -3.4691740391     1.7800499658
   52      H       4.7667448544    -2.9844405828     2.9975660336
   53      H      -0.0886839261    -0.5954377706     0.7346832377
   54      H       0.6841531740    -2.1570715706     0.1906809070
   55      H       0.2990923482     0.2395657933    -1.7323335593
   56      H       0.3891425095    -1.5050508491    -2.1824389841
 ----------------------------------------------------------------

    9   -1510.2661870031      5.47E-09 Convergence criterion met
 Total energy in the final basis set = -1510.26618700
 Final energy is   -1510.26618700313
 **  OPTIMIZATION CONVERGED  **

                    Orbital Energies (a.u.)
 --------------------------------------------------------------

 Alpha MOs
 -- Occupied --
-18.936 -18.934 -18.930 -18.918 -18.886 -18.885 -18.883 -18.869
-18.868 -18.858 -10.104 -10.097 -10.097 -10.084 -10.069 -10.063
-10.062 -10.060 -10.059 -10.058 -10.056 -10.050 -10.037 -10.035
-10.035 -10.031 -10.021 -10.019 -10.019 -10.018  -1.014  -1.009
 -1.003  -0.994  -0.970  -0.968  -0.941  -0.935  -0.929  -0.919
 -0.762  -0.760  -0.726  -0.720  -0.709  -0.704  -0.692  -0.659
 -0.651  -0.618  -0.595  -0.582  -0.543  -0.543  -0.537  -0.535
 -0.511  -0.508  -0.484  -0.466  -0.460  -0.456  -0.447  -0.443
 -0.435  -0.430  -0.426  -0.408  -0.406  -0.403  -0.398  -0.393
 -0.386  -0.376  -0.374  -0.366  -0.362  -0.355  -0.347  -0.344
 -0.341  -0.338  -0.330  -0.329  -0.326  -0.324  -0.316  -0.311
 -0.311  -0.306  -0.302  -0.300  -0.298  -0.290  -0.276  -0.271
 -0.269  -0.260  -0.250  -0.241  -0.234  -0.231  -0.230  -0.191
 -0.174  -0.168  -0.161  -0.151  -0.149  -0.146  -0.143  -0.140
 -0.134

          Ground-State Mulliken Net Atomic Charges

     Atom                 Charge (a.u.)
  ----------------------------------------
      1 O                    -0.209320
      2 C                     0.212707
      3 C                    -0.080026
      4 C                    -0.079696
      5 C                     0.214069
      6 O                    -0.172796
      7 C                    -0.053974
      8 C                    -0.058732
      9 O                    -0.167828
     10 C                     0.214854
     11 C                    -0.075840
     12 C                    -0.079752
     13 C                     0.216884
     14 O                    -0.213651
     15 O                    -0.173040
     16 O                    -0.173605
     17 O                    -0.213845
     18 C                    -0.127956
     19 C                     0.022745
     20 C                    -0.145864
     21 C                    -0.141172
     22 C                     0.024014
     23 O                    -0.194180
     24 H                     0.087916
     25 H                     0.081723
     26 H                     0.083634
     27 H                     0.078216
     28 H                     0.074017
     29 H                     0.077387
     30 H                     0.073548
     31 H                     0.091738
     32 O                    -0.201340
     33 C                    -0.128773
     34 C                     0.025990
     35 C                    -0.145525
     36 C                    -0.141876
     37 C                     0.026321
     38 O                    -0.184235
     39 H                     0.085205
     40 H                     0.085760
     41 H                     0.095269
     42 H                     0.083288
     43 H                     0.077741
     44 H                     0.073530
     45 H                     0.077609
     46 H                     0.073942
     47 H                     0.083747
     48 H                     0.085534
     49 H                     0.086577
     50 H                     0.088913
     51 H                     0.088778
     52 H                     0.088235
     53 H                     0.112714
     54 H                     0.086957
     55 H                     0.093886
     56 H                     0.089580
  ----------------------------------------
  Sum of atomic charges =     0.000000

                    Cartesian Multipole Moments
 -----------------------------------------------------------------
    Charge (ESU x 10^10)
                 0.0000
    Dipole Moment (Debye)
         X       1.6134      Y      -0.1564      Z      -2.0995
       Tot       2.6524
    Quadrupole Moments (Debye-Ang)
        XX    -137.7454     XY       0.4642     YY    -150.1899
        XZ      11.1746     YZ       2.4914     ZZ    -164.7034

 Total job time:  106.98s(wall), 5090.75s(cpu)
        *  Thank you very much for using Q-Chem.  Have a nice day.  *
