 Q-Chem 5.0, Q-Chem, Inc., Pleasanton, CA (2017)
 Q-Chem 5.0.1 for Intel X86 EM64T Linux

User input:
--------------------------------------------------------------
$molecule
0  1
O -3.8492871146 0.6618436553 2.2067364928
C -4.1652645523 1.2013941474 1.1259138212
C -4.7528429375 0.5115530367 -0.162036299
C -3.7458449149 -0.4784427256 -0.8738212257
C -2.2333651142 -0.2420326989 -0.5324537124
O -1.4880159139 -0.8881870308 -1.5659699949
C -0.0088794653 -0.7873227034 -1.437501101
C 0.5950753703 -1.0707387548 -0.0019821752
O 1.9648172291 -0.5237905651 0.143630888
C 1.9828848884 0.903023265 0.1347265606
C 3.4616292033 1.4289086623 0.2924203092
C 4.5709284093 0.342017164 0.5693850903
C 4.1496148604 -0.8796369324 1.4616671834
O 3.2950932069 -0.9065001813 2.3723243622
O -4.0290826379 2.6027875108 0.8535218819
O 4.9525913923 -2.00757346 1.0872513767
O 0.9721204108 1.6257313983 -0.0073553488
C 4.5954171376 -3.1788212419 1.9189646884
C 3.8814409917 1.8328599574 -1.1919933723
C 5.3431154075 2.4339755415 -1.2332134502
C 6.2227426832 1.1279698318 -1.1888974739
C 5.1094415086 0.0496105746 -0.902532566
O 4.0174878159 0.4860793381 -1.8049947395
H 3.4826292922 2.2695205307 1.0078347114
H 5.3843073893 0.8356108813 1.1366077309
H 3.1141140201 2.4271223635 -1.7257071464
H 5.5021589337 3.0047576415 -2.1617489078
H 5.5325697522 3.0995743248 -0.375483465
H 6.7004213857 0.9353681871 -2.1632000285
H 7.0016974632 1.1580221167 -0.4102245841
H 5.385244139 -1.0051999243 -1.0928653527
O -1.7556464428 0.4220116482 0.4144877893
C -3.3780181482 3.271666392 2.0029033489
C -5.864236152 -0.5253137493 0.3015243571
C -6.5902504129 -1.1398718284 -0.9629253881
C -5.5315143036 -2.2004681647 -1.4460871222
C -4.3432510059 -1.8975710803 -0.4527206632
O -5.0415465856 -1.6424233518 0.8251220435
H -5.1305731555 1.286455866 -0.851090182
H -3.8269142812 -0.3690573528 -1.9704991307
H -2.3686586221 2.851989394 2.1912676005
H -6.5402826317 -0.1443872396 1.0911594302
H -7.5394463445 -1.616436493 -0.6717558276
H -6.7989726817 -0.3736223948 -1.7265747879
H -5.8983318959 -3.2292994305 -1.3002415561
H -5.243710078 -2.0721854317 -2.5016572838
H -3.594872591 -2.7057898753 -0.339738023
H -3.9795828114 3.1735702537 2.9298501698
H -3.2920836745 4.3391360157 1.7285570014
H 5.2511646608 -4.0032316983 1.5832368556
H 3.5339222672 -3.4691740391 1.7800499658
H 4.7667448544 -2.9844405828 2.9975660336
H -0.0886839261 -0.5954377706 0.7346832377
H 0.684153174 -2.1570715706 0.190680907
H 0.2990923482 0.2395657933 -1.7323335593
H 0.3891425095 -1.5050508491 -2.1824389841
$end

$rem
JOBTYPE                   OPT
METHOD                    B3LYP
DFT_D                     d3_op
BASIS                     STO-3G
GEOM_OPT_MAX_CYCLES       100
GEOM_OPT_TOL_GRADIENT     300
GEOM_OPT_TOL_DISPLACEMENT 1200
GEOM_OPT_TOL_ENERGY       100
SYMMETRY                  False
THRESH                    12
SCF_CONVERGENCE           8
MAX_SUB_FILE_NUM          128
MEM_STATIC                400
MEM_TOTAL                 4000
$end
--------------------------------------------------------------

   16   -1510.2662507654      5.76E-09 Convergence criterion met
 Total energy in the final basis set = -1510.26625077
   13   -1510.2692685185      4.98E-09 Convergence criterion met
 Total energy in the final basis set = -1510.26926852
   12   -1510.2721101644      6.23E-09 Convergence criterion met
 Total energy in the final basis set = -1510.27211016
   12   -1510.2745124414      9.10E-09 Convergence criterion met
 Total energy in the final basis set = -1510.27451244
   13   -1510.2766818121      3.19E-09 Convergence criterion met
 Total energy in the final basis set = -1510.27668181
   13   -1510.2786679234      5.05E-09 Convergence criterion met
 Total energy in the final basis set = -1510.27866792
   13   -1510.2804771666      6.19E-09 Convergence criterion met
 Total energy in the final basis set = -1510.28047717
   13   -1510.2819098205      4.31E-09 Convergence criterion met
   13   -1510.2862160809      4.67E-09 Convergence criterion met
 Total energy in the final basis set = -1510.28621608
   12   -1510.2864026541      8.96E-09 Convergence criterion met
 Total energy in the final basis set = -1510.28640265
   13   -1510.2865148041      4.58E-09 Convergence criterion met
 Total energy in the final basis set = -1510.28651480
   14   -1510.2864827642      2.71E-09 Convergence criterion met
 Total energy in the final basis set = -1510.28648276
   13   -1510.2865807440      4.04E-09 Convergence criterion met
 Total energy in the final basis set = -1510.28658074
   12   -1510.2866125916      4.21E-09 Convergence criterion met
 Total energy in the final basis set = -1510.28661259

             Standard Nuclear Orientation (Angstroms)
    I     Atom           X                Y                Z
 ----------------------------------------------------------------
    1      O      -4.0394535875     0.9566181574     2.3541361398
    2      C      -4.3150457748     1.2241268543     1.1657016409
    3      C      -4.8610915321     0.2339878890     0.0689450111
    4      C      -3.7993653227    -0.1922712086    -1.0246365333
    5      C      -2.3722799930     0.3871978860    -0.7472379006
    6      O      -1.5021323167    -0.0225992400    -1.8053283934
    7      C      -0.1298242314     0.4961113015    -1.5805987728
    8      C       0.6075270592    -0.2791900031    -0.4222223787
    9      O       2.0747482684    -0.0806852631    -0.4744927053
   10      C       2.4289159518     1.2332087641    -0.0164747608
   11      C       3.9886152485     1.3373885916    -0.0053670490
   12      C       4.7092413058     0.1199076199     0.7195174734
   13      C       3.6873593034    -0.8956214317     1.3550231790
   14      O       2.8915486436    -0.6482223426     2.2876302587
   15      O      -4.3268824104     2.5464192372     0.6066965619
   16      O       3.8233484345    -2.1806194195     0.7409553790
   17      O       1.6029388098     2.1185261711     0.2922762799
   18      C       2.8463829239    -3.1237704590     1.3306674980
   19      C       4.5926776480     1.2011067767    -1.4732206227
   20      C       6.0899409216     1.7015197131    -1.4350430413
   21      C       6.7965258371     0.4889170508    -0.7240417620
   22      C       5.5706519180    -0.4747486342    -0.4718552351
   23      O       4.7125120484    -0.2606159409    -1.6610673204
   24      H       4.2574712576     2.3038450038     0.4550679614
   25      H       5.3545174063     0.4931297663     1.5361953180
   26      H       3.9667556027     1.6465294137    -2.2708274555
   27      H       6.4724039873     1.8506651618    -2.4573644531
   28      H       6.1962655951     2.6452461645    -0.8765885637
   29      H       7.5335332453     0.0079496170    -1.3864338548
   30      H       7.2988714423     0.7777651147     0.2128621706
   31      H       5.8179982811    -1.5475287865    -0.3622396105
   32      O      -2.0109837693     1.0763435536     0.2330660844
   33      C      -3.7471633933     3.5007361810     1.5771977907
   34      C      -5.2320359554    -1.1763619350     0.6933443809
   35      C      -6.1798152029    -1.9326398178    -0.3182074551
   36      C      -5.1585699604    -2.3344949917    -1.4460466419
   37      C      -3.8072524357    -1.7734975805    -0.8493795933
   38      O      -3.9647654014    -1.9419401870     0.6118404519
   39      H      -5.7353204840     0.7089740781    -0.4114169433
   40      H      -4.1104934447     0.1000237488    -2.0438773987
   41      H      -2.6724166768     3.2872873355     1.7517406159
   42      H      -5.5835435381    -1.1283940956     1.7421566698
   43      H      -6.6232863439    -2.8211473322     0.1590137952
   44      H      -6.9921883671    -1.2875223308    -0.6890814782
   45      H      -5.1011277370    -3.4273511795    -1.5719565314
   46      H      -5.3970397248    -1.8779441172    -2.4198061391
   47      H      -2.8865319659    -2.2735707256    -1.2080474436
   48      H      -4.2767175235     3.4677419056     2.5511537494
   49      H      -3.8569635909     4.5044097771     1.1268755201
   50      H       2.9665551496    -4.0731099058     0.7769870994
   51      H       1.8065042761    -2.7557800148     1.2182224453
   52      H       3.0422854772    -3.2955970003     2.4090928932
   53      H       0.1945459069     0.0465816593     0.5561302873
   54      H       0.4515405463    -1.3696684020    -0.5474154659
   55      H      -0.1465704954     1.5790625793    -1.3354898384
   56      H       0.4069222591     0.3370237994    -2.5375371297
 ----------------------------------------------------------------

   11   -1510.2866124867      6.45E-09 Convergence criterion met
 Total energy in the final basis set = -1510.28661249
 Final energy is   -1510.28661248671
 **  OPTIMIZATION CONVERGED  **

                    Orbital Energies (a.u.)
 --------------------------------------------------------------

 Alpha MOs
 -- Occupied --
-18.942 -18.938 -18.932 -18.915 -18.888 -18.887 -18.886 -18.880
-18.865 -18.857 -10.106 -10.102 -10.096 -10.086 -10.073 -10.071
-10.062 -10.062 -10.061 -10.058 -10.055 -10.049 -10.040 -10.038
-10.036 -10.031 -10.021 -10.020 -10.020 -10.018  -1.021  -1.015
 -1.005  -0.994  -0.970  -0.969  -0.945  -0.939  -0.931  -0.920
 -0.764  -0.761  -0.728  -0.722  -0.711  -0.706  -0.694  -0.659
 -0.650  -0.619  -0.596  -0.584  -0.546  -0.544  -0.537  -0.536
 -0.514  -0.509  -0.488  -0.474  -0.468  -0.456  -0.452  -0.437
 -0.434  -0.430  -0.427  -0.412  -0.406  -0.404  -0.399  -0.395
 -0.394  -0.382  -0.374  -0.365  -0.361  -0.357  -0.353  -0.345
 -0.342  -0.338  -0.333  -0.330  -0.329  -0.324  -0.322  -0.313
 -0.309  -0.307  -0.304  -0.302  -0.296  -0.290  -0.277  -0.274
 -0.271  -0.262  -0.251  -0.245  -0.240  -0.234  -0.233  -0.196
 -0.173  -0.170  -0.160  -0.159  -0.157  -0.148  -0.144  -0.142
 -0.137

          Ground-State Mulliken Net Atomic Charges

     Atom                 Charge (a.u.)
  ----------------------------------------
      1 O                    -0.216790
      2 C                     0.215685
      3 C                    -0.081646
      4 C                    -0.077848
      5 C                     0.214549
      6 O                    -0.171237
      7 C                    -0.053753
      8 C                    -0.053204
      9 O                    -0.167899
     10 C                     0.210434
     11 C                    -0.079349
     12 C                    -0.078000
     13 C                     0.212635
     14 O                    -0.221357
     15 O                    -0.176815
     16 O                    -0.167121
     17 O                    -0.207456
     18 C                    -0.126854
     19 C                     0.025777
     20 C                    -0.143787
     21 C                    -0.144346
     22 C                     0.024682
     23 O                    -0.186228
     24 H                     0.086153
     25 H                     0.083965
     26 H                     0.081024
     27 H                     0.077830
     28 H                     0.074198
     29 H                     0.077793
     30 H                     0.073413
     31 H                     0.092158
     32 O                    -0.203004
     33 C                    -0.128909
     34 C                     0.024835
     35 C                    -0.143915
     36 C                    -0.143841
     37 C                     0.024715
     38 O                    -0.189768
     39 H                     0.083418
     40 H                     0.087142
     41 H                     0.093677
     42 H                     0.089460
     43 H                     0.077867
     44 H                     0.073395
     45 H                     0.077872
     46 H                     0.073547
     47 H                     0.083845
     48 H                     0.086842
     49 H                     0.085343
     50 H                     0.089924
     51 H                     0.089096
     52 H                     0.088099
     53 H                     0.103729
     54 H                     0.088846
     55 H                     0.100055
     56 H                     0.091123
  ----------------------------------------
  Sum of atomic charges =     0.000000

                    Cartesian Multipole Moments
 -----------------------------------------------------------------
    Charge (ESU x 10^10)
                 0.0000
    Dipole Moment (Debye)
         X       0.8644      Y      -0.2482      Z      -2.5843
       Tot       2.7364
    Quadrupole Moments (Debye-Ang)
        XX    -135.3392     XY       4.6318     YY    -153.8989
        XZ       8.9759     YZ      -1.9943     ZZ    -166.1205

 Total job time:  58.56s(wall), 2783.58s(cpu)
        *  Thank you very much for using Q-Chem.  Have a nice day.  *
