 Q-Chem 5.0, Q-Chem, Inc., Pleasanton, CA (2017)
 Q-Chem 5.0.1 for Intel X86 EM64T Linux

User input:
--------------------------------------------------------------
$molecule
0  1
O -5.7183633006 0.5373707218 1.5107528315
C -5.446314358 0.8941391828 0.3457038745
C -4.7519976487 0.0687363279 -0.7932148124
C -3.2335581951 -0.3177881585 -0.53569392
C -2.5525447736 0.309668344 0.7273348822
O -1.1951387829 0.5989216031 0.3592879563
C -0.4675835713 1.2007456756 1.5029945325
C 1.0657434574 0.8751705277 1.3118858745
O 1.2003884646 -0.2797672104 0.3883787592
C 2.2611260079 -0.007364621 -0.5627779461
C 3.4729837917 -1.0047743618 -0.403933115
C 4.8858434833 -0.3299419802 -0.651145303
C 4.8352220767 1.2377851528 -0.686568671
O 4.2229023594 1.9975774525 0.0954916533
O -5.7348085558 2.2015597274 -0.1758984605
O 5.6525609829 1.6898231138 -1.7713068404
O 2.1893622181 0.8959377965 -1.4221117902
C 5.631200272 3.1699113355 -1.8358426973
C 3.6491786006 -1.5995338915 1.0542584408
C 4.4853320929 -2.9309125781 0.9326028938
C 5.9091318615 -2.354986802 0.5888684363
C 5.6435746649 -0.7984912673 0.6698421036
O 4.5957407118 -0.6650859488 1.7079075314
H 3.3208824296 -1.8243182149 -1.1321121011
H 5.3728087063 -0.6961101049 -1.571239616
H 2.7015773527 -1.6686352062 1.6221425495
H 4.4906183149 -3.4699056334 1.8934403707
H 4.0940447921 -3.6024511672 0.15175206
H 6.6612769454 -2.6578771961 1.3345210075
H 6.2608188422 -2.6589024703 -0.4102318466
H 6.5280587483 -0.1852931955 0.9308417093
O -3.020896717 0.5076575207 1.8683649642
C -6.3767165438 3.0291405155 0.871003934
C -5.4052493857 -1.3793033987 -0.8807463371
C -4.9615648518 -2.0610673654 -2.2357648613
C -3.4812948786 -2.4749970899 -1.8998910432
C -3.3366667879 -1.9069996269 -0.4332922749
O -4.6720307073 -2.1394068215 0.1565957351
H -4.8583604742 0.6322243413 -1.736785608
H -2.61371944 -0.0321956584 -1.4037570418
H -5.7340234879 3.1194722397 1.7703765755
H -6.4931283421 -1.4019878919 -0.6764916256
H -5.589858628 -2.9400819448 -2.4508191486
H -5.0250362667 -1.3654475042 -3.0878090466
H -3.358649496 -3.5699436235 -1.9001933497
H -2.7459166446 -2.0355602109 -2.5924549965
H -2.5485202011 -2.3816907351 0.1826839943
H -7.3553329318 2.6090003266 1.1817290643
H -6.5303092664 4.0273725666 0.4214437637
H 6.243778663 3.4464454585 -2.7135266061
H 6.0653066002 3.6250031644 -0.9220368167
H 4.599068072 3.5545340398 -1.9646944293
H 1.5936902488 1.7663844061 0.9120147878
H 1.5240080245 0.6124190816 2.2916329608
H -0.8632995049 0.7832031475 2.4533037951
H -0.6272286629 2.3008562372 1.5202763673
$end

$rem
JOBTYPE                   OPT
METHOD                    B3LYP
DFT_D                     d3_op
BASIS                     STO-3G
GEOM_OPT_MAX_CYCLES       100
GEOM_OPT_TOL_GRADIENT     300
GEOM_OPT_TOL_DISPLACEMENT 1200
GEOM_OPT_TOL_ENERGY       100
SYMMETRY                  False
THRESH                    12
SCF_CONVERGENCE           8
MAX_SUB_FILE_NUM          128
MEM_STATIC                400
MEM_TOTAL                 4000
$end
--------------------------------------------------------------

   16   -1510.2555119103      6.73E-09 Convergence criterion met
 Total energy in the final basis set = -1510.25551191
   14   -1510.2591248412      4.89E-09 Convergence criterion met
 Total energy in the final basis set = -1510.25912484
   14   -1510.2632121195      8.82E-09 Convergence criterion met
 Total energy in the final basis set = -1510.26321212
   15   -1510.2656943355      5.53E-09 Convergence criterion met
 Total energy in the final basis set = -1510.26569434
   14   -1510.2700054728      4.69E-09 Convergence criterion met
 Total energy in the final basis set = -1510.27000547
   14   -1510.2733226052      4.48E-09 Convergence criterion met
 Total energy in the final basis set = -1510.27332261
   13   -1510.2754478361      8.28E-09 Convergence criterion met
 Total energy in the final basis set = -1510.27544784
   13   -1510.2774630445      8.05E-09 Convergence criterion met
   14   -1510.3057788193      6.00E-09 Convergence criterion met
 Total energy in the final basis set = -1510.30577882
   13   -1510.3064337254      4.43E-09 Convergence criterion met
 Total energy in the final basis set = -1510.30643373
   12   -1510.3064127400      8.22E-09 Convergence criterion met
 Total energy in the final basis set = -1510.30641274
   12   -1510.3064739412      4.60E-09 Convergence criterion met
 Total energy in the final basis set = -1510.30647394
   11   -1510.3064749921      3.91E-09 Convergence criterion met
 Total energy in the final basis set = -1510.30647499
   10   -1510.3064761339      9.28E-09 Convergence criterion met
 Total energy in the final basis set = -1510.30647613

             Standard Nuclear Orientation (Angstroms)
    I     Atom           X                Y                Z
 ----------------------------------------------------------------
    1      O      -2.1541913366    -1.8834381576     1.4377847868
    2      C      -2.8931083049    -1.1567065124     0.7369418891
    3      C      -2.9089813728    -1.0578894621    -0.8326068203
    4      C      -2.3046570795     0.2843203072    -1.4166637283
    5      C      -1.8148458487     1.2740297318    -0.3062261415
    6      O      -1.5888057642     2.5495921042    -0.9095002545
    7      C      -1.0191062322     3.5160285374     0.0635803833
    8      C       0.5556262606     3.5390273656    -0.0093247111
    9      O       1.1046926661     2.2983501829     0.5772480569
   10      C       1.2260239340     1.2887360536    -0.4381245452
   11      C       1.3354457345    -0.1353804244     0.2168771861
   12      C       2.7486324380    -0.8183410152     0.0509831443
   13      C       3.8249644675     0.2174497472    -0.4092968729
   14      O       3.6556064009     1.4529390232    -0.5387030847
   15      O      -3.9904895372    -0.3916375186     1.2476932918
   16      O       5.0679826525    -0.4461859357    -0.6352950135
   17      O       1.0588843993     1.5282533574    -1.6613164058
   18      C       6.1029604078     0.5394400897    -1.0279020319
   19      C       1.1698703658    -0.1462010151     1.7958731098
   20      C       0.7084193626    -1.5868546502     2.2283953018
   21      C       2.0125370342    -2.4131762308     1.9309275237
   22      C       3.0296665937    -1.2608152462     1.5508170733
   23      O       2.5611748595    -0.0814160276     2.3123015970
   24      H       0.5475613774    -0.7544617508    -0.2787398563
   25      H       2.7347462876    -1.6763820513    -0.6448844652
   26      H       0.5614529311     0.6901212377     2.1882910033
   27      H       0.4793748489    -1.5919549191     3.3060951390
   28      H      -0.1916274192    -1.9230441939     1.6812531579
   29      H       2.3618928141    -2.9640034158     2.8184200039
   30      H       1.8819454663    -3.1264822210     1.1013438078
   31      H       4.0944359296    -1.4741841659     1.7686894942
   32      O      -1.6390881539     1.0138633871     0.9067251437
   33      C      -3.9721816344    -0.4225018534     2.7273969968
   34      C      -1.9383420497    -2.1335001813    -1.4713981266
   35      C      -2.2781454236    -2.2767701434    -3.0052727349
   36      C      -1.6711058481    -0.9409204262    -3.5818592799
   37      C      -1.0867233243    -0.2760734370    -2.2790342678
   38      O      -0.6271818294    -1.4419082883    -1.4860876256
   39      H      -3.9520032484    -1.1913554376    -1.1711779576
   40      H      -3.0285410143     0.8146908244    -2.0600294643
   41      H      -3.0594322921     0.0674792396     3.1240388047
   42      H      -1.8692742216    -3.0787023473    -0.8987089720
   43      H      -1.7790083146    -3.1627455967    -3.4291576066
   44      H      -3.3620820353    -2.3634702915    -3.1824809231
   45      H      -0.8648511225    -1.1442950416    -4.3044976827
   46      H      -2.4281298235    -0.3050808264    -4.0677141259
   47      H      -0.2399922759     0.4454317162    -2.3889368869
   48      H      -4.0137471250    -1.4608781161     3.1148699928
   49      H      -4.8675004161     0.1353855313     3.0578368165
   50      H       7.0384562833    -0.0353894221    -1.1564006924
   51      H       6.2443082267     1.3133065557    -0.2462273859
   52      H       5.8428766389     1.0445452142    -1.9805925955
   53      H       0.8794710991     3.6409070998    -1.0671232715
   54      H       0.9399280653     4.3841952292     0.5967925112
   55      H      -1.3405613477     3.2494197096     1.0932125337
   56      H      -1.4208672529     4.5116613156    -0.2157698171
 ----------------------------------------------------------------

    9   -1510.3064761217      5.73E-09 Convergence criterion met
 Total energy in the final basis set = -1510.30647612
 Final energy is   -1510.30647612170
 **  OPTIMIZATION CONVERGED  **

                    Orbital Energies (a.u.)
 --------------------------------------------------------------

 Alpha MOs
 -- Occupied --
-18.941 -18.936 -18.928 -18.921 -18.897 -18.885 -18.877 -18.869
-18.866 -18.855 -10.107 -10.098 -10.096 -10.089 -10.073 -10.066
-10.063 -10.062 -10.058 -10.049 -10.045 -10.039 -10.037 -10.032
-10.025 -10.022 -10.019 -10.004 -10.001  -9.987  -1.021  -1.011
 -1.005  -0.996  -0.975  -0.951  -0.944  -0.935  -0.931  -0.923
 -0.765  -0.745  -0.725  -0.714  -0.703  -0.700  -0.683  -0.658
 -0.658  -0.614  -0.589  -0.572  -0.545  -0.538  -0.528  -0.516
 -0.511  -0.500  -0.485  -0.470  -0.462  -0.455  -0.449  -0.438
 -0.430  -0.426  -0.417  -0.414  -0.408  -0.406  -0.402  -0.395
 -0.391  -0.378  -0.368  -0.366  -0.358  -0.355  -0.351  -0.345
 -0.342  -0.340  -0.332  -0.327  -0.324  -0.316  -0.313  -0.306
 -0.305  -0.302  -0.293  -0.287  -0.282  -0.276  -0.273  -0.271
 -0.260  -0.255  -0.250  -0.247  -0.234  -0.232  -0.212  -0.191
 -0.177  -0.170  -0.164  -0.153  -0.152  -0.150  -0.149  -0.140
 -0.125

          Ground-State Mulliken Net Atomic Charges

     Atom                 Charge (a.u.)
  ----------------------------------------
      1 O                    -0.218673
      2 C                     0.219385
      3 C                    -0.082166
      4 C                    -0.079971
      5 C                     0.211963
      6 O                    -0.168567
      7 C                    -0.053472
      8 C                    -0.052224
      9 O                    -0.169503
     10 C                     0.216506
     11 C                    -0.099596
     12 C                    -0.078007
     13 C                     0.214984
     14 O                    -0.206960
     15 O                    -0.173074
     16 O                    -0.167794
     17 O                    -0.235325
     18 C                    -0.128043
     19 C                     0.021769
     20 C                    -0.152191
     21 C                    -0.145006
     22 C                     0.023903
     23 O                    -0.196784
     24 H                     0.112198
     25 H                     0.086344
     26 H                     0.091135
     27 H                     0.069876
     28 H                     0.095916
     29 H                     0.072486
     30 H                     0.071151
     31 H                     0.079489
     32 O                    -0.211109
     33 C                    -0.128241
     34 C                     0.025926
     35 C                    -0.143670
     36 C                    -0.143884
     37 C                     0.011165
     38 O                    -0.192628
     39 H                     0.085458
     40 H                     0.088167
     41 H                     0.093465
     42 H                     0.088593
     43 H                     0.078279
     44 H                     0.073744
     45 H                     0.079620
     46 H                     0.074353
     47 H                     0.113980
     48 H                     0.088405
     49 H                     0.087729
     50 H                     0.090935
     51 H                     0.091337
     52 H                     0.089920
     53 H                     0.102096
     54 H                     0.089641
     55 H                     0.097784
     56 H                     0.089186
  ----------------------------------------
  Sum of atomic charges =    -0.000000

                    Cartesian Multipole Moments
 -----------------------------------------------------------------
    Charge (ESU x 10^10)
                -0.0000
    Dipole Moment (Debye)
         X      -1.7330      Y       0.1415      Z      -1.4843
       Tot       2.2862
    Quadrupole Moments (Debye-Ang)
        XX    -144.9913     XY      -0.9894     YY    -152.1974
        XZ      -2.7929     YZ       3.5901     ZZ    -159.3503

 Total job time:  148.54s(wall), 7064.57s(cpu)
        *  Thank you very much for using Q-Chem.  Have a nice day.  *
