 Q-Chem 5.0, Q-Chem, Inc., Pleasanton, CA (2017)
 Q-Chem 5.0.1 for Intel X86 EM64T Linux

User input:
--------------------------------------------------------------
$molecule
0  1
O -3.94934 -3.66094 2.70899
C -3.26408 -4.56952 2.26188
C -3.36658 -6.02376 2.66595
C -2.97353 -6.38153 4.10864
C -2.69204 -5.22192 5.03825
O -1.66534 -5.54109 5.88052
C -1.33898 -4.48884 6.79459
C -0.7062 -5.0662 8.05648
O -1.03862 -6.4582 8.17781
C -0.01521 -7.27311 8.53516
C -0.22316 -7.92252 9.88263
C 1.05081 -8.09144 10.72331
C 2.25272 -7.28697 10.27062
O 2.23288 -6.11227 9.93259
O -2.38468 -4.29043 1.26381
O 3.42118 -7.97358 10.17131
O 0.77191 -7.70474 7.70606
C 4.61417 -7.42091 9.75486
C -1.11363 -7.14071 10.87842
C -1.68174 -8.09821 11.92662
C -0.44242 -8.39274 12.74378
C 0.56779 -7.4751 12.04962
O -0.20426 -6.37661 11.62814
H -0.69246 -8.9094 9.67045
H 1.36265 -9.15204 10.85396
H -1.95045 -6.58253 10.40813
H -2.39083 -7.51703 12.55902
H -2.20359 -8.98904 11.51548
H -0.61962 -8.04835 13.78707
H -0.11249 -9.45416 12.74457
H 1.41155 -7.24095 12.73663
O -3.43936 -4.2615 5.18615
C -2.17577 -3.03131 0.74116
C -4.82243 -6.51412 2.62396
C -4.86303 -8.03909 2.51869
C -4.45272 -8.42792 3.92319
C -4.29228 -7.045 4.56073
O -5.28697 -6.27533 3.92851
H -2.74585 -6.60393 1.94549
H -2.13794 -7.11696 4.16605
H -1.81512 -2.34274 1.53503
H -5.41023 -6.05347 1.79954
H -5.92125 -8.34738 2.36142
H -4.23034 -8.45545 1.70541
H -5.30638 -8.95603 4.40417
H -3.53526 -9.05067 3.99794
H -4.36852 -7.12473 5.66823
H -3.11734 -2.63806 0.3016
H -1.40713 -3.09135 -0.05638
H 5.40172 -8.20193 9.7695
H 4.9136 -6.59807 10.43886
H 4.5151 -7.03147 8.71904
H 0.39701 -4.95971 7.92852
H -0.9822 -4.48443 8.9634
H -2.2905 -4.07534 7.20372
H -0.7804 -3.64284 6.33814
$end

$opt
CONSTRAINT
tors           1           2           3           4     -66.316
tors           3           4           5           6    -143.159
tors           4           5           6           7    -180.000
tors           5           6           7           8    +153.896
tors           6           7           8           9     -20.128
tors           7           8           9          10    +136.145
tors           8           9          10          11    +115.387
tors           9          10          11          12    -143.594
tors          11          12          13          14     +44.462
ENDCONSTRAINT
$end

$rem
JOBTYPE                   OPT
METHOD                    B3LYP
DFT_D                     d3_op
BASIS                     STO-3G
GEOM_OPT_MAX_CYCLES       100
GEOM_OPT_TOL_GRADIENT     300
GEOM_OPT_TOL_DISPLACEMENT 1200
GEOM_OPT_TOL_ENERGY       100
SYMMETRY                  False
THRESH                    12
SCF_CONVERGENCE           8
MAX_SUB_FILE_NUM          128
MEM_STATIC                400
MEM_TOTAL                 4000
$end
--------------------------------------------------------------

   15   -1510.1195919542      6.72E-09 Convergence criterion met
 Total energy in the final basis set = -1510.11959195
   14   -1510.1903379595      5.15E-09 Convergence criterion met
 Total energy in the final basis set = -1510.19033796
   14   -1510.2284903061      7.30E-09 Convergence criterion met
 Total energy in the final basis set = -1510.22849031
   14   -1510.2455295459      6.17E-09 Convergence criterion met
 Total energy in the final basis set = -1510.24552955
   14   -1510.2516238771      4.11E-09 Convergence criterion met
 Total energy in the final basis set = -1510.25162388
   13   -1510.2540649376      8.74E-09 Convergence criterion met
 Total energy in the final basis set = -1510.25406494
   12   -1510.2548348545      8.00E-09 Convergence criterion met
 Total energy in the final basis set = -1510.25483485
   12   -1510.2550329176      5.62E-09 Convergence criterion met
   11   -1510.2554685797      2.86E-09 Convergence criterion met
 Total energy in the final basis set = -1510.25546858
   11   -1510.2554831672      2.77E-09 Convergence criterion met
 Total energy in the final basis set = -1510.25548317
   10   -1510.2554946690      9.78E-09 Convergence criterion met
 Total energy in the final basis set = -1510.25549467
   10   -1510.2554996857      6.13E-09 Convergence criterion met
 Total energy in the final basis set = -1510.25549969
    9   -1510.2555049597      9.40E-09 Convergence criterion met
 Total energy in the final basis set = -1510.25550496
    9   -1510.2555069743      4.80E-09 Convergence criterion met
 Total energy in the final basis set = -1510.25550697

             Standard Nuclear Orientation (Angstroms)
    I     Atom           X                Y                Z
 ----------------------------------------------------------------
    1      O      -5.7183633006     0.5373707218     1.5107528315
    2      C      -5.4463143580     0.8941391828     0.3457038745
    3      C      -4.7519976487     0.0687363279    -0.7932148124
    4      C      -3.2335581951    -0.3177881585    -0.5356939200
    5      C      -2.5525447736     0.3096683440     0.7273348822
    6      O      -1.1951387829     0.5989216031     0.3592879563
    7      C      -0.4675835713     1.2007456756     1.5029945325
    8      C       1.0657434574     0.8751705277     1.3118858745
    9      O       1.2003884646    -0.2797672104     0.3883787592
   10      C       2.2611260079    -0.0073646210    -0.5627779461
   11      C       3.4729837917    -1.0047743618    -0.4039331150
   12      C       4.8858434833    -0.3299419802    -0.6511453030
   13      C       4.8352220767     1.2377851528    -0.6865686710
   14      O       4.2229023594     1.9975774525     0.0954916533
   15      O      -5.7348085558     2.2015597274    -0.1758984605
   16      O       5.6525609829     1.6898231138    -1.7713068404
   17      O       2.1893622181     0.8959377965    -1.4221117902
   18      C       5.6312002720     3.1699113355    -1.8358426973
   19      C       3.6491786006    -1.5995338915     1.0542584408
   20      C       4.4853320929    -2.9309125781     0.9326028938
   21      C       5.9091318615    -2.3549868020     0.5888684363
   22      C       5.6435746649    -0.7984912673     0.6698421036
   23      O       4.5957407118    -0.6650859488     1.7079075314
   24      H       3.3208824296    -1.8243182149    -1.1321121011
   25      H       5.3728087063    -0.6961101049    -1.5712396160
   26      H       2.7015773527    -1.6686352062     1.6221425495
   27      H       4.4906183149    -3.4699056334     1.8934403707
   28      H       4.0940447921    -3.6024511672     0.1517520600
   29      H       6.6612769454    -2.6578771961     1.3345210075
   30      H       6.2608188422    -2.6589024703    -0.4102318466
   31      H       6.5280587483    -0.1852931955     0.9308417093
   32      O      -3.0208967170     0.5076575207     1.8683649642
   33      C      -6.3767165438     3.0291405155     0.8710039340
   34      C      -5.4052493857    -1.3793033987    -0.8807463371
   35      C      -4.9615648518    -2.0610673654    -2.2357648613
   36      C      -3.4812948786    -2.4749970899    -1.8998910432
   37      C      -3.3366667879    -1.9069996269    -0.4332922749
   38      O      -4.6720307073    -2.1394068215     0.1565957351
   39      H      -4.8583604742     0.6322243413    -1.7367856080
   40      H      -2.6137194400    -0.0321956584    -1.4037570418
   41      H      -5.7340234879     3.1194722397     1.7703765755
   42      H      -6.4931283421    -1.4019878919    -0.6764916256
   43      H      -5.5898586280    -2.9400819448    -2.4508191486
   44      H      -5.0250362667    -1.3654475042    -3.0878090466
   45      H      -3.3586494960    -3.5699436235    -1.9001933497
   46      H      -2.7459166446    -2.0355602109    -2.5924549965
   47      H      -2.5485202011    -2.3816907351     0.1826839943
   48      H      -7.3553329318     2.6090003266     1.1817290643
   49      H      -6.5303092664     4.0273725666     0.4214437637
   50      H       6.2437786630     3.4464454585    -2.7135266061
   51      H       6.0653066002     3.6250031644    -0.9220368167
   52      H       4.5990680720     3.5545340398    -1.9646944293
   53      H       1.5936902488     1.7663844061     0.9120147878
   54      H       1.5240080245     0.6124190816     2.2916329608
   55      H      -0.8632995049     0.7832031475     2.4533037951
   56      H      -0.6272286629     2.3008562372     1.5202763673
 ----------------------------------------------------------------

    9   -1510.2555077692      4.50E-09 Convergence criterion met
 Total energy in the final basis set = -1510.25550777
 Final energy is   -1510.25550776921
 **  OPTIMIZATION CONVERGED  **

                    Orbital Energies (a.u.)
 --------------------------------------------------------------

 Alpha MOs
 -- Occupied --
-18.935 -18.927 -18.924 -18.906 -18.898 -18.890 -18.886 -18.872
-18.871 -18.868 -10.108 -10.098 -10.093 -10.089 -10.070 -10.065
-10.064 -10.063 -10.060 -10.058 -10.057 -10.057 -10.040 -10.038
-10.034 -10.033 -10.023 -10.022 -10.018 -10.017  -1.013  -1.008
 -1.003  -1.000  -0.973  -0.968  -0.941  -0.934  -0.928  -0.924
 -0.765  -0.759  -0.725  -0.721  -0.713  -0.705  -0.693  -0.663
 -0.657  -0.610  -0.598  -0.573  -0.548  -0.542  -0.539  -0.534
 -0.517  -0.507  -0.479  -0.467  -0.463  -0.457  -0.453  -0.445
 -0.436  -0.431  -0.424  -0.412  -0.410  -0.408  -0.405  -0.399
 -0.389  -0.382  -0.371  -0.365  -0.362  -0.357  -0.348  -0.345
 -0.343  -0.337  -0.334  -0.333  -0.329  -0.327  -0.324  -0.314
 -0.307  -0.307  -0.304  -0.299  -0.291  -0.286  -0.275  -0.275
 -0.267  -0.255  -0.250  -0.245  -0.240  -0.236  -0.232  -0.176
 -0.173  -0.168  -0.162  -0.159  -0.152  -0.151  -0.146  -0.142
 -0.137

          Ground-State Mulliken Net Atomic Charges

     Atom                 Charge (a.u.)
  ----------------------------------------
      1 O                    -0.199982
      2 C                     0.206861
      3 C                    -0.079874
      4 C                    -0.079093
      5 C                     0.205520
      6 O                    -0.167378
      7 C                    -0.051368
      8 C                    -0.046824
      9 O                    -0.190825
     10 C                     0.225034
     11 C                    -0.081246
     12 C                    -0.079736
     13 C                     0.211022
     14 O                    -0.217854
     15 O                    -0.173317
     16 O                    -0.168925
     17 O                    -0.187892
     18 C                    -0.128593
     19 C                     0.022234
     20 C                    -0.143007
     21 C                    -0.144462
     22 C                     0.025546
     23 O                    -0.190178
     24 H                     0.084811
     25 H                     0.087508
     26 H                     0.091281
     27 H                     0.078567
     28 H                     0.073890
     29 H                     0.078492
     30 H                     0.074243
     31 H                     0.082593
     32 O                    -0.207349
     33 C                    -0.129599
     34 C                     0.026696
     35 C                    -0.144681
     36 C                    -0.142998
     37 C                     0.026973
     38 O                    -0.184374
     39 H                     0.085643
     40 H                     0.088358
     41 H                     0.090910
     42 H                     0.083471
     43 H                     0.077510
     44 H                     0.073632
     45 H                     0.077392
     46 H                     0.074662
     47 H                     0.084636
     48 H                     0.086845
     49 H                     0.087898
     50 H                     0.090143
     51 H                     0.087630
     52 H                     0.092602
     53 H                     0.095121
     54 H                     0.084523
     55 H                     0.093932
     56 H                     0.083373
  ----------------------------------------
  Sum of atomic charges =     0.000000

                    Cartesian Multipole Moments
 -----------------------------------------------------------------
    Charge (ESU x 10^10)
                -0.0000
    Dipole Moment (Debye)
         X       2.4421      Y      -0.1824      Z      -2.5201
       Tot       3.5140
    Quadrupole Moments (Debye-Ang)
        XX    -148.6618     XY      -8.9973     YY    -149.7965
        XZ       8.5142     YZ       4.1693     ZZ    -163.5157

 Total job time:  55.84s(wall), 2655.60s(cpu)
        *  Thank you very much for using Q-Chem.  Have a nice day.  *
