 Q-Chem 5.0, Q-Chem, Inc., Pleasanton, CA (2017)
 Q-Chem 5.0.1 for Intel X86 EM64T Linux

User input:
--------------------------------------------------------------
$molecule
0  1
O -4.6938455692 1.8945320142 0.9822394485
C -4.6105024314 1.4422554182 -0.1784934813
C -4.5789246669 -0.060067874 -0.6425398628
C -3.3081009177 -0.9072328143 -0.2148246291
C -1.963078227 -0.1862245035 0.1515605482
O -2.1819261199 1.1734768698 0.5248566359
C -0.9277254603 1.8852689042 0.878071465
C 0.2176118874 1.8258846177 -0.2068185018
O 1.503256346 1.6596399597 0.5115127914
C 2.3659978885 0.7735608972 -0.2269950984
C 3.6937101908 0.650748834 0.5918576164
C 4.304109014 -0.8060448637 0.7603103192
C 3.6441266969 -1.9542331314 -0.0818862919
O 3.182091425 -3.0265072673 0.3691924574
O -4.5212506572 2.2634674929 -1.3538706616
O 3.7975560224 -1.6704630731 -1.4724015606
O 2.0430665965 0.2601656044 -1.3187513801
C 3.1763718378 -2.7436498588 -2.2809259986
C 4.914562719 1.4168264956 -0.0944552964
C 5.958498573 1.7560455494 1.0408291208
C 6.5527880144 0.3281908311 1.3319830341
C 5.7931113538 -0.5484682459 0.2578439857
O 5.6013535476 0.373737126 -0.8841309669
H 3.486544255 1.0887233165 1.5839911533
H 4.2742035726 -1.120837368 1.8183194203
H 4.6237896191 2.2669352873 -0.7415809236
H 6.7302296299 2.4433330257 0.658396435
H 5.4839388628 2.2115150633 1.9247922737
H 7.6400438594 0.2969659983 1.1583003716
H 6.3485117782 -0.0135032397 2.3592478283
H 6.329184938 -1.4607530366 -0.067707382
O -0.8488629509 -0.7570662855 0.1782611503
C -4.5076050333 3.6916372209 -0.965837297
C -5.6994991181 -0.833602862 0.1817708425
C -5.8693760981 -2.3042145325 -0.3743101911
C -4.6338104025 -3.0298562704 0.2771648086
C -3.9098406873 -1.8067018259 0.9625883066
O -5.0386884231 -1.0150170098 1.4959891827
H -4.7371828767 -0.0968364315 -1.7344147668
H -3.0386337687 -1.5754573455 -1.0536764009
H -3.6325705214 3.9298494681 -0.3269958842
H -6.6436586133 -0.2680373205 0.3023153795
H -6.8225457259 -2.7386285925 -0.0340594207
H -5.8438570797 -2.3320096762 -1.4756845671
H -4.951369185 -3.7604704565 1.0386736917
H -3.9943774317 -3.5405160829 -0.4603563551
H -3.1927120658 -2.062944879 1.766443244
H -5.4284754101 3.9773065209 -0.4173974123
H -4.4451970006 4.2660341531 -1.90844313
H 3.4161633992 -2.507352861 -3.3337281718
H 2.0753464438 -2.7605702764 -2.1478283312
H 3.5809749357 -3.7424809525 -2.0179169899
H 0.0875571658 0.9761642456 -0.9079338913
H 0.2429120117 2.7692503908 -0.7936091864
H -0.5142869694 1.4699359676 1.824904374
H -1.2467415815 2.9300145823 1.0614287901
$end

$rem
JOBTYPE                   OPT
METHOD                    B3LYP
DFT_D                     d3_op
BASIS                     STO-3G
GEOM_OPT_MAX_CYCLES       100
GEOM_OPT_TOL_GRADIENT     300
GEOM_OPT_TOL_DISPLACEMENT 1200
GEOM_OPT_TOL_ENERGY       100
SYMMETRY                  False
THRESH                    12
SCF_CONVERGENCE           8
MAX_SUB_FILE_NUM          128
MEM_STATIC                400
MEM_TOTAL                 4000
$end
--------------------------------------------------------------

   16   -1510.2673188646      5.26E-09 Convergence criterion met
 Total energy in the final basis set = -1510.26731886
   13   -1510.2702951160      9.58E-09 Convergence criterion met
 Total energy in the final basis set = -1510.27029512
   13   -1510.2727365546      5.86E-09 Convergence criterion met
 Total energy in the final basis set = -1510.27273655
   13   -1510.2746589807      4.72E-09 Convergence criterion met
 Total energy in the final basis set = -1510.27465898
   13   -1510.2764823700      5.78E-09 Convergence criterion met
 Total energy in the final basis set = -1510.27648237
   13   -1510.2782732198      9.72E-09 Convergence criterion met
 Total energy in the final basis set = -1510.27827322
   14   -1510.2800326173      6.34E-09 Convergence criterion met
 Total energy in the final basis set = -1510.28003262
   14   -1510.2806203292      8.48E-09 Convergence criterion met
   12   -1510.2936304519      5.15E-09 Convergence criterion met
 Total energy in the final basis set = -1510.29363045
   12   -1510.2936386839      4.25E-09 Convergence criterion met
 Total energy in the final basis set = -1510.29363868
   11   -1510.2936462535      5.88E-09 Convergence criterion met
 Total energy in the final basis set = -1510.29364625
   11   -1510.2936470388      3.56E-09 Convergence criterion met
 Total energy in the final basis set = -1510.29364704
   11   -1510.2936450595      4.20E-09 Convergence criterion met
 Total energy in the final basis set = -1510.29364506
   11   -1510.2936399374      2.76E-09 Convergence criterion met
 Total energy in the final basis set = -1510.29363994

             Standard Nuclear Orientation (Angstroms)
    I     Atom           X                Y                Z
 ----------------------------------------------------------------
    1      O      -4.5584772670     1.8425200082     0.0287002573
    2      C      -3.8979666362     1.0914226916    -0.7188671754
    3      C      -4.1164072369    -0.4445468211    -0.9605301826
    4      C      -2.8402202040    -1.3521673892    -0.7174480868
    5      C      -1.5825026251    -0.5949712243    -0.1788656183
    6      O      -1.9700243873     0.2574449915     0.8974728580
    7      C      -0.7736152839     0.8490009768     1.5495963320
    8      C      -0.1835756261     2.0712942936     0.7454804230
    9      O       1.2590914163     2.1951993040     1.0683540450
   10      C       2.0470019609     1.6596821395    -0.0067199797
   11      C       3.5311224153     1.5697674748     0.4786583174
   12      C       3.9020573267     0.1287670512     1.0527398178
   13      C       2.6897283108    -0.8740671537     0.9919485505
   14      O       1.6704832767    -0.8427132806     1.7230599904
   15      O      -2.8399229241     1.5337846353    -1.5809437855
   16      O       2.9082419372    -1.8445866577    -0.0216381574
   17      O       1.5852737054     1.3283826922    -1.1204682393
   18      C       1.7175844105    -2.7226041293    -0.1563364125
   19      C       4.5596697146     1.6846489338    -0.7233417048
   20      C       5.9851004087     1.9943013552    -0.1184366161
   21      C       6.3648689976     0.5924547340     0.4881586898
   22      C       5.0990267894    -0.2686716592     0.0928297015
   23      O       4.6864730435     0.2938763360    -1.2136169383
   24      H       3.6956812399     2.3490851900     1.2431602589
   25      H       4.2230978365     0.2073914341     2.1073483136
   26      H       4.2312426607     2.3532043466    -1.5424584856
   27      H       6.6842110717     2.2918518552    -0.9161571025
   28      H       5.9515754626     2.7928301541     0.6400342033
   29      H       7.2719050206     0.1801228348     0.0183592052
   30      H       6.5176671377     0.6281798249     1.5787363543
   31      H       5.2724197266    -1.3580955861     0.0079024278
   32      O      -0.4002437825    -0.7420231570    -0.5664152454
   33      C      -2.6901694612     3.0034981846    -1.4825703478
   34      C      -5.1374606636    -1.0574438898     0.0852547928
   35      C      -5.6763827761    -2.4235205802    -0.4917414562
   36      C      -4.4163338297    -3.3479739124    -0.3018885622
   37      C      -3.4047575703    -2.3490574928     0.3896565668
   38      O      -4.2724824129    -1.4791609362     1.2120196189
   39      H      -4.4791537627    -0.5711309093    -1.9975066111
   40      H      -2.5394963613    -1.8867329152    -1.6353318729
   41      H      -2.6312706627     3.3397613048    -0.4284331875
   42      H      -5.9047610449    -0.3394392738     0.4349186021
   43      H      -6.5313459522    -2.7810895593     0.1038123903
   44      H      -5.9892549651    -2.3389548479    -1.5447278285
   45      H      -4.6340861218    -4.1978954713     0.3642305124
   46      H      -4.0263005286    -3.7380954678    -1.2557287712
   47      H      -2.6261379860    -2.8263273573     1.0160446995
   48      H      -3.5394048542     3.5258445264    -1.9696660658
   49      H      -1.7524633891     3.2551327187    -2.0112599198
   50      H       1.9487119895    -3.4109089712    -0.9892109424
   51      H       0.8144205518    -2.1106418536    -0.3915560942
   52      H       1.5438877715    -3.3056955007     0.7709490885
   53      H      -0.2845943536     1.8879610186    -0.3458511993
   54      H      -0.6763611438     3.0231686459     1.0250115066
   55      H       0.0431852223     0.0911479227     1.6558415427
   56      H      -1.1195148379     1.1699839954     2.5512598279
 ----------------------------------------------------------------

    9   -1510.2936405856      7.95E-09 Convergence criterion met
 Total energy in the final basis set = -1510.29364059
 Final energy is   -1510.29364058560
 **  OPTIMIZATION CONVERGED  **

                    Orbital Energies (a.u.)
 --------------------------------------------------------------

 Alpha MOs
 -- Occupied --
-18.935 -18.934 -18.931 -18.927 -18.887 -18.884 -18.878 -18.876
-18.873 -18.870 -10.102 -10.099 -10.098 -10.095 -10.063 -10.061
-10.059 -10.057 -10.057 -10.056 -10.053 -10.043 -10.038 -10.037
-10.037 -10.036 -10.021 -10.019 -10.018 -10.017  -1.016  -1.010
 -1.006  -1.004  -0.970  -0.966  -0.938  -0.934  -0.932  -0.931
 -0.764  -0.761  -0.726  -0.721  -0.708  -0.704  -0.690  -0.662
 -0.651  -0.613  -0.596  -0.580  -0.545  -0.542  -0.537  -0.534
 -0.511  -0.507  -0.481  -0.475  -0.464  -0.460  -0.444  -0.443
 -0.433  -0.430  -0.427  -0.415  -0.412  -0.406  -0.402  -0.395
 -0.390  -0.375  -0.371  -0.365  -0.361  -0.356  -0.352  -0.348
 -0.346  -0.341  -0.332  -0.328  -0.326  -0.323  -0.318  -0.309
 -0.306  -0.305  -0.303  -0.298  -0.291  -0.286  -0.280  -0.275
 -0.272  -0.257  -0.252  -0.243  -0.237  -0.233  -0.229  -0.187
 -0.176  -0.171  -0.160  -0.158  -0.155  -0.149  -0.148  -0.143
 -0.140

          Ground-State Mulliken Net Atomic Charges

     Atom                 Charge (a.u.)
  ----------------------------------------
      1 O                    -0.211885
      2 C                     0.215532
      3 C                    -0.078284
      4 C                    -0.078614
      5 C                     0.218035
      6 O                    -0.166984
      7 C                    -0.063637
      8 C                    -0.059667
      9 O                    -0.173366
     10 C                     0.206820
     11 C                    -0.078684
     12 C                    -0.077343
     13 C                     0.214081
     14 O                    -0.223771
     15 O                    -0.173984
     16 O                    -0.161692
     17 O                    -0.203638
     18 C                    -0.141704
     19 C                     0.025639
     20 C                    -0.143841
     21 C                    -0.144641
     22 C                     0.025253
     23 O                    -0.184895
     24 H                     0.085941
     25 H                     0.084315
     26 H                     0.085242
     27 H                     0.077607
     28 H                     0.072727
     29 H                     0.077485
     30 H                     0.072331
     31 H                     0.090179
     32 O                    -0.214143
     33 C                    -0.129473
     34 C                     0.024775
     35 C                    -0.143876
     36 C                    -0.144024
     37 C                     0.025891
     38 O                    -0.185620
     39 H                     0.084474
     40 H                     0.086021
     41 H                     0.090857
     42 H                     0.090840
     43 H                     0.078243
     44 H                     0.073173
     45 H                     0.078160
     46 H                     0.073758
     47 H                     0.082549
     48 H                     0.085598
     49 H                     0.091551
     50 H                     0.085725
     51 H                     0.114616
     52 H                     0.079220
     53 H                     0.102733
     54 H                     0.081189
     55 H                     0.115765
     56 H                     0.087439
  ----------------------------------------
  Sum of atomic charges =    -0.000000

                    Cartesian Multipole Moments
 -----------------------------------------------------------------
    Charge (ESU x 10^10)
                -0.0000
    Dipole Moment (Debye)
         X       0.5040      Y      -0.1903      Z      -0.1901
       Tot       0.5713
    Quadrupole Moments (Debye-Ang)
        XX    -149.6717     XY       9.1777     YY    -146.9463
        XZ      16.2374     YZ      -0.2581     ZZ    -164.4291

 Total job time:  153.19s(wall), 7301.35s(cpu)
        *  Thank you very much for using Q-Chem.  Have a nice day.  *
