 Q-Chem 5.0, Q-Chem, Inc., Pleasanton, CA (2017)
 Q-Chem 5.0.1 for Intel X86 EM64T Linux

User input:
--------------------------------------------------------------
$molecule
0  1
O -3.94934 -3.66094 2.70899
C -3.26408 -4.56952 2.26188
C -3.36658 -6.02376 2.66595
C -2.97353 -6.38153 4.10864
C -2.69204 -5.22192 5.03825
O -3.29238 -4.09058 4.5638
C -3.07053 -2.94517 5.3933
C -1.57673 -2.74967 5.63094
O -1.3463 -2.34334 6.98913
C -0.24065 -2.86658 7.57471
C -0.05383 -2.40219 8.99953
C 0.32822 -3.50683 9.99557
C 0.80995 -4.80816 9.38634
O 0.34046 -5.91382 9.61365
O -2.38129 -4.28896 1.26748
O 1.93987 -4.75624 8.62716
O 0.65119 -3.4111 6.93726
C 2.54046 -5.85001 8.03858
C 1.13242 -1.43359 9.19868
C 0.89346 -0.58613 10.44827
C 1.06578 -1.63023 11.53594
C 1.52059 -2.82956 10.69445
O 2.20434 -2.24565 9.61082
H -0.98278 -1.86944 9.31026
H -0.5111 -3.75398 10.68278
H 1.32008 -0.78254 8.31709
H 1.74019 0.13493 10.51055
H -0.06409 -0.02316 10.47969
H 1.8721 -1.29071 12.2231
H 0.1465 -1.87171 12.11245
H 2.10497 -3.54819 11.31076
O -2.34125 -5.39133 6.2018
C -2.1644 -3.02684 0.75557
C -4.82033 -6.5269 2.63637
C -4.8468 -8.04981 2.50637
C -4.39221 -8.46015 3.89219
C -4.26358 -7.08877 4.562
O -5.27604 -6.32347 3.95215
H -2.75105 -6.60681 1.94312
H -2.08045 -7.0442 4.14527
H -1.80192 -2.34706 1.55639
H -5.42499 -6.05933 1.82834
H -5.90929 -8.35734 2.37792
H -4.24175 -8.45568 1.66726
H -5.21128 -9.0405 4.37266
H -3.44442 -9.03952 3.93069
H -4.3275 -7.1916 5.66778
H -3.10287 -2.62471 0.31743
H -1.39432 -3.08445 -0.04073
H 3.43829 -5.51461 7.48025
H 1.83749 -6.33462 7.32761
H 2.85354 -6.57979 8.81539
H -0.94476 -3.60597 5.31972
H -1.24305 -1.94564 4.94045
H -3.56422 -3.15588 6.36992
H -3.55372 -2.03014 4.98949
$end

$opt
CONSTRAINT
tors           1           2           3           4     -66.316
tors           3           4           5           6     +21.638
tors           4           5           6           7    -180.000
tors           5           6           7           8     +53.445
tors           6           7           8           9    -140.575
tors           7           8           9          10    +142.105
tors           8           9          10          11    -180.000
tors           9          10          11          12    +135.551
tors          11          12          13          14    -125.214
ENDCONSTRAINT
$end

$rem
JOBTYPE                   OPT
METHOD                    B3LYP
DFT_D                     d3_op
BASIS                     STO-3G
GEOM_OPT_MAX_CYCLES       100
GEOM_OPT_TOL_GRADIENT     300
GEOM_OPT_TOL_DISPLACEMENT 1200
GEOM_OPT_TOL_ENERGY       100
SYMMETRY                  False
THRESH                    12
SCF_CONVERGENCE           8
MAX_SUB_FILE_NUM          128
MEM_STATIC                400
MEM_TOTAL                 4000
$end
--------------------------------------------------------------

   15   -1510.1079891944      8.15E-09 Convergence criterion met
 Total energy in the final basis set = -1510.10798919
   14   -1510.1790752286      9.06E-09 Convergence criterion met
 Total energy in the final basis set = -1510.17907523
   14   -1510.2284597622      7.82E-09 Convergence criterion met
 Total energy in the final basis set = -1510.22845976
   13   -1510.2509180506      8.25E-09 Convergence criterion met
 Total energy in the final basis set = -1510.25091805
   13   -1510.2605083552      7.08E-09 Convergence criterion met
 Total energy in the final basis set = -1510.26050836
   13   -1510.2640429911      6.88E-09 Convergence criterion met
 Total energy in the final basis set = -1510.26404299
   13   -1510.2653949169      4.58E-09 Convergence criterion met
 Total energy in the final basis set = -1510.26539492
   12   -1510.2657458207      6.42E-09 Convergence criterion met
    9   -1510.2673869291      6.51E-09 Convergence criterion met
 Total energy in the final basis set = -1510.26738693
   11   -1510.2673910697      2.09E-09 Convergence criterion met
 Total energy in the final basis set = -1510.26739107
   10   -1510.2673945233      8.72E-09 Convergence criterion met
 Total energy in the final basis set = -1510.26739452
    9   -1510.2673957226      8.66E-09 Convergence criterion met
 Total energy in the final basis set = -1510.26739572
   10   -1510.2673967861      5.98E-09 Convergence criterion met
 Total energy in the final basis set = -1510.26739679
    9   -1510.2673956989      3.03E-09 Convergence criterion met
 Total energy in the final basis set = -1510.26739570

             Standard Nuclear Orientation (Angstroms)
    I     Atom           X                Y                Z
 ----------------------------------------------------------------
    1      O      -4.6938455692     1.8945320142     0.9822394485
    2      C      -4.6105024314     1.4422554182    -0.1784934813
    3      C      -4.5789246669    -0.0600678740    -0.6425398628
    4      C      -3.3081009177    -0.9072328143    -0.2148246291
    5      C      -1.9630782270    -0.1862245035     0.1515605482
    6      O      -2.1819261199     1.1734768698     0.5248566359
    7      C      -0.9277254603     1.8852689042     0.8780714650
    8      C       0.2176118874     1.8258846177    -0.2068185018
    9      O       1.5032563460     1.6596399597     0.5115127914
   10      C       2.3659978885     0.7735608972    -0.2269950984
   11      C       3.6937101908     0.6507488340     0.5918576164
   12      C       4.3041090140    -0.8060448637     0.7603103192
   13      C       3.6441266969    -1.9542331314    -0.0818862919
   14      O       3.1820914250    -3.0265072673     0.3691924574
   15      O      -4.5212506572     2.2634674929    -1.3538706616
   16      O       3.7975560224    -1.6704630731    -1.4724015606
   17      O       2.0430665965     0.2601656044    -1.3187513801
   18      C       3.1763718378    -2.7436498588    -2.2809259986
   19      C       4.9145627190     1.4168264956    -0.0944552964
   20      C       5.9584985730     1.7560455494     1.0408291208
   21      C       6.5527880144     0.3281908311     1.3319830341
   22      C       5.7931113538    -0.5484682459     0.2578439857
   23      O       5.6013535476     0.3737371260    -0.8841309669
   24      H       3.4865442550     1.0887233165     1.5839911533
   25      H       4.2742035726    -1.1208373680     1.8183194203
   26      H       4.6237896191     2.2669352873    -0.7415809236
   27      H       6.7302296299     2.4433330257     0.6583964350
   28      H       5.4839388628     2.2115150633     1.9247922737
   29      H       7.6400438594     0.2969659983     1.1583003716
   30      H       6.3485117782    -0.0135032397     2.3592478283
   31      H       6.3291849380    -1.4607530366    -0.0677073820
   32      O      -0.8488629509    -0.7570662855     0.1782611503
   33      C      -4.5076050333     3.6916372209    -0.9658372970
   34      C      -5.6994991181    -0.8336028620     0.1817708425
   35      C      -5.8693760981    -2.3042145325    -0.3743101911
   36      C      -4.6338104025    -3.0298562704     0.2771648086
   37      C      -3.9098406873    -1.8067018259     0.9625883066
   38      O      -5.0386884231    -1.0150170098     1.4959891827
   39      H      -4.7371828767    -0.0968364315    -1.7344147668
   40      H      -3.0386337687    -1.5754573455    -1.0536764009
   41      H      -3.6325705214     3.9298494681    -0.3269958842
   42      H      -6.6436586133    -0.2680373205     0.3023153795
   43      H      -6.8225457259    -2.7386285925    -0.0340594207
   44      H      -5.8438570797    -2.3320096762    -1.4756845671
   45      H      -4.9513691850    -3.7604704565     1.0386736917
   46      H      -3.9943774317    -3.5405160829    -0.4603563551
   47      H      -3.1927120658    -2.0629448790     1.7664432440
   48      H      -5.4284754101     3.9773065209    -0.4173974123
   49      H      -4.4451970006     4.2660341531    -1.9084431300
   50      H       3.4161633992    -2.5073528610    -3.3337281718
   51      H       2.0753464438    -2.7605702764    -2.1478283312
   52      H       3.5809749357    -3.7424809525    -2.0179169899
   53      H       0.0875571658     0.9761642456    -0.9079338913
   54      H       0.2429120117     2.7692503908    -0.7936091864
   55      H      -0.5142869694     1.4699359676     1.8249043740
   56      H      -1.2467415815     2.9300145823     1.0614287901
 ----------------------------------------------------------------

    8   -1510.2673962659      7.56E-09 Convergence criterion met
 Total energy in the final basis set = -1510.26739627
 Final energy is   -1510.26739626595
 **  OPTIMIZATION CONVERGED  **

                    Orbital Energies (a.u.)
 --------------------------------------------------------------

 Alpha MOs
 -- Occupied --
-18.941 -18.929 -18.926 -18.926 -18.889 -18.889 -18.878 -18.874
-18.866 -18.862 -10.104 -10.097 -10.093 -10.089 -10.077 -10.066
-10.061 -10.061 -10.060 -10.059 -10.059 -10.053 -10.038 -10.037
-10.036 -10.034 -10.020 -10.020 -10.019 -10.019  -1.017  -1.009
 -1.002  -1.000  -0.970  -0.970  -0.941  -0.934  -0.927  -0.924
 -0.763  -0.761  -0.726  -0.721  -0.713  -0.705  -0.695  -0.660
 -0.651  -0.618  -0.597  -0.584  -0.545  -0.542  -0.537  -0.537
 -0.515  -0.511  -0.483  -0.472  -0.460  -0.454  -0.449  -0.440
 -0.434  -0.432  -0.427  -0.410  -0.408  -0.406  -0.401  -0.397
 -0.391  -0.377  -0.375  -0.365  -0.362  -0.354  -0.350  -0.342
 -0.340  -0.334  -0.333  -0.331  -0.330  -0.328  -0.325  -0.312
 -0.309  -0.307  -0.305  -0.300  -0.297  -0.290  -0.279  -0.272
 -0.270  -0.253  -0.250  -0.241  -0.241  -0.234  -0.233  -0.182
 -0.174  -0.171  -0.169  -0.154  -0.148  -0.147  -0.143  -0.141
 -0.140

          Ground-State Mulliken Net Atomic Charges

     Atom                 Charge (a.u.)
  ----------------------------------------
      1 O                    -0.208556
      2 C                     0.214847
      3 C                    -0.079530
      4 C                    -0.080095
      5 C                     0.207820
      6 O                    -0.166538
      7 C                    -0.047767
      8 C                    -0.058044
      9 O                    -0.175400
     10 C                     0.209723
     11 C                    -0.079233
     12 C                    -0.078708
     13 C                     0.207052
     14 O                    -0.216740
     15 O                    -0.173421
     16 O                    -0.157164
     17 O                    -0.203790
     18 C                    -0.125629
     19 C                     0.027017
     20 C                    -0.142861
     21 C                    -0.144770
     22 C                     0.027038
     23 O                    -0.182824
     24 H                     0.086534
     25 H                     0.084743
     26 H                     0.082977
     27 H                     0.077783
     28 H                     0.074017
     29 H                     0.077946
     30 H                     0.074187
     31 H                     0.083692
     32 O                    -0.215099
     33 C                    -0.128448
     34 C                     0.026205
     35 C                    -0.145686
     36 C                    -0.141691
     37 C                     0.026392
     38 O                    -0.184159
     39 H                     0.085380
     40 H                     0.085194
     41 H                     0.085918
     42 H                     0.082969
     43 H                     0.078219
     44 H                     0.073625
     45 H                     0.078559
     46 H                     0.075000
     47 H                     0.085917
     48 H                     0.087740
     49 H                     0.087849
     50 H                     0.090668
     51 H                     0.090347
     52 H                     0.086669
     53 H                     0.109100
     54 H                     0.079489
     55 H                     0.093677
     56 H                     0.091861
  ----------------------------------------
  Sum of atomic charges =     0.000000

                    Cartesian Multipole Moments
 -----------------------------------------------------------------
    Charge (ESU x 10^10)
                 0.0000
    Dipole Moment (Debye)
         X      -0.0943      Y       1.2802      Z      -0.7100
       Tot       1.4669
    Quadrupole Moments (Debye-Ang)
        XX    -151.2974     XY       5.9649     YY    -151.4200
        XZ      17.4464     YZ       2.5343     ZZ    -162.4883

 Total job time:  101.83s(wall), 4844.99s(cpu)
        *  Thank you very much for using Q-Chem.  Have a nice day.  *
