 Q-Chem 5.0, Q-Chem, Inc., Pleasanton, CA (2017)
 Q-Chem 5.0.1 for Intel X86 EM64T Linux

User input:
--------------------------------------------------------------
$molecule
0  1
O -4.2066298106 1.045184154 2.6028594113
C -4.1647150834 1.1896643106 1.3616822625
C -4.6095395517 0.1486201775 0.2783755046
C -3.9240679845 0.2803095195 -1.1330999238
C -2.4065355707 0.7262747512 -1.0804742393
O -1.9969929204 0.9360882596 0.2714547668
C -0.5853460688 0.5865507448 0.5803743462
C 0.4811066174 1.1956868414 -0.4144460265
O 1.8205677107 0.5470215697 -0.4249223171
C 1.8667244416 -0.859286511 -0.2630184112
C 3.3559714887 -1.3661379687 -0.2997976247
C 4.5384850775 -0.3181329562 -0.4529343631
C 4.1440947967 1.2031349395 -0.3911141492
O 4.004683983 1.9189895789 0.6229558371
O -4.0006335531 2.4606532356 0.7054001989
O 4.0614963364 1.6861785388 -1.7416154667
O 0.8862798911 -1.6311738267 -0.1240432353
C 3.6602356505 3.1099003502 -1.7420480255
C 3.7524059509 -2.0821429453 1.0663464412
C 4.9380679136 -3.081451583 0.7700601663
C 6.1321208022 -2.077058368 0.566185471
C 5.4151668955 -0.6926068311 0.8202708334
O 4.3959471879 -1.0054256757 1.8493519093
H 3.4002119046 -2.0989395376 -1.1271107422
H 5.0816149186 -0.4906218461 -1.3988013318
H 2.8935615902 -2.5137344791 1.6167504713
H 5.1085576344 -3.7398705472 1.6368474041
H 4.7469531099 -3.7067795844 -0.1167345414
H 6.9296365278 -2.2399229308 1.3081767896
H 6.5711869977 -2.1359305723 -0.4426325314
H 6.0735288565 0.125242999 1.1713799785
O -1.6798096121 0.8249761831 -2.0994124434
C -3.6387967012 3.5007671003 1.6924405057
C -4.3834045443 -1.3894326827 0.6093446166
C -5.5798558712 -2.1694576341 -0.0563322554
C -5.2555793297 -1.9325220927 -1.5796624615
C -3.8229118955 -1.2687285751 -1.5002568338
O -3.237596313 -1.7978481971 -0.2403854703
H -5.6951627339 0.3242072975 0.148608965
H -4.4944494413 0.8873595725 -1.8574578093
H -3.8328273202 3.1253588536 2.7176980998
H -4.1851942364 -1.6107432742 1.6760760694
H -5.5294988155 -3.2396136815 0.2018946373
H -6.5650984298 -1.7763014198 0.2410741209
H -5.2124751596 -2.8786959109 -2.1416590251
H -5.9863753558 -1.2674010424 -2.067657053
H -3.156062928 -1.4827600018 -2.3583544162
H -4.250495306 4.400208161 1.4877081523
H -2.5648537209 3.7570292224 1.5894166664
H 3.706400177 3.4436930073 -2.7950338504
H 4.3415146747 3.729284543 -1.1235220472
H 2.6267625674 3.2389768233 -1.3606529176
H 0.012348612 1.1230228875 -1.4265897143
H 0.6893070552 2.2579571358 -0.1774708086
H -0.4543641965 -0.5201559273 0.5277900138
H -0.4240873554 0.9366109564 1.6190823811
$end

$rem
JOBTYPE                   OPT
METHOD                    B3LYP
DFT_D                     d3_op
BASIS                     STO-3G
GEOM_OPT_MAX_CYCLES       100
GEOM_OPT_TOL_GRADIENT     300
GEOM_OPT_TOL_DISPLACEMENT 1200
GEOM_OPT_TOL_ENERGY       100
SYMMETRY                  False
THRESH                    12
SCF_CONVERGENCE           8
MAX_SUB_FILE_NUM          128
MEM_STATIC                400
MEM_TOTAL                 4000
$end
--------------------------------------------------------------

   16   -1510.2605671474      5.09E-09 Convergence criterion met
 Total energy in the final basis set = -1510.26056715
   14   -1510.2647139218      3.41E-09 Convergence criterion met
 Total energy in the final basis set = -1510.26471392
   15   -1510.2680309956      1.95E-09 Convergence criterion met
 Total energy in the final basis set = -1510.26803100
   14   -1510.2708643381      2.40E-09 Convergence criterion met
 Total energy in the final basis set = -1510.27086434
   15   -1510.2738537556      2.27E-09 Convergence criterion met
 Total energy in the final basis set = -1510.27385376
   14   -1510.2761276751      6.73E-09 Convergence criterion met
 Total energy in the final basis set = -1510.27612768
   14   -1510.2779357453      4.02E-09 Convergence criterion met
 Total energy in the final basis set = -1510.27793575
   14   -1510.2795512209      4.17E-09 Convergence criterion met
   10   -1510.3041261471      7.39E-09 Convergence criterion met
 Total energy in the final basis set = -1510.30412615
   11   -1510.3041224791      6.94E-09 Convergence criterion met
 Total energy in the final basis set = -1510.30412248
   10   -1510.3041237703      9.53E-09 Convergence criterion met
 Total energy in the final basis set = -1510.30412377
   10   -1510.3041304102      3.46E-09 Convergence criterion met
 Total energy in the final basis set = -1510.30413041
   10   -1510.3041336292      4.92E-09 Convergence criterion met
 Total energy in the final basis set = -1510.30413363
   10   -1510.3041346457      5.11E-09 Convergence criterion met
 Total energy in the final basis set = -1510.30413465

             Standard Nuclear Orientation (Angstroms)
    I     Atom           X                Y                Z
 ----------------------------------------------------------------
    1      O      -1.6184537831     1.1382326280     1.4093819126
    2      C      -2.1131845545     1.1486377934     0.2584848081
    3      C      -3.6252860539     0.9056709003    -0.0938493717
    4      C      -3.9306674742    -0.3847579723    -0.9639835098
    5      C      -2.7221275773    -1.3131563138    -1.3298797715
    6      O      -1.6760186750    -1.1701886641    -0.3684388396
    7      C      -0.5781525456    -2.1373179554    -0.6139424157
    8      C       0.2629058233    -1.8627169658    -1.9179388493
    9      O       1.2523436799    -0.7816774618    -1.7084021815
   10      C       2.5435879709    -1.3385463682    -1.3722110072
   11      C       3.5342225209    -0.1500821245    -1.0985067354
   12      C       3.3497585269     0.5431314998     0.3124474102
   13      C       2.2259719597    -0.1295372848     1.1681907987
   14      O       1.7573628690    -1.2812506416     0.9940882914
   15      O      -1.4327994719     1.5300383337    -0.9329337789
   16      O       1.8312437398     0.7641721754     2.1940999372
   17      O       2.8166499684    -2.5537640330    -1.4540403193
   18      C       0.6931725726     0.2030390057     2.9720695789
   19      C       5.0262923413    -0.6745888339    -0.9876454935
   20      C       6.0004829755     0.5568250143    -1.1433725718
   21      C       5.8183288452     1.2660191903     0.2499114925
   22      C       4.7867926196     0.2974940864     0.9525181467
   23      O       5.1550008207    -1.0410547560     0.4428256688
   24      H       3.4130479027     0.5872280243    -1.9125033616
   25      H       3.1275165587     1.6205593689     0.2205478060
   26      H       5.2451361183    -1.5501751416    -1.6290291078
   27      H       7.0365893392     0.2117154914    -1.2880115492
   28      H       5.7226905797     1.2042973119    -1.9905693882
   29      H       6.7630901936     1.2954603780     0.8154632476
   30      H       5.4277510952     2.2921037077     0.1586681956
   31      H       4.8015502078     0.3142592207     2.0597450592
   32      O      -2.6924983590    -2.1253201840    -2.2816397765
   33      C       0.0230061585     1.6907484733    -0.6900684540
   34      C      -4.4649905202     0.5996532634     1.2161250835
   35      C      -5.9914724059     0.8433836747     0.9025226945
   36      C      -6.3183796704    -0.4101198722     0.0090049291
   37      C      -4.9274634362    -1.1597940424     0.0123041611
   38      O      -4.3723534216    -0.8733047115     1.3524239578
   39      H      -4.0009921122     1.8053361448    -0.6142632723
   40      H      -4.4362105078    -0.1187350734    -1.9091702879
   41      H       0.5552870428     0.7741325678    -1.0476237830
   42      H      -4.0694821894     1.0948429624     2.1240508512
   43      H      -6.5806272111     0.8380379047     1.8333255190
   44      H      -6.1641774674     1.7978338475     0.3799979633
   45      H      -7.0962708840    -1.0418035767     0.4665443562
   46      H      -6.6384553935    -0.1372309314    -1.0093445662
   47      H      -4.9816244495    -2.2517412187    -0.1647307179
   48      H       0.2188735188     1.8506693581     0.3881554666
   49      H       0.3556644372     2.5717834573    -1.2699695199
   50      H       0.7198566567     0.6986666160     3.9592451709
   51      H       0.7970070585    -0.8928227102     3.0908674821
   52      H      -0.2607566453     0.4463773839     2.4445170230
   53      H       0.8105808062    -2.7929130152    -2.1820879343
   54      H      -0.3951039923    -1.5564577284    -2.7551360325
   55      H      -0.9871207608    -3.1692503112    -0.6644414675
   56      H       0.1033816877    -2.0321211321     0.2607836053
 ----------------------------------------------------------------

    9   -1510.3041338268      4.56E-09 Convergence criterion met
 Total energy in the final basis set = -1510.30413383
 Final energy is   -1510.30413382676
 **  OPTIMIZATION CONVERGED  **

                    Orbital Energies (a.u.)
 --------------------------------------------------------------

 Alpha MOs
 -- Occupied --
-18.942 -18.938 -18.933 -18.927 -18.891 -18.887 -18.883 -18.878
-18.872 -18.869 -10.108 -10.103 -10.102 -10.101 -10.065 -10.064
-10.062 -10.061 -10.061 -10.057 -10.044 -10.043 -10.040 -10.038
-10.037 -10.036 -10.023 -10.022 -10.021 -10.019  -1.020  -1.015
 -1.008  -1.003  -0.973  -0.970  -0.942  -0.940  -0.934  -0.931
 -0.767  -0.762  -0.728  -0.724  -0.712  -0.706  -0.695  -0.657
 -0.653  -0.616  -0.598  -0.583  -0.549  -0.543  -0.540  -0.536
 -0.514  -0.510  -0.486  -0.469  -0.461  -0.458  -0.456  -0.441
 -0.436  -0.434  -0.429  -0.424  -0.417  -0.407  -0.402  -0.400
 -0.391  -0.385  -0.372  -0.364  -0.363  -0.361  -0.353  -0.348
 -0.342  -0.340  -0.335  -0.334  -0.332  -0.330  -0.321  -0.314
 -0.309  -0.307  -0.305  -0.302  -0.298  -0.290  -0.287  -0.274
 -0.269  -0.257  -0.251  -0.243  -0.237  -0.235  -0.234  -0.193
 -0.180  -0.168  -0.164  -0.162  -0.156  -0.155  -0.148  -0.147
 -0.144

          Ground-State Mulliken Net Atomic Charges

     Atom                 Charge (a.u.)
  ----------------------------------------
      1 O                    -0.227008
      2 C                     0.228859
      3 C                    -0.079513
      4 C                    -0.078506
      5 C                     0.210247
      6 O                    -0.169492
      7 C                    -0.058313
      8 C                    -0.055536
      9 O                    -0.180597
     10 C                     0.220651
     11 C                    -0.081003
     12 C                    -0.079034
     13 C                     0.217781
     14 O                    -0.216707
     15 O                    -0.174305
     16 O                    -0.168103
     17 O                    -0.208374
     18 C                    -0.148458
     19 C                     0.025438
     20 C                    -0.144039
     21 C                    -0.143613
     22 C                     0.025858
     23 O                    -0.187151
     24 H                     0.085275
     25 H                     0.087417
     26 H                     0.090438
     27 H                     0.079081
     28 H                     0.073529
     29 H                     0.079208
     30 H                     0.074250
     31 H                     0.085326
     32 O                    -0.218615
     33 C                    -0.154957
     34 C                     0.024686
     35 C                    -0.144115
     36 C                    -0.143773
     37 C                     0.025367
     38 O                    -0.188526
     39 H                     0.084226
     40 H                     0.085827
     41 H                     0.107166
     42 H                     0.089471
     43 H                     0.078075
     44 H                     0.073239
     45 H                     0.078314
     46 H                     0.074098
     47 H                     0.083437
     48 H                     0.089088
     49 H                     0.076841
     50 H                     0.085327
     51 H                     0.089825
     52 H                     0.119219
     53 H                     0.102169
     54 H                     0.095890
     55 H                     0.088820
     56 H                     0.115297
  ----------------------------------------
  Sum of atomic charges =    -0.000000

                    Cartesian Multipole Moments
 -----------------------------------------------------------------
    Charge (ESU x 10^10)
                -0.0000
    Dipole Moment (Debye)
         X      -0.4144      Y       3.1964      Z      -0.7436
       Tot       3.3078
    Quadrupole Moments (Debye-Ang)
        XX    -144.8529     XY       6.5044     YY    -164.6739
        XZ      -1.8655     YZ      -1.6749     ZZ    -161.4394

 Total job time:  175.82s(wall), 8387.20s(cpu)
        *  Thank you very much for using Q-Chem.  Have a nice day.  *
