 Q-Chem 5.0, Q-Chem, Inc., Pleasanton, CA (2017)
 Q-Chem 5.0.1 for Intel X86 EM64T Linux

User input:
--------------------------------------------------------------
$molecule
0  1
O -3.94934 -3.66094 2.70899
C -3.26408 -4.56952 2.26188
C -3.36658 -6.02376 2.66595
C -2.11166 -6.89341 2.48502
C -0.84286 -6.17213 2.08752
O -1.09337 -4.83712 1.94463
C 0.01061 -4.01237 2.33228
C 1.29182 -4.50125 1.66473
O 2.43551 -3.98789 2.36566
C 2.30619 -3.90841 3.71329
C 3.53996 -3.36213 4.39155
C 4.67722 -2.96074 3.44086
C 4.29968 -2.82416 1.97953
O 3.82901 -1.82278 1.45965
O -3.09601 -4.46595 0.89902
O 4.77955 -3.80432 1.16436
O 1.70231 -4.76835 4.34694
C 4.65028 -3.80935 -0.20899
C 3.29252 -2.02141 5.11223
C 4.32972 -1.84131 6.21966
C 5.58325 -1.6134 5.39738
C 4.97814 -1.55235 3.98878
O 3.68511 -1.03454 4.19112
H 3.87563 -4.10846 5.14976
H 5.54425 -3.65494 3.51142
H 2.26411 -1.92609 5.52449
H 4.07189 -0.89394 6.74578
H 4.39532 -2.66319 6.96468
H 6.02224 -0.63454 5.69192
H 6.34999 -2.41521 5.46771
H 5.63554 -0.97052 3.30519
O 0.20958 -6.75531 2.29052
C -3.11682 -3.30041 0.15221
C -3.56961 -6.15676 4.1925
C -4.21706 -7.50123 4.51931
C -3.06066 -8.43844 4.25661
C -1.95725 -7.428 3.927
O -2.27311 -6.30628 4.71049
H -4.2658 -6.43909 2.15709
H -2.25869 -7.7175 1.75276
H -3.24813 -2.39333 0.7801
H -4.17683 -5.33674 4.63453
H -4.43434 -7.50584 5.61171
H -5.14999 -7.72644 3.95919
H -2.82411 -8.9769 5.20145
H -3.21568 -9.16764 3.43213
H -0.96472 -7.88937 4.12148
H -3.94261 -3.35337 -0.58636
H -2.15471 -3.20471 -0.39235
H 5.12631 -4.72497 -0.61562
H 5.15421 -2.92035 -0.64469
H 3.57652 -3.80847 -0.49277
H 1.61657 -5.51069 1.39191
H 1.26884 -4.06308 0.64434
H -0.09835 -4.00856 3.42541
H -0.17586 -2.95014 2.06462
$end

$opt
CONSTRAINT
tors           1           2           3           4    -154.794
tors           3           4           5           6      -1.003
tors           4           5           6           7    +145.991
tors           5           6           7           8     +49.791
tors           6           7           8           9    -161.053
tors           7           8           9          10     +36.724
tors           8           9          10          11    -180.000
tors           9          10          11          12      +1.899
tors          11          12          13          14     +85.263
ENDCONSTRAINT
$end

$rem
JOBTYPE                   OPT
METHOD                    B3LYP
DFT_D                     d3_op
BASIS                     STO-3G
GEOM_OPT_MAX_CYCLES       100
GEOM_OPT_TOL_GRADIENT     300
GEOM_OPT_TOL_DISPLACEMENT 1200
GEOM_OPT_TOL_ENERGY       100
SYMMETRY                  False
THRESH                    12
SCF_CONVERGENCE           8
MAX_SUB_FILE_NUM          128
MEM_STATIC                400
MEM_TOTAL                 4000
$end
--------------------------------------------------------------

   15   -1510.0505131301      9.06E-09 Convergence criterion met
 Total energy in the final basis set = -1510.05051313
   14   -1510.1335495869      6.93E-09 Convergence criterion met
 Total energy in the final basis set = -1510.13354959
   14   -1510.1823597581      9.80E-09 Convergence criterion met
 Total energy in the final basis set = -1510.18235976
   15   -1510.2132839676      1.36E-09 Convergence criterion met
 Total energy in the final basis set = -1510.21328397
   14   -1510.2314581902      6.61E-09 Convergence criterion met
 Total energy in the final basis set = -1510.23145819
   13   -1510.2428438702      9.31E-09 Convergence criterion met
 Total energy in the final basis set = -1510.24284387
   13   -1510.2497719555      8.79E-09 Convergence criterion met
 Total energy in the final basis set = -1510.24977196
   13   -1510.2541900140      6.32E-09 Convergence criterion met
   10   -1510.2605914957      9.54E-09 Convergence criterion met
 Total energy in the final basis set = -1510.26059150
    9   -1510.2605990861      9.91E-09 Convergence criterion met
 Total energy in the final basis set = -1510.26059909
    9   -1510.2606034086      5.24E-09 Convergence criterion met
 Total energy in the final basis set = -1510.26060341
    9   -1510.2606069595      2.61E-09 Convergence criterion met
 Total energy in the final basis set = -1510.26060696
    9   -1510.2606095908      5.32E-09 Convergence criterion met
 Total energy in the final basis set = -1510.26060959
    9   -1510.2606109746      7.34E-09 Convergence criterion met
 Total energy in the final basis set = -1510.26061097

             Standard Nuclear Orientation (Angstroms)
    I     Atom           X                Y                Z
 ----------------------------------------------------------------
    1      O      -4.2066298106     1.0451841540     2.6028594113
    2      C      -4.1647150834     1.1896643106     1.3616822625
    3      C      -4.6095395517     0.1486201775     0.2783755046
    4      C      -3.9240679845     0.2803095195    -1.1330999238
    5      C      -2.4065355707     0.7262747512    -1.0804742393
    6      O      -1.9969929204     0.9360882596     0.2714547668
    7      C      -0.5853460688     0.5865507448     0.5803743462
    8      C       0.4811066174     1.1956868414    -0.4144460265
    9      O       1.8205677107     0.5470215697    -0.4249223171
   10      C       1.8667244416    -0.8592865110    -0.2630184112
   11      C       3.3559714887    -1.3661379687    -0.2997976247
   12      C       4.5384850775    -0.3181329562    -0.4529343631
   13      C       4.1440947967     1.2031349395    -0.3911141492
   14      O       4.0046839830     1.9189895789     0.6229558371
   15      O      -4.0006335531     2.4606532356     0.7054001989
   16      O       4.0614963364     1.6861785388    -1.7416154667
   17      O       0.8862798911    -1.6311738267    -0.1240432353
   18      C       3.6602356505     3.1099003502    -1.7420480255
   19      C       3.7524059509    -2.0821429453     1.0663464412
   20      C       4.9380679136    -3.0814515830     0.7700601663
   21      C       6.1321208022    -2.0770583680     0.5661854710
   22      C       5.4151668955    -0.6926068311     0.8202708334
   23      O       4.3959471879    -1.0054256757     1.8493519093
   24      H       3.4002119046    -2.0989395376    -1.1271107422
   25      H       5.0816149186    -0.4906218461    -1.3988013318
   26      H       2.8935615902    -2.5137344791     1.6167504713
   27      H       5.1085576344    -3.7398705472     1.6368474041
   28      H       4.7469531099    -3.7067795844    -0.1167345414
   29      H       6.9296365278    -2.2399229308     1.3081767896
   30      H       6.5711869977    -2.1359305723    -0.4426325314
   31      H       6.0735288565     0.1252429990     1.1713799785
   32      O      -1.6798096121     0.8249761831    -2.0994124434
   33      C      -3.6387967012     3.5007671003     1.6924405057
   34      C      -4.3834045443    -1.3894326827     0.6093446166
   35      C      -5.5798558712    -2.1694576341    -0.0563322554
   36      C      -5.2555793297    -1.9325220927    -1.5796624615
   37      C      -3.8229118955    -1.2687285751    -1.5002568338
   38      O      -3.2375963130    -1.7978481971    -0.2403854703
   39      H      -5.6951627339     0.3242072975     0.1486089650
   40      H      -4.4944494413     0.8873595725    -1.8574578093
   41      H      -3.8328273202     3.1253588536     2.7176980998
   42      H      -4.1851942364    -1.6107432742     1.6760760694
   43      H      -5.5294988155    -3.2396136815     0.2018946373
   44      H      -6.5650984298    -1.7763014198     0.2410741209
   45      H      -5.2124751596    -2.8786959109    -2.1416590251
   46      H      -5.9863753558    -1.2674010424    -2.0676570530
   47      H      -3.1560629280    -1.4827600018    -2.3583544162
   48      H      -4.2504953060     4.4002081610     1.4877081523
   49      H      -2.5648537209     3.7570292224     1.5894166664
   50      H       3.7064001770     3.4436930073    -2.7950338504
   51      H       4.3415146747     3.7292845430    -1.1235220472
   52      H       2.6267625674     3.2389768233    -1.3606529176
   53      H       0.0123486120     1.1230228875    -1.4265897143
   54      H       0.6893070552     2.2579571358    -0.1774708086
   55      H      -0.4543641965    -0.5201559273     0.5277900138
   56      H      -0.4240873554     0.9366109564     1.6190823811
 ----------------------------------------------------------------

    9   -1510.2606112304      3.53E-09 Convergence criterion met
 Total energy in the final basis set = -1510.26061123
 Final energy is   -1510.26061123044
 **  OPTIMIZATION CONVERGED  **

                    Orbital Energies (a.u.)
 --------------------------------------------------------------

 Alpha MOs
 -- Occupied --
-18.949 -18.940 -18.922 -18.922 -18.888 -18.887 -18.886 -18.879
-18.867 -18.860 -10.112 -10.110 -10.098 -10.092 -10.062 -10.061
-10.061 -10.059 -10.058 -10.057 -10.056 -10.053 -10.040 -10.038
-10.036 -10.033 -10.022 -10.020 -10.019 -10.018  -1.020  -1.015
 -1.002  -0.998  -0.971  -0.969  -0.946  -0.944  -0.929  -0.924
 -0.765  -0.761  -0.729  -0.721  -0.707  -0.703  -0.696  -0.657
 -0.655  -0.618  -0.597  -0.590  -0.545  -0.542  -0.538  -0.536
 -0.512  -0.510  -0.490  -0.476  -0.459  -0.457  -0.452  -0.440
 -0.438  -0.431  -0.428  -0.409  -0.407  -0.406  -0.404  -0.393
 -0.386  -0.381  -0.378  -0.368  -0.364  -0.355  -0.355  -0.345
 -0.341  -0.339  -0.332  -0.331  -0.330  -0.325  -0.320  -0.315
 -0.312  -0.311  -0.306  -0.303  -0.297  -0.296  -0.288  -0.272
 -0.271  -0.254  -0.245  -0.243  -0.235  -0.233  -0.224  -0.195
 -0.182  -0.166  -0.165  -0.154  -0.149  -0.147  -0.146  -0.143
 -0.140

          Ground-State Mulliken Net Atomic Charges

     Atom                 Charge (a.u.)
  ----------------------------------------
      1 O                    -0.221291
      2 C                     0.221815
      3 C                    -0.078920
      4 C                    -0.073642
      5 C                     0.226874
      6 O                    -0.169703
      7 C                    -0.066334
      8 C                    -0.067649
      9 O                    -0.165136
     10 C                     0.217553
     11 C                    -0.077991
     12 C                    -0.080635
     13 C                     0.219017
     14 O                    -0.219008
     15 O                    -0.175906
     16 O                    -0.173319
     17 O                    -0.215274
     18 C                    -0.127955
     19 C                     0.025097
     20 C                    -0.143187
     21 C                    -0.144860
     22 C                     0.025874
     23 O                    -0.187505
     24 H                     0.086001
     25 H                     0.084581
     26 H                     0.086472
     27 H                     0.078251
     28 H                     0.073823
     29 H                     0.077878
     30 H                     0.073259
     31 H                     0.085308
     32 O                    -0.210175
     33 C                    -0.135346
     34 C                     0.023654
     35 C                    -0.140900
     36 C                    -0.145702
     37 C                     0.022679
     38 O                    -0.192279
     39 H                     0.083232
     40 H                     0.088587
     41 H                     0.099900
     42 H                     0.090640
     43 H                     0.078716
     44 H                     0.074026
     45 H                     0.079162
     46 H                     0.074061
     47 H                     0.086085
     48 H                     0.083835
     49 H                     0.082006
     50 H                     0.087579
     51 H                     0.087705
     52 H                     0.084188
     53 H                     0.114557
     54 H                     0.085133
     55 H                     0.117093
     56 H                     0.088075
  ----------------------------------------
  Sum of atomic charges =     0.000000

                    Cartesian Multipole Moments
 -----------------------------------------------------------------
    Charge (ESU x 10^10)
                 0.0000
    Dipole Moment (Debye)
         X      -0.6555      Y      -0.0537      Z      -2.1037
       Tot       2.2041
    Quadrupole Moments (Debye-Ang)
        XX    -140.5611     XY      -4.8373     YY    -152.1598
        XZ      -0.6695     YZ       0.0506     ZZ    -167.6561

 Total job time:  74.79s(wall), 3557.82s(cpu)
        *  Thank you very much for using Q-Chem.  Have a nice day.  *
