 Q-Chem 5.0, Q-Chem, Inc., Pleasanton, CA (2017)
 Q-Chem 5.0.1 for Intel X86 EM64T Linux

User input:
--------------------------------------------------------------
$molecule
0  1
O -3.94934 -3.66094 2.70899
C -3.26408 -4.56952 2.26188
C -3.36658 -6.02376 2.66595
C -2.33524 -6.99387 2.06673
C -1.20851 -6.37328 1.27084
O -1.05342 -7.03977 0.08883
C -0.00113 -6.50847 -0.72336
C 0.61638 -7.61426 -1.57311
O 1.90259 -7.19817 -2.05829
C 2.91726 -8.07207 -1.84401
C 4.23912 -7.5834 -2.38673
C 5.42139 -8.53891 -2.16874
C 5.06071 -9.95801 -1.77788
O 4.78177 -10.85846 -2.5563
O -2.51992 -4.22496 1.17742
O 5.18955 -10.25545 -0.45722
O 2.76917 -9.09536 -1.18939
C 4.94972 -11.50013 0.08635
C 4.26645 -7.43613 -3.92098
C 5.34425 -6.42773 -4.31497
C 6.59872 -7.21429 -3.99038
C 5.98281 -8.56518 -3.60514
O 4.81406 -8.64417 -4.38543
H 4.42284 -6.58876 -1.92026
H 6.15976 -8.154 -1.43051
H 3.28628 -7.14361 -4.35659
H 5.27927 -6.30231 -5.41981
H 5.27143 -5.43039 -3.83032
H 7.2061 -7.3034 -4.91829
H 7.21847 -6.80218 -3.16473
H 6.72166 -9.3845 -3.74979
O -0.42338 -5.54506 1.72594
C -2.39831 -2.95147 0.6574
C -3.05315 -6.19617 4.16708
C -3.66544 -7.49817 4.6834
C -2.74153 -8.51455 4.0473
C -1.73945 -7.58366 3.35763
O -1.6747 -6.46757 4.2101
H -4.41786 -6.33449 2.47418
H -2.82446 -7.78633 1.45459
H -1.9648 -2.26826 1.41857
H -3.40127 -5.34167 4.78829
H -3.51346 -7.52505 5.78628
H -4.74564 -7.62885 4.4576
H -2.23531 -9.08513 4.85767
H -3.22453 -9.21708 3.33419
H -0.77944 -8.11618 3.17516
H -3.39072 -2.57316 0.33174
H -1.72216 -2.98219 -0.22153
H 5.1277 -11.45964 1.18048
H 5.63476 -12.25205 -0.36036
H 3.89476 -11.79875 -0.09365
H 0.63801 -8.52733 -0.93979
H -0.06433 -7.83259 -2.42292
H 0.85397 -6.18775 -0.08373
H -0.3328 -5.63797 -1.32962
$end

$opt
CONSTRAINT
tors           1           2           3           4    -175.214
tors           3           4           5           6    -132.606
tors           4           5           6           7    -180.000
tors           5           6           7           8    +149.862
tors           6           7           8           9    -162.141
tors           7           8           9          10    +129.122
tors           8           9          10          11    +179.501
tors           9          10          11          12    -180.000
tors          11          12          13          14     +85.263
ENDCONSTRAINT
$end

$rem
JOBTYPE                   OPT
METHOD                    B3LYP
DFT_D                     d3_op
BASIS                     STO-3G
GEOM_OPT_MAX_CYCLES       100
GEOM_OPT_TOL_GRADIENT     300
GEOM_OPT_TOL_DISPLACEMENT 1200
GEOM_OPT_TOL_ENERGY       100
SYMMETRY                  False
THRESH                    12
SCF_CONVERGENCE           8
MAX_SUB_FILE_NUM          128
MEM_STATIC                400
MEM_TOTAL                 4000
$end
--------------------------------------------------------------

   15   -1510.1463689709      6.25E-09 Convergence criterion met
 Total energy in the final basis set = -1510.14636897
   13   -1510.2169432962      6.65E-09 Convergence criterion met
 Total energy in the final basis set = -1510.21694330
   14   -1510.2547581650      6.66E-09 Convergence criterion met
 Total energy in the final basis set = -1510.25475816
   14   -1510.2707682852      5.49E-09 Convergence criterion met
 Total energy in the final basis set = -1510.27076829
   14   -1510.2748921082      4.91E-09 Convergence criterion met
 Total energy in the final basis set = -1510.27489211
   13   -1510.2758041008      3.72E-09 Convergence criterion met
 Total energy in the final basis set = -1510.27580410
   13   -1510.2766854967      2.45E-09 Convergence criterion met
 Total energy in the final basis set = -1510.27668550
   13   -1510.2770622749      2.24E-09 Convergence criterion met
   11   -1510.2776024834      4.71E-09 Convergence criterion met
 Total energy in the final basis set = -1510.27760248
   11   -1510.2776158540      3.48E-09 Convergence criterion met
 Total energy in the final basis set = -1510.27761585
    9   -1510.2776295733      6.76E-09 Convergence criterion met
 Total energy in the final basis set = -1510.27762957
    9   -1510.2776327607      8.58E-09 Convergence criterion met
 Total energy in the final basis set = -1510.27763276
    9   -1510.2776360995      6.50E-09 Convergence criterion met
 Total energy in the final basis set = -1510.27763610
    9   -1510.2776348615      4.29E-09 Convergence criterion met
 Total energy in the final basis set = -1510.27763486

             Standard Nuclear Orientation (Angstroms)
    I     Atom           X                Y                Z
 ----------------------------------------------------------------
    1      O       6.5716058515    -1.9719552526     0.3574358237
    2      C       5.5204609891    -1.3892199665     0.0134581762
    3      C       5.3764929404     0.1342203998    -0.3310082565
    4      C       3.9219764233     0.6768327498    -0.6304518218
    5      C       2.7715338089    -0.1968246260    -0.0121204474
    6      O       1.7887627826    -0.4122207605    -1.0405728792
    7      C       0.6725777943    -1.2348316014    -0.5140393571
    8      C      -0.6266466587    -0.8198686894    -1.2825115991
    9      O      -1.8055455598    -1.2858963424    -0.5084621475
   10      C      -2.7373454544    -0.2169126740    -0.3156087191
   11      C      -3.9534694678    -0.7796321440     0.4915557462
   12      C      -5.0828060092     0.2906367549     0.7892210871
   13      C      -4.8585133870     1.6766356408     0.0770647932
   14      O      -5.1900017157     1.9992854651    -1.0831181572
   15      O       4.3111515914    -2.0785260782    -0.3256091126
   16      O      -4.2437113615     2.5626026870     1.0235536665
   17      O      -2.5557315473     0.9563244424    -0.7121353711
   18      C      -3.9214043639     3.8479663665     0.3648650742
   19      C      -4.7714639671    -1.8797734325    -0.3173440793
   20      C      -5.6273850924    -2.7081274450     0.7190410560
   21      C      -6.7423281210    -1.6610518571     1.0903473672
   22      C      -6.3440763380    -0.4444844687     0.1644762085
   23      O      -5.7871770265    -1.0908166469    -1.0475276467
   24      H      -3.5572400303    -1.2087033582     1.4302481895
   25      H      -5.1876444400     0.4652399184     1.8743426089
   26      H      -4.1569785144    -2.4796027045    -1.0165267729
   27      H      -6.0568895257    -3.5992593161     0.2338103798
   28      H      -5.0343964585    -3.0303917661     1.5896436546
   29      H      -7.7469363194    -2.0308139894     0.8307868183
   30      H      -6.7312423927    -1.3886838380     2.1578505996
   31      H      -7.1744686889     0.2336901878    -0.1111838594
   32      O       2.6160679278    -0.5254547528     1.1831489250
   33      C       4.4405761895    -3.5254377975    -0.0435351294
   34      C       5.8711753826     1.1422415169     0.7990197638
   35      C       6.3800682503     2.4416346764     0.0631936296
   36      C       5.0182611351     3.0256100432    -0.4681473409
   37      C       3.9741646125     2.0381323466     0.1920071042
   38      O       4.6256206164     1.6053747854     1.4514621408
   39      H       6.0024762541     0.2776782461    -1.2329455707
   40      H       3.7358372428     0.8178265790    -1.7088304173
   41      H       4.5630072413    -3.7168112025     1.0420498507
   42      H       6.5672283374     0.7016812566     1.5390348764
   43      H       6.8560698401     3.1263829191     0.7833693396
   44      H       7.0974420312     2.2182065790    -0.7424479208
   45      H       4.8521621044     4.0562591938    -0.1173910178
   46      H       4.9523357996     3.0135809379    -1.5680630764
   47      H       2.9808769206     2.4795178780     0.4034332559
   48      H       5.3032648889    -3.9688272045    -0.5815015283
   49      H       3.5012721581    -3.9893592144    -0.3965794946
   50      H      -3.4734881765     4.4902144586     1.1453491110
   51      H      -4.8279694990     4.3381619311    -0.0455371352
   52      H      -3.1948007854     3.7019931963    -0.4605278056
   53      H      -0.6854086627     0.2858256143    -1.3879930962
   54      H      -0.6554397837    -1.2826600936    -2.2914188886
   55      H       0.5594871196    -1.0555554541     0.5778323649
   56      H       0.8918875567    -2.3140180931    -0.6654854568
 ----------------------------------------------------------------

    9   -1510.2776354699      2.94E-09 Convergence criterion met
 Total energy in the final basis set = -1510.27763547
 Final energy is   -1510.27763546988
 **  OPTIMIZATION CONVERGED  **

                    Orbital Energies (a.u.)
 --------------------------------------------------------------

 Alpha MOs
 -- Occupied --
-18.942 -18.939 -18.926 -18.920 -18.889 -18.888 -18.887 -18.878
-18.866 -18.859 -10.108 -10.104 -10.097 -10.088 -10.072 -10.069
-10.069 -10.061 -10.061 -10.061 -10.057 -10.053 -10.041 -10.040
-10.038 -10.033 -10.022 -10.021 -10.021 -10.019  -1.020  -1.017
 -1.004  -0.996  -0.971  -0.970  -0.945  -0.940  -0.930  -0.922
 -0.765  -0.763  -0.728  -0.723  -0.714  -0.706  -0.696  -0.666
 -0.654  -0.618  -0.597  -0.577  -0.547  -0.544  -0.539  -0.537
 -0.516  -0.511  -0.484  -0.472  -0.459  -0.459  -0.453  -0.451
 -0.440  -0.433  -0.431  -0.416  -0.412  -0.408  -0.402  -0.401
 -0.395  -0.383  -0.372  -0.366  -0.361  -0.354  -0.352  -0.349
 -0.343  -0.338  -0.333  -0.332  -0.329  -0.326  -0.322  -0.315
 -0.314  -0.307  -0.305  -0.301  -0.296  -0.291  -0.276  -0.274
 -0.272  -0.256  -0.250  -0.246  -0.243  -0.234  -0.234  -0.186
 -0.181  -0.168  -0.166  -0.162  -0.158  -0.150  -0.144  -0.142
 -0.139

          Ground-State Mulliken Net Atomic Charges

     Atom                 Charge (a.u.)
  ----------------------------------------
      1 O                    -0.213038
      2 C                     0.211696
      3 C                    -0.079509
      4 C                    -0.078053
      5 C                     0.218641
      6 O                    -0.176531
      7 C                    -0.051892
      8 C                    -0.054747
      9 O                    -0.174390
     10 C                     0.215309
     11 C                    -0.078080
     12 C                    -0.081064
     13 C                     0.214017
     14 O                    -0.214811
     15 O                    -0.168010
     16 O                    -0.173901
     17 O                    -0.207031
     18 C                    -0.128377
     19 C                     0.025537
     20 C                    -0.143103
     21 C                    -0.144810
     22 C                     0.026074
     23 O                    -0.186846
     24 H                     0.087356
     25 H                     0.084675
     26 H                     0.086158
     27 H                     0.078166
     28 H                     0.073697
     29 H                     0.078030
     30 H                     0.073583
     31 H                     0.086072
     32 O                    -0.216325
     33 C                    -0.126457
     34 C                     0.025777
     35 C                    -0.141931
     36 C                    -0.145330
     37 C                     0.025582
     38 O                    -0.185162
     39 H                     0.085057
     40 H                     0.086906
     41 H                     0.092417
     42 H                     0.088592
     43 H                     0.078729
     44 H                     0.073972
     45 H                     0.078689
     46 H                     0.073898
     47 H                     0.083091
     48 H                     0.091832
     49 H                     0.090750
     50 H                     0.086225
     51 H                     0.086290
     52 H                     0.092362
     53 H                     0.104107
     54 H                     0.086304
     55 H                     0.098197
     56 H                     0.081608
  ----------------------------------------
  Sum of atomic charges =    -0.000000

                    Cartesian Multipole Moments
 -----------------------------------------------------------------
    Charge (ESU x 10^10)
                -0.0000
    Dipole Moment (Debye)
         X       0.6469      Y      -0.9155      Z      -0.1373
       Tot       1.1294
    Quadrupole Moments (Debye-Ang)
        XX    -163.2401     XY      10.0498     YY    -147.8019
        XZ     -22.6070     YZ       0.4059     ZZ    -165.2836

 Total job time:  52.62s(wall), 2500.00s(cpu)
        *  Thank you very much for using Q-Chem.  Have a nice day.  *
