 Q-Chem 5.0, Q-Chem, Inc., Pleasanton, CA (2017)
 Q-Chem 5.0.1 for Intel X86 EM64T Linux

User input:
--------------------------------------------------------------
$molecule
0  1
O 6.5716058515 -1.9719552526 0.3574358237
C 5.5204609891 -1.3892199665 0.0134581762
C 5.3764929404 0.1342203998 -0.3310082565
C 3.9219764233 0.6768327498 -0.6304518218
C 2.7715338089 -0.196824626 -0.0121204474
O 1.7887627826 -0.4122207605 -1.0405728792
C 0.6725777943 -1.2348316014 -0.5140393571
C -0.6266466587 -0.8198686894 -1.2825115991
O -1.8055455598 -1.2858963424 -0.5084621475
C -2.7373454544 -0.216912674 -0.3156087191
C -3.9534694678 -0.779632144 0.4915557462
C -5.0828060092 0.2906367549 0.7892210871
C -4.858513387 1.6766356408 0.0770647932
O -5.1900017157 1.9992854651 -1.0831181572
O 4.3111515914 -2.0785260782 -0.3256091126
O -4.2437113615 2.562602687 1.0235536665
O -2.5557315473 0.9563244424 -0.7121353711
C -3.9214043639 3.8479663665 0.3648650742
C -4.7714639671 -1.8797734325 -0.3173440793
C -5.6273850924 -2.708127445 0.719041056
C -6.742328121 -1.6610518571 1.0903473672
C -6.344076338 -0.4444844687 0.1644762085
O -5.7871770265 -1.0908166469 -1.0475276467
H -3.5572400303 -1.2087033582 1.4302481895
H -5.18764444 0.4652399184 1.8743426089
H -4.1569785144 -2.4796027045 -1.0165267729
H -6.0568895257 -3.5992593161 0.2338103798
H -5.0343964585 -3.0303917661 1.5896436546
H -7.7469363194 -2.0308139894 0.8307868183
H -6.7312423927 -1.388683838 2.1578505996
H -7.1744686889 0.2336901878 -0.1111838594
O 2.6160679278 -0.5254547528 1.183148925
C 4.4405761895 -3.5254377975 -0.0435351294
C 5.8711753826 1.1422415169 0.7990197638
C 6.3800682503 2.4416346764 0.0631936296
C 5.0182611351 3.0256100432 -0.4681473409
C 3.9741646125 2.0381323466 0.1920071042
O 4.6256206164 1.6053747854 1.4514621408
H 6.0024762541 0.2776782461 -1.2329455707
H 3.7358372428 0.817826579 -1.7088304173
H 4.5630072413 -3.7168112025 1.0420498507
H 6.5672283374 0.7016812566 1.5390348764
H 6.8560698401 3.1263829191 0.7833693396
H 7.0974420312 2.218206579 -0.7424479208
H 4.8521621044 4.0562591938 -0.1173910178
H 4.9523357996 3.0135809379 -1.5680630764
H 2.9808769206 2.479517878 0.4034332559
H 5.3032648889 -3.9688272045 -0.5815015283
H 3.5012721581 -3.9893592144 -0.3965794946
H -3.4734881765 4.4902144586 1.145349111
H -4.827969499 4.3381619311 -0.0455371352
H -3.1948007854 3.7019931963 -0.4605278056
H -0.6854086627 0.2858256143 -1.3879930962
H -0.6554397837 -1.2826600936 -2.2914188886
H 0.5594871196 -1.0555554541 0.5778323649
H 0.8918875567 -2.3140180931 -0.6654854568
$end

$rem
JOBTYPE                   OPT
METHOD                    B3LYP
DFT_D                     d3_op
BASIS                     STO-3G
GEOM_OPT_MAX_CYCLES       100
GEOM_OPT_TOL_GRADIENT     300
GEOM_OPT_TOL_DISPLACEMENT 1200
GEOM_OPT_TOL_ENERGY       100
SYMMETRY                  False
THRESH                    12
SCF_CONVERGENCE           8
MAX_SUB_FILE_NUM          128
MEM_STATIC                400
MEM_TOTAL                 4000
$end
--------------------------------------------------------------

   16   -1510.2776657984      6.87E-09 Convergence criterion met
 Total energy in the final basis set = -1510.27766580
   13   -1510.2795551084      2.45E-09 Convergence criterion met
 Total energy in the final basis set = -1510.27955511
   13   -1510.2809664712      4.27E-09 Convergence criterion met
 Total energy in the final basis set = -1510.28096647
   13   -1510.2821923037      7.32E-09 Convergence criterion met
 Total energy in the final basis set = -1510.28219230
   13   -1510.2831128021      4.86E-09 Convergence criterion met
 Total energy in the final basis set = -1510.28311280
   13   -1510.2840072950      6.76E-09 Convergence criterion met
 Total energy in the final basis set = -1510.28400729
   13   -1510.2847186495      5.80E-09 Convergence criterion met
 Total energy in the final basis set = -1510.28471865
   13   -1510.2853718326      9.43E-09 Convergence criterion met
   11   -1510.2921574681      9.02E-09 Convergence criterion met
 Total energy in the final basis set = -1510.29215747
   12   -1510.2921625736      2.20E-09 Convergence criterion met
 Total energy in the final basis set = -1510.29216257
   12   -1510.2921686583      2.73E-09 Convergence criterion met
 Total energy in the final basis set = -1510.29216866
   12   -1510.2921526306      1.81E-09 Convergence criterion met
 Total energy in the final basis set = -1510.29215263
   11   -1510.2921671499      7.49E-09 Convergence criterion met
 Total energy in the final basis set = -1510.29216715
   10   -1510.2921688957      7.56E-09 Convergence criterion met
 Total energy in the final basis set = -1510.29216890

             Standard Nuclear Orientation (Angstroms)
    I     Atom           X                Y                Z
 ----------------------------------------------------------------
    1      O      -4.2179390199    -1.0418157409     2.6414982195
    2      C      -4.0725126051    -0.3629731746     1.6037620011
    3      C      -4.7178305820    -0.6229297525     0.1956272847
    4      C      -3.7012404794    -0.5153760358    -1.0196826202
    5      C      -2.2530368641    -0.0848017162    -0.6023462071
    6      O      -2.0430147055     1.2546249927    -1.0585819796
    7      C      -0.6896564771     1.7385134571    -0.6922666289
    8      C       0.3964016340     1.2296704063    -1.7078536041
    9      O       1.7168920202     1.7349255530    -1.2675386008
   10      C       2.6098638903     0.6346513427    -1.0160377284
   11      C       3.9446787440     1.2283755434    -0.4576924624
   12      C       4.2479811675     0.8131198694     1.0446849535
   13      C       3.1981911114    -0.1773553145     1.6657146724
   14      O       3.4438584166    -1.2445897405     2.2679219099
   15      O      -3.2715370784     0.8229957156     1.5242524131
   16      O       1.8855205365     0.3420351419     1.4346113908
   17      O       2.3393273403    -0.5594798362    -1.2684783368
   18      C       0.8508592098    -0.5987938336     1.9333806856
   19      C       5.2179165212     0.6201645680    -1.1910481761
   20      C       6.4534009864     1.5570412267    -0.8882072576
   21      C       6.7553644953     1.1846949773     0.6114637398
   22      C       5.6482302936     0.0932523758     0.8841562704
   23      O       5.5149880072    -0.6049151431    -0.4167620714
   24      H       3.8943808453     2.3260834274    -0.5638342714
   25      H       4.3112206377     1.7083139579     1.6906577239
   26      H       5.0590866475     0.3744819026    -2.2589563144
   27      H       7.2990804472     1.2997436457    -1.5456545298
   28      H       6.2118256308     2.6234012954    -1.0238860353
   29      H       7.7614274836     0.7508687571     0.7252331178
   30      H       6.6643975429     2.0476234328     1.2905372340
   31      H       5.8670287887    -0.6330750128     1.6908986803
   32      O      -1.3951728911    -0.7919085834    -0.0258397319
   33      C      -2.5847588802     1.0647589701     2.8134217069
   34      C      -5.1765299583    -2.1338044391     0.0756918085
   35      C      -6.1252340957    -2.2845972259    -1.1764444575
   36      C      -5.0869679125    -2.2116686891    -2.3575537745
   37      C      -3.7371486001    -2.0109181676    -1.5620859363
   38      O      -3.9317953680    -2.8221733155    -0.3396426723
   39      H      -5.5612293508     0.0802755793     0.0640291150
   40      H      -4.0648509034     0.2044395907    -1.7736825931
   41      H      -1.9736312698     0.1906871838     3.1160331067
   42      H      -5.5552952836    -2.5584898204     1.0258059274
   43      H      -6.6413572951    -3.2574140833    -1.1524155255
   44      H      -6.8819482936    -1.4848794883    -1.2236997486
   45      H      -5.0586484482    -3.1532725325    -2.9285581214
   46      H      -5.2887736237    -1.3813023678    -3.0528964519
   47      H      -2.8192209085    -2.3279631375    -2.0939008331
   48      H      -3.3082050005     1.2889618888     3.6236906109
   49      H      -1.9288038842     1.9394270079     2.6498769415
   50      H       0.4364713108    -0.2129625671     2.8864122553
   51      H       1.3025965609    -1.5929375541     2.1159290695
   52      H       0.0446003989    -0.6639071673     1.1662796530
   53      H       0.4322122154     0.1180523530    -1.7265696929
   54      H       0.1811861775     1.6156163946    -2.7262547143
   55      H      -0.4105867743     1.4168781840     0.3324745133
   56      H      -0.7502609082     2.8449025439    -0.7219575776
 ----------------------------------------------------------------

    9   -1510.2921683219      5.12E-09 Convergence criterion met
 Total energy in the final basis set = -1510.29216832
 Final energy is   -1510.29216832193
 **  OPTIMIZATION CONVERGED  **

                    Orbital Energies (a.u.)
 --------------------------------------------------------------

 Alpha MOs
 -- Occupied --
-18.943 -18.941 -18.927 -18.926 -18.889 -18.885 -18.885 -18.881
-18.872 -18.871 -10.110 -10.106 -10.097 -10.095 -10.073 -10.071
-10.064 -10.062 -10.060 -10.058 -10.055 -10.043 -10.041 -10.036
-10.036 -10.035 -10.023 -10.021 -10.019 -10.018  -1.022  -1.014
 -1.009  -1.002  -0.972  -0.967  -0.945  -0.943  -0.933  -0.930
 -0.767  -0.761  -0.728  -0.722  -0.713  -0.705  -0.695  -0.668
 -0.649  -0.620  -0.598  -0.581  -0.549  -0.542  -0.540  -0.535
 -0.514  -0.506  -0.485  -0.475  -0.466  -0.457  -0.456  -0.448
 -0.437  -0.432  -0.428  -0.420  -0.415  -0.407  -0.404  -0.398
 -0.393  -0.382  -0.379  -0.365  -0.361  -0.357  -0.356  -0.353
 -0.351  -0.336  -0.334  -0.332  -0.328  -0.325  -0.323  -0.313
 -0.308  -0.307  -0.303  -0.302  -0.294  -0.289  -0.284  -0.277
 -0.269  -0.258  -0.257  -0.244  -0.241  -0.236  -0.231  -0.189
 -0.184  -0.172  -0.165  -0.163  -0.157  -0.155  -0.148  -0.146
 -0.141

          Ground-State Mulliken Net Atomic Charges

     Atom                 Charge (a.u.)
  ----------------------------------------
      1 O                    -0.205655
      2 C                     0.213371
      3 C                    -0.077868
      4 C                    -0.079327
      5 C                     0.220891
      6 O                    -0.167916
      7 C                    -0.049872
      8 C                    -0.058918
      9 O                    -0.175051
     10 C                     0.215118
     11 C                    -0.079318
     12 C                    -0.077934
     13 C                     0.213348
     14 O                    -0.209985
     15 O                    -0.171103
     16 O                    -0.178333
     17 O                    -0.212996
     18 C                    -0.152057
     19 C                     0.025728
     20 C                    -0.143687
     21 C                    -0.144396
     22 C                     0.024176
     23 O                    -0.186330
     24 H                     0.085532
     25 H                     0.083841
     26 H                     0.083628
     27 H                     0.077852
     28 H                     0.072844
     29 H                     0.078238
     30 H                     0.072548
     31 H                     0.091445
     32 O                    -0.218382
     33 C                    -0.128627
     34 C                     0.024256
     35 C                    -0.144277
     36 C                    -0.143658
     37 C                     0.025677
     38 O                    -0.186094
     39 H                     0.086193
     40 H                     0.086788
     41 H                     0.093854
     42 H                     0.091362
     43 H                     0.079293
     44 H                     0.073186
     45 H                     0.079235
     46 H                     0.073509
     47 H                     0.085868
     48 H                     0.090396
     49 H                     0.091112
     50 H                     0.071323
     51 H                     0.097834
     52 H                     0.112798
     53 H                     0.104152
     54 H                     0.081748
     55 H                     0.094895
     56 H                     0.089749
  ----------------------------------------
  Sum of atomic charges =     0.000000

                    Cartesian Multipole Moments
 -----------------------------------------------------------------
    Charge (ESU x 10^10)
                -0.0000
    Dipole Moment (Debye)
         X      -1.8587      Y       4.4431      Z      -1.1542
       Tot       4.9525
    Quadrupole Moments (Debye-Ang)
        XX    -144.1873     XY      10.3272     YY    -166.0504
        XZ       6.2136     YZ       6.5360     ZZ    -155.9169

 Total job time:  141.66s(wall), 6753.10s(cpu)
        *  Thank you very much for using Q-Chem.  Have a nice day.  *
