 Q-Chem 5.0, Q-Chem, Inc., Pleasanton, CA (2017)
 Q-Chem 5.0.1 for Intel X86 EM64T Linux

User input:
--------------------------------------------------------------
$molecule
0  1
O -3.800844249 0.8441590383 1.6674231348
C -4.1278735063 1.2268946809 0.5231694181
C -4.2601294146 0.3643905323 -0.7803511107
C -3.1881511007 -0.7959882895 -0.8764976083
C -1.9960528868 -0.675838264 0.1370552779
O -1.5385253777 0.6821887931 0.1223818191
C -0.5096053895 0.8888973278 1.167576157
C 0.2768720925 2.2029073971 0.7777613753
O 1.752759961 2.1101012481 0.8995857027
C 2.2698126386 1.0071181958 0.1354300845
C 3.838640237 1.114082795 0.1308624565
C 4.5673221939 -0.2614835565 0.3982342048
C 3.7178518633 -1.3218995639 1.1791416964
O 2.4851855831 -1.3507346447 1.3843878061
O -4.4909718132 2.5767031276 0.2044073878
O 4.6195131712 -2.3433331547 1.6229448486
O 1.5699511869 0.2676762306 -0.5888611596
C 3.8673914425 -3.4125385947 2.3203157734
C 4.2669270417 1.3517444436 -1.3835211757
C 5.830222075 1.5737820991 -1.4752933624
C 6.3624024436 0.0955814751 -1.3709017651
C 5.0177966396 -0.6760465529 -1.0760100884
O 4.0545906151 0.0059070407 -1.9680199934
H 4.1650259693 1.9133434384 0.8181751914
H 5.4733599096 -0.0910119253 1.0083283851
H 3.6544117953 2.1040301341 -1.9173163241
H 6.0998076961 2.0366764636 -2.4375600578
H 6.1999136096 2.2157893623 -0.6596481558
H 6.7927979562 -0.2433960884 -2.3270203492
H 7.1123564155 -0.0387125543 -0.5752379384
H 5.0351055582 -1.7655004987 -1.2723988799
O -1.5019087519 -1.5865001401 0.8335492343
C -4.4098046046 3.4183140614 1.4200612697
C -5.59185284 -0.5038672774 -0.6865608892
C -5.84614693 -1.2221586251 -2.0724714485
C -4.8168666389 -2.4117122293 -1.9992189737
C -4.0837719095 -2.0827623043 -0.6420733926
O -5.1888313238 -1.6020685026 0.221403013
H -4.248332314 1.0302024566 -1.6602371511
H -2.7504169769 -0.8113689133 -1.8925980394
H -3.384508482 3.4241199225 1.8434278688
H -6.4639357593 0.0403305102 -0.2744060845
H -6.8841094723 -1.5854642345 -2.1351724138
H -5.6556706841 -0.5495400563 -2.9242285848
H -5.3314884711 -3.3836086571 -1.9308691625
H -4.126481375 -2.4361927089 -2.8573297488
H -3.5467902719 -2.9226845627 -0.1593157893
H -5.1108528932 3.0711209481 2.2066432285
H -4.685944083 4.4411066812 1.1040636864
H 4.6159495678 -4.172197503 2.6114646565
H 3.1059186092 -3.8734206488 1.658638478
H 3.3570641522 -3.0281376659 3.227046532
H -0.0046051081 2.4624670213 -0.2680640693
H -0.008542391 3.0431004038 1.4407012456
H 0.165341197 0.0097917886 1.2340280269
H -1.0137455473 1.0146031479 2.1512790484
$end

$rem
JOBTYPE                   OPT
METHOD                    B3LYP
DFT_D                     d3_op
BASIS                     STO-3G
GEOM_OPT_MAX_CYCLES       100
GEOM_OPT_TOL_GRADIENT     300
GEOM_OPT_TOL_DISPLACEMENT 1200
GEOM_OPT_TOL_ENERGY       100
SYMMETRY                  False
THRESH                    12
SCF_CONVERGENCE           8
MAX_SUB_FILE_NUM          128
MEM_STATIC                400
MEM_TOTAL                 4000
$end
--------------------------------------------------------------

   16   -1510.2734639967      5.96E-09 Convergence criterion met
 Total energy in the final basis set = -1510.27346400
   14   -1510.2777513169      1.62E-09 Convergence criterion met
 Total energy in the final basis set = -1510.27775132
   14   -1510.2809292651      5.74E-09 Convergence criterion met
 Total energy in the final basis set = -1510.28092927
   13   -1510.2826560552      5.22E-09 Convergence criterion met
 Total energy in the final basis set = -1510.28265606
   12   -1510.2840953199      9.20E-09 Convergence criterion met
 Total energy in the final basis set = -1510.28409532
   13   -1510.2851873726      7.73E-09 Convergence criterion met
 Total energy in the final basis set = -1510.28518737
   12   -1510.2861111244      8.99E-09 Convergence criterion met
 Total energy in the final basis set = -1510.28611112
   13   -1510.2867860827      4.45E-09 Convergence criterion met
   12   -1510.2971380183      7.50E-09 Convergence criterion met
 Total energy in the final basis set = -1510.29713802
   12   -1510.2971807496      2.95E-09 Convergence criterion met
 Total energy in the final basis set = -1510.29718075
   11   -1510.2971804643      3.42E-09 Convergence criterion met
 Total energy in the final basis set = -1510.29718046
   11   -1510.2971916319      3.69E-09 Convergence criterion met
 Total energy in the final basis set = -1510.29719163
   11   -1510.2971932860      7.28E-09 Convergence criterion met
 Total energy in the final basis set = -1510.29719329
   10   -1510.2971973182      8.84E-09 Convergence criterion met
 Total energy in the final basis set = -1510.29719732

             Standard Nuclear Orientation (Angstroms)
    I     Atom           X                Y                Z
 ----------------------------------------------------------------
    1      O      -3.2947747844     1.1644107745     1.7130514373
    2      C      -3.7002940976     0.6996119413     0.6226370190
    3      C      -2.8215675727     0.1198230049    -0.5323132376
    4      C      -1.2853829906     0.1198100731    -0.1668918597
    5      C      -0.9370568550     0.7818732146     1.2217744130
    6      O      -0.7744747352     2.1864260361     0.9824502529
    7      C       0.0670072615     2.8174392377     2.0202840255
    8      C       1.2467352329     3.5630044162     1.2918301898
    9      O       2.3060538207     2.6409548714     0.8079401864
   10      C       1.9234127558     1.9950827150    -0.4070165027
   11      C       3.0602368283     1.0049671885    -0.8563425753
   12      C       3.0915281324    -0.4115352430    -0.1309639276
   13      C       2.2696683495    -0.5458704118     1.2049964554
   14      O       2.1735528680     0.3034670017     2.1162033955
   15      O      -5.0765478026     0.6138304385     0.2529248499
   16      O       1.7129811923    -1.8653480185     1.2861433369
   17      O       0.8763607687     2.2343193754    -1.0492236994
   18      C       1.0564386435    -2.0524987567     2.6102432013
   19      C       2.7550713384     0.5522369224    -2.3439120849
   20      C       4.0030456741    -0.2122753288    -2.9379532392
   21      C       3.8582773665    -1.6221442882    -2.2531146093
   22      C       2.6191593399    -1.3687688131    -1.3113266676
   23      O       1.7437455296    -0.5123168250    -2.1433080702
   24      H       4.0341330107     1.5165892300    -0.7530708439
   25      H       4.1385051016    -0.6473099025     0.1394941376
   26      H       2.3401315568     1.3574520352    -2.9800680186
   27      H       3.9280950403    -0.2831012466    -4.0345268510
   28      H       4.9503924356     0.2878286399    -2.6805244421
   29      H       3.6217654633    -2.4047671536    -2.9917345198
   30      H       4.7583388727    -1.9233437184    -1.6942160736
   31      H       2.0786884746    -2.2715919945    -0.9702243222
   32      O      -0.6576665396     0.2300911459     2.3116253961
   33      C      -5.9302364014     1.1358296057     1.3460453542
   34      C      -3.0782220948    -1.4355493151    -0.7425980904
   35      C      -2.4077299421    -1.8547755934    -2.1119582334
   36      C      -0.8897290987    -1.8926346584    -1.7038172973
   37      C      -0.9635872768    -1.4333715471    -0.1980542172
   38      O      -2.2180419043    -2.0574869389     0.2890252277
   39      H      -3.0304095589     0.6902486828    -1.4555922285
   40      H      -0.6921559077     0.6748450716    -0.9196837575
   41      H      -5.7093294606     2.2009630595     1.5623713331
   42      H      -4.1346607055    -1.7423508197    -0.6140198192
   43      H      -2.7682459395    -2.8450502131    -2.4333430817
   44      H      -2.6191604293    -1.1262197343    -2.9108497300
   45      H      -0.4902978559    -2.9176890743    -1.7627996045
   46      H      -0.2365724317    -1.2261678924    -2.2934206850
   47      H      -0.0848390996    -1.7301005855     0.4105691426
   48      H      -5.7982789430     0.5516976975     2.2797101363
   49      H      -6.9726820148     1.0378403731     0.9912745345
   50      H       0.6319436294    -3.0721602138     2.5905918029
   51      H       0.2526061240    -1.2859025982     2.7276376661
   52      H       1.7930117952    -1.9668963185     3.4332275796
   53      H       0.8336429890     4.1589297919     0.4492827753
   54      H       1.7560909803     4.2370153364     2.0101246628
   55      H       0.4537943395     2.0385181238     2.7141312595
   56      H      -0.5343647680     3.5577135245     2.5914291679
 ----------------------------------------------------------------

   10   -1510.2971973683      6.56E-09 Convergence criterion met
 Total energy in the final basis set = -1510.29719737
 Final energy is   -1510.29719736834
 **  OPTIMIZATION CONVERGED  **

                    Orbital Energies (a.u.)
 --------------------------------------------------------------

 Alpha MOs
 -- Occupied --
-18.938 -18.934 -18.930 -18.913 -18.891 -18.881 -18.874 -18.874
-18.873 -18.863 -10.100 -10.098 -10.097 -10.090 -10.069 -10.065
-10.061 -10.059 -10.058 -10.050 -10.039 -10.038 -10.036 -10.035
-10.030 -10.022 -10.021 -10.018 -10.007  -9.997  -1.015  -1.012
 -1.006  -0.994  -0.973  -0.957  -0.938  -0.936  -0.931  -0.922
 -0.763  -0.751  -0.724  -0.712  -0.707  -0.702  -0.688  -0.661
 -0.648  -0.612  -0.592  -0.574  -0.545  -0.539  -0.533  -0.522
 -0.510  -0.503  -0.477  -0.470  -0.460  -0.454  -0.447  -0.441
 -0.433  -0.420  -0.417  -0.413  -0.409  -0.405  -0.402  -0.399
 -0.389  -0.373  -0.369  -0.369  -0.359  -0.352  -0.348  -0.343
 -0.340  -0.334  -0.331  -0.327  -0.324  -0.318  -0.313  -0.312
 -0.307  -0.300  -0.294  -0.291  -0.288  -0.280  -0.276  -0.271
 -0.264  -0.252  -0.249  -0.245  -0.235  -0.229  -0.220  -0.187
 -0.180  -0.171  -0.159  -0.154  -0.153  -0.147  -0.142  -0.137
 -0.132

          Ground-State Mulliken Net Atomic Charges

     Atom                 Charge (a.u.)
  ----------------------------------------
      1 O                    -0.204350
      2 C                     0.215333
      3 C                    -0.078006
      4 C                    -0.086687
      5 C                     0.223583
      6 O                    -0.175545
      7 C                    -0.054090
      8 C                    -0.047734
      9 O                    -0.164077
     10 C                     0.208152
     11 C                    -0.078572
     12 C                    -0.079572
     13 C                     0.205045
     14 O                    -0.207509
     15 O                    -0.168277
     16 O                    -0.175385
     17 O                    -0.210991
     18 C                    -0.148298
     19 C                     0.025348
     20 C                    -0.145322
     21 C                    -0.142947
     22 C                     0.022355
     23 O                    -0.192654
     24 H                     0.085263
     25 H                     0.084955
     26 H                     0.087682
     27 H                     0.078177
     28 H                     0.073642
     29 H                     0.078105
     30 H                     0.073802
     31 H                     0.094450
     32 O                    -0.221978
     33 C                    -0.128007
     34 C                     0.024491
     35 C                    -0.144565
     36 C                    -0.151269
     37 C                     0.013188
     38 O                    -0.195565
     39 H                     0.087963
     40 H                     0.101107
     41 H                     0.090322
     42 H                     0.082427
     43 H                     0.073775
     44 H                     0.071710
     45 H                     0.069512
     46 H                     0.092016
     47 H                     0.092636
     48 H                     0.091566
     49 H                     0.091395
     50 H                     0.084560
     51 H                     0.123389
     52 H                     0.080180
     53 H                     0.093034
     54 H                     0.089547
     55 H                     0.108940
     56 H                     0.083745
  ----------------------------------------
  Sum of atomic charges =    -0.000000

                    Cartesian Multipole Moments
 -----------------------------------------------------------------
    Charge (ESU x 10^10)
                 0.0000
    Dipole Moment (Debye)
         X       1.1751      Y       0.7471      Z      -1.5252
       Tot       2.0653
    Quadrupole Moments (Debye-Ang)
        XX    -139.8608     XY      -3.7116     YY    -154.5947
        XZ      -4.5589     YZ       2.5744     ZZ    -161.1428

 Total job time:  189.53s(wall), 9042.81s(cpu)
        *  Thank you very much for using Q-Chem.  Have a nice day.  *
