 Q-Chem 5.0, Q-Chem, Inc., Pleasanton, CA (2017)
 Q-Chem 5.0.1 for Intel X86 EM64T Linux

User input:
--------------------------------------------------------------
$molecule
0  1
O -3.94934 -3.66094 2.70899
C -3.26408 -4.56952 2.26188
C -3.36658 -6.02376 2.66595
C -3.69705 -6.32252 4.13748
C -4.06311 -5.13566 5.00088
O -3.18779 -4.11141 4.77693
C -3.54939 -2.90334 5.45448
C -2.34242 -1.97659 5.55679
O -2.26056 -1.42384 6.87991
C -2.22775 -2.32918 7.88907
C -1.92947 -1.70391 9.23098
C -2.81552 -2.19485 10.38518
C -3.60298 -3.46239 10.12069
O -3.3895 -4.25308 9.21305
O -2.2224 -4.25458 1.44804
O -4.52186 -3.79113 11.06647
O -1.83114 -3.46916 7.65731
C -5.29453 -4.93312 11.03522
C -0.53565 -2.05995 9.79623
C -0.0961 -0.98759 10.79234
C -1.0487 -1.25981 11.94017
C -1.73918 -2.52977 11.42842
O -0.75863 -3.16285 10.64162
H -1.97808 -0.59601 9.11521
H -3.54767 -1.41389 10.68777
H 0.23705 -2.1936 9.00777
H 0.93531 -1.25667 11.11563
H -0.09636 0.05714 10.41379
H -0.44763 -1.46807 12.85288
H -1.78946 -0.45616 12.14342
H -2.14375 -3.12578 12.27625
O -5.12254 -5.02767 5.6111
C -1.92332 -2.97465 1.03016
C -4.59365 -6.68596 1.99626
C -4.37969 -8.19524 1.89755
C -4.5067 -8.59187 3.35288
C -4.91412 -7.248 3.96907
O -5.6271 -6.5989 2.94729
H -2.45962 -6.55247 2.29293
H -2.8365 -6.81312 4.64303
H -1.70435 -2.3273 1.90646
H -4.82247 -6.26999 0.99004
H -5.25311 -8.60567 1.34116
H -3.44377 -8.52214 1.39561
H -5.32513 -9.34021 3.44275
H -3.57743 -8.98328 3.8209
H -5.46183 -7.41589 4.9222
H -2.77411 -2.55201 0.45399
H -1.02829 -3.00527 0.37563
H -5.95745 -4.94832 11.92447
H -4.64609 -5.83503 11.05699
H -5.92333 -4.94432 10.11925
H -1.41006 -2.56167 5.38445
H -2.36837 -1.18846 4.77519
H -3.94497 -3.15638 6.45987
H -4.40301 -2.3852 4.96537
$end

$opt
CONSTRAINT
tors           1           2           3           4     -35.508
tors           3           4           5           6     -45.328
tors           4           5           6           7    +173.896
tors           5           6           7           8    +161.053
tors           6           7           8           9    -135.452
tors           7           8           9          10     +55.309
tors           8           9          10          11    +171.172
tors           9          10          11          12    +135.387
tors          11          12          13          14     +16.013
ENDCONSTRAINT
$end

$rem
JOBTYPE                   OPT
METHOD                    B3LYP
DFT_D                     d3_op
BASIS                     STO-3G
GEOM_OPT_MAX_CYCLES       100
GEOM_OPT_TOL_GRADIENT     300
GEOM_OPT_TOL_DISPLACEMENT 1200
GEOM_OPT_TOL_ENERGY       100
SYMMETRY                  False
THRESH                    12
SCF_CONVERGENCE           8
MAX_SUB_FILE_NUM          128
MEM_STATIC                400
MEM_TOTAL                 4000
$end
--------------------------------------------------------------

   15   -1510.1153940524      6.95E-09 Convergence criterion met
 Total energy in the final basis set = -1510.11539405
   14   -1510.1884163005      6.87E-09 Convergence criterion met
 Total energy in the final basis set = -1510.18841630
   14   -1510.2282136264      9.35E-09 Convergence criterion met
 Total energy in the final basis set = -1510.22821363
   14   -1510.2499771921      7.22E-09 Convergence criterion met
 Total energy in the final basis set = -1510.24997719
   14   -1510.2593680142      6.27E-09 Convergence criterion met
 Total energy in the final basis set = -1510.25936801
   13   -1510.2638501293      7.75E-09 Convergence criterion met
 Total energy in the final basis set = -1510.26385013
   13   -1510.2665483786      3.83E-09 Convergence criterion met
 Total energy in the final basis set = -1510.26654838
   13   -1510.2681357967      3.02E-09 Convergence criterion met
   12   -1510.2733759215      6.11E-09 Convergence criterion met
 Total energy in the final basis set = -1510.27337592
   11   -1510.2733971572      7.17E-09 Convergence criterion met
 Total energy in the final basis set = -1510.27339716
   11   -1510.2734276081      6.78E-09 Convergence criterion met
 Total energy in the final basis set = -1510.27342761
   11   -1510.2734416180      5.16E-09 Convergence criterion met
 Total energy in the final basis set = -1510.27344162
    9   -1510.2734583593      9.39E-09 Convergence criterion met
 Total energy in the final basis set = -1510.27345836
    9   -1510.2734604485      7.06E-09 Convergence criterion met
 Total energy in the final basis set = -1510.27346045

             Standard Nuclear Orientation (Angstroms)
    I     Atom           X                Y                Z
 ----------------------------------------------------------------
    1      O      -3.8008442490     0.8441590383     1.6674231348
    2      C      -4.1278735063     1.2268946809     0.5231694181
    3      C      -4.2601294146     0.3643905323    -0.7803511107
    4      C      -3.1881511007    -0.7959882895    -0.8764976083
    5      C      -1.9960528868    -0.6758382640     0.1370552779
    6      O      -1.5385253777     0.6821887931     0.1223818191
    7      C      -0.5096053895     0.8888973278     1.1675761570
    8      C       0.2768720925     2.2029073971     0.7777613753
    9      O       1.7527599610     2.1101012481     0.8995857027
   10      C       2.2698126386     1.0071181958     0.1354300845
   11      C       3.8386402370     1.1140827950     0.1308624565
   12      C       4.5673221939    -0.2614835565     0.3982342048
   13      C       3.7178518633    -1.3218995639     1.1791416964
   14      O       2.4851855831    -1.3507346447     1.3843878061
   15      O      -4.4909718132     2.5767031276     0.2044073878
   16      O       4.6195131712    -2.3433331547     1.6229448486
   17      O       1.5699511869     0.2676762306    -0.5888611596
   18      C       3.8673914425    -3.4125385947     2.3203157734
   19      C       4.2669270417     1.3517444436    -1.3835211757
   20      C       5.8302220750     1.5737820991    -1.4752933624
   21      C       6.3624024436     0.0955814751    -1.3709017651
   22      C       5.0177966396    -0.6760465529    -1.0760100884
   23      O       4.0545906151     0.0059070407    -1.9680199934
   24      H       4.1650259693     1.9133434384     0.8181751914
   25      H       5.4733599096    -0.0910119253     1.0083283851
   26      H       3.6544117953     2.1040301341    -1.9173163241
   27      H       6.0998076961     2.0366764636    -2.4375600578
   28      H       6.1999136096     2.2157893623    -0.6596481558
   29      H       6.7927979562    -0.2433960884    -2.3270203492
   30      H       7.1123564155    -0.0387125543    -0.5752379384
   31      H       5.0351055582    -1.7655004987    -1.2723988799
   32      O      -1.5019087519    -1.5865001401     0.8335492343
   33      C      -4.4098046046     3.4183140614     1.4200612697
   34      C      -5.5918528400    -0.5038672774    -0.6865608892
   35      C      -5.8461469300    -1.2221586251    -2.0724714485
   36      C      -4.8168666389    -2.4117122293    -1.9992189737
   37      C      -4.0837719095    -2.0827623043    -0.6420733926
   38      O      -5.1888313238    -1.6020685026     0.2214030130
   39      H      -4.2483323140     1.0302024566    -1.6602371511
   40      H      -2.7504169769    -0.8113689133    -1.8925980394
   41      H      -3.3845084820     3.4241199225     1.8434278688
   42      H      -6.4639357593     0.0403305102    -0.2744060845
   43      H      -6.8841094723    -1.5854642345    -2.1351724138
   44      H      -5.6556706841    -0.5495400563    -2.9242285848
   45      H      -5.3314884711    -3.3836086571    -1.9308691625
   46      H      -4.1264813750    -2.4361927089    -2.8573297488
   47      H      -3.5467902719    -2.9226845627    -0.1593157893
   48      H      -5.1108528932     3.0711209481     2.2066432285
   49      H      -4.6859440830     4.4411066812     1.1040636864
   50      H       4.6159495678    -4.1721975030     2.6114646565
   51      H       3.1059186092    -3.8734206488     1.6586384780
   52      H       3.3570641522    -3.0281376659     3.2270465320
   53      H      -0.0046051081     2.4624670213    -0.2680640693
   54      H      -0.0085423910     3.0431004038     1.4407012456
   55      H       0.1653411970     0.0097917886     1.2340280269
   56      H      -1.0137455473     1.0146031479     2.1512790484
 ----------------------------------------------------------------

    9   -1510.2734592489      3.06E-09 Convergence criterion met
 Total energy in the final basis set = -1510.27345925
 Final energy is   -1510.27345924887
 **  OPTIMIZATION CONVERGED  **

                    Orbital Energies (a.u.)
 --------------------------------------------------------------

 Alpha MOs
 -- Occupied --
-18.933 -18.929 -18.926 -18.920 -18.889 -18.881 -18.878 -18.866
-18.866 -18.865 -10.099 -10.093 -10.091 -10.090 -10.068 -10.063
-10.061 -10.061 -10.061 -10.057 -10.056 -10.051 -10.037 -10.036
-10.032 -10.029 -10.022 -10.021 -10.016 -10.014  -1.012  -1.007
 -1.003  -0.996  -0.971  -0.964  -0.937  -0.930  -0.927  -0.924
 -0.763  -0.757  -0.724  -0.719  -0.709  -0.702  -0.690  -0.662
 -0.659  -0.612  -0.592  -0.578  -0.545  -0.540  -0.537  -0.532
 -0.513  -0.505  -0.477  -0.465  -0.459  -0.452  -0.446  -0.443
 -0.435  -0.433  -0.425  -0.410  -0.409  -0.408  -0.406  -0.393
 -0.385  -0.375  -0.372  -0.363  -0.360  -0.355  -0.349  -0.346
 -0.338  -0.336  -0.331  -0.328  -0.325  -0.322  -0.319  -0.313
 -0.306  -0.305  -0.300  -0.298  -0.288  -0.282  -0.277  -0.271
 -0.264  -0.255  -0.249  -0.245  -0.241  -0.234  -0.228  -0.178
 -0.174  -0.171  -0.161  -0.155  -0.149  -0.145  -0.142  -0.137
 -0.137

          Ground-State Mulliken Net Atomic Charges

     Atom                 Charge (a.u.)
  ----------------------------------------
      1 O                    -0.215705
      2 C                     0.213808
      3 C                    -0.077463
      4 C                    -0.079447
      5 C                     0.218796
      6 O                    -0.176815
      7 C                    -0.052627
      8 C                    -0.049738
      9 O                    -0.175098
     10 C                     0.211490
     11 C                    -0.079540
     12 C                    -0.080262
     13 C                     0.209137
     14 O                    -0.206910
     15 O                    -0.171365
     16 O                    -0.172253
     17 O                    -0.205918
     18 C                    -0.129074
     19 C                     0.026071
     20 C                    -0.145371
     21 C                    -0.141569
     22 C                     0.026907
     23 O                    -0.183958
     24 H                     0.085825
     25 H                     0.084743
     26 H                     0.082785
     27 H                     0.078395
     28 H                     0.074024
     29 H                     0.078331
     30 H                     0.074548
     31 H                     0.086390
     32 O                    -0.207334
     33 C                    -0.128432
     34 C                     0.024796
     35 C                    -0.144654
     36 C                    -0.142849
     37 C                     0.024341
     38 O                    -0.188692
     39 H                     0.086476
     40 H                     0.084927
     41 H                     0.086764
     42 H                     0.080861
     43 H                     0.077115
     44 H                     0.073255
     45 H                     0.077387
     46 H                     0.073566
     47 H                     0.091530
     48 H                     0.088293
     49 H                     0.088852
     50 H                     0.089968
     51 H                     0.091982
     52 H                     0.089680
     53 H                     0.089921
     54 H                     0.086958
     55 H                     0.112802
     56 H                     0.084345
  ----------------------------------------
  Sum of atomic charges =    -0.000000

                    Cartesian Multipole Moments
 -----------------------------------------------------------------
    Charge (ESU x 10^10)
                 0.0000
    Dipole Moment (Debye)
         X       1.9565      Y       2.0469      Z      -0.7158
       Tot       2.9207
    Quadrupole Moments (Debye-Ang)
        XX    -140.0983     XY      -5.2923     YY    -149.7399
        XZ      10.3535     YZ       3.1208     ZZ    -158.7439

 Total job time:  71.58s(wall), 3406.03s(cpu)
        *  Thank you very much for using Q-Chem.  Have a nice day.  *
