 Q-Chem 5.0, Q-Chem, Inc., Pleasanton, CA (2017)
 Q-Chem 5.0.1 for Intel X86 EM64T Linux

User input:
--------------------------------------------------------------
$molecule
0  1
O -3.94934 -3.66094 2.70899
C -3.26408 -4.56952 2.26188
C -3.36658 -6.02376 2.66595
C -4.56164 -6.42602 3.54565
C -5.61643 -5.36655 3.7759
O -5.4723 -4.83192 5.02443
C -6.2703 -3.66162 5.23144
C -6.74381 -3.59774 6.67983
O -7.86837 -2.71093 6.78842
C -8.68963 -2.93719 7.84364
C -9.851 -1.97365 7.90252
C -11.20291 -2.6102 8.25669
C -11.14275 -4.00796 8.83923
O -10.18171 -4.76102 8.77704
O -2.2797 -4.26728 1.37478
O -12.30311 -4.48511 9.36404
O -8.23532 -3.4425 8.86722
C -12.45267 -5.74436 9.90636
C -9.71368 -0.92856 9.02682
C -10.55644 0.30046 8.69216
C -11.95198 -0.25997 8.87118
C -11.6191 -1.66012 9.40166
O -10.41623 -1.48331 10.10913
H -9.90089 -1.43635 6.92702
H -11.93507 -2.61883 7.41981
H -8.66003 -0.63276 9.2248
H -10.36767 1.04929 9.49479
H -10.35608 0.76697 7.70368
H -12.4748 0.3449 9.64506
H -12.56656 -0.3125 7.94643
H -12.47415 -2.05042 9.996
O -6.32003 -4.90536 2.88155
C -2.02338 -2.99783 0.90065
C -3.63032 -6.93389 1.44488
C -3.18312 -8.3628 1.7529
C -4.2657 -8.79558 2.71933
C -5.1664 -7.55655 2.69897
O -5.03032 -7.061 1.38992
H -2.38782 -6.29668 3.1206
H -4.21335 -6.79169 4.53905
H -1.75816 -2.32113 1.74089
H -3.13783 -6.57795 0.51364
H -3.29212 -8.9531 0.81481
H -2.14185 -8.46043 2.12847
H -4.80062 -9.66742 2.28105
H -3.91678 -9.04127 3.74568
H -6.19884 -7.81887 3.02014
H -2.9137 -2.60259 0.36622
H -1.17083 -3.03941 0.1922
H -13.497 -5.86645 10.25982
H -11.76536 -5.8723 10.76991
H -12.2413 -6.51983 9.1394
H -7.09248 -4.63246 6.91208
H -5.92532 -3.3336 7.38389
H -7.21591 -3.70873 4.64152
H -5.72129 -2.73723 4.95146
$end

$opt
CONSTRAINT
tors           1           2           3           4      +9.772
tors           3           4           5           6    -102.843
tors           4           5           6           7    +169.310
tors           5           6           7           8    +146.080
tors           6           7           8           9    -161.053
tors           7           8           9          10    +155.673
tors           8           9          10          11    -180.000
tors           9          10          11          12    +137.678
tors          11          12          13          14     -16.991
ENDCONSTRAINT
$end

$rem
JOBTYPE                   OPT
METHOD                    B3LYP
DFT_D                     d3_op
BASIS                     STO-3G
GEOM_OPT_MAX_CYCLES       100
GEOM_OPT_TOL_GRADIENT     300
GEOM_OPT_TOL_DISPLACEMENT 1200
GEOM_OPT_TOL_ENERGY       100
SYMMETRY                  False
THRESH                    12
SCF_CONVERGENCE           8
MAX_SUB_FILE_NUM          128
MEM_STATIC                400
MEM_TOTAL                 4000
$end
--------------------------------------------------------------

   15   -1510.1310936275      6.61E-09 Convergence criterion met
 Total energy in the final basis set = -1510.13109363
   13   -1510.2026012469      8.18E-09 Convergence criterion met
 Total energy in the final basis set = -1510.20260125
   13   -1510.2408362740      8.94E-09 Convergence criterion met
 Total energy in the final basis set = -1510.24083627
   14   -1510.2606037614      6.14E-09 Convergence criterion met
 Total energy in the final basis set = -1510.26060376
   13   -1510.2690015160      6.45E-09 Convergence criterion met
 Total energy in the final basis set = -1510.26900152
   13   -1510.2729508081      3.33E-09 Convergence criterion met
 Total energy in the final basis set = -1510.27295081
   13   -1510.2750920522      1.86E-09 Convergence criterion met
 Total energy in the final basis set = -1510.27509205
   12   -1510.2761385997      8.76E-09 Convergence criterion met
   11   -1510.2788739126      5.25E-09 Convergence criterion met
 Total energy in the final basis set = -1510.27887391
   11   -1510.2789020697      4.45E-09 Convergence criterion met
 Total energy in the final basis set = -1510.27890207
    9   -1510.2789221574      9.30E-09 Convergence criterion met
 Total energy in the final basis set = -1510.27892216
   10   -1510.2789331026      5.36E-09 Convergence criterion met
 Total energy in the final basis set = -1510.27893310
   10   -1510.2789395532      7.98E-09 Convergence criterion met
 Total energy in the final basis set = -1510.27893955
    9   -1510.2789410963      6.00E-09 Convergence criterion met
 Total energy in the final basis set = -1510.27894110

             Standard Nuclear Orientation (Angstroms)
    I     Atom           X                Y                Z
 ----------------------------------------------------------------
    1      O       3.8980803296    -1.8271836631     0.2636919161
    2      C       5.0014412469    -1.2986670090    -0.0020839321
    3      C       5.2467852561     0.1382254068    -0.5710265891
    4      C       3.9418225012     1.0350693618    -0.5794866167
    5      C       2.7106827284     0.3706274508     0.1401899953
    6      O       1.8260374447    -0.1243879607    -0.8800119742
    7      C       0.7811632787    -0.9829833672    -0.2713016557
    8      C      -0.5392683192    -0.7909969225    -1.0883269091
    9      O      -1.6588800421    -1.2612105157    -0.2331891623
   10      C      -2.8839299859    -0.6289449740    -0.6293896087
   11      C      -4.0224683104    -1.1669521239     0.3097097051
   12      C      -5.0352807119    -0.0621074072     0.8142294165
   13      C      -4.5156454311     1.4123753316     0.6856234423
   14      O      -3.3384656406     1.7978315842     0.5202448320
   15      O       6.2602611437    -1.9538548086     0.1594883005
   16      O      -5.6355382296     2.2945530235     0.8198664918
   17      O      -2.9957900768     0.1211432803    -1.6219864301
   18      C      -5.1853219985     3.7014494515     0.7143251864
   19      C      -5.0061206983    -2.0503005241    -0.5780595682
   20      C      -6.0513153830    -2.7818982608     0.3574042644
   21      C      -7.0579064275    -1.6128295415     0.6708397393
   22      C      -6.3341153932    -0.4037650972    -0.0393417646
   23      O      -5.8061659229    -1.0187614714    -1.2779002657
   24      H      -3.5679349760    -1.7345612266     1.1399052045
   25      H      -5.2515271050    -0.2231310527     1.8874896352
   26      H      -4.4952470432    -2.7057172108    -1.3098345540
   27      H      -6.5417842163    -3.6086522572    -0.1805182873
   28      H      -5.5749940744    -3.1852680446     1.2653420185
   29      H      -8.0409449806    -1.7943025917     0.2074851136
   30      H      -7.1994795882    -1.4453720542     1.7504873591
   31      H      -6.9705040338     0.4717049952    -0.2720864611
   32      O       2.4548765522     0.3686278824     1.3632976107
   33      C       6.0552370146    -3.3201184796     0.6962005748
   34      C       6.2237646568     1.0142005212     0.3261340982
   35      C       6.7503392092     2.2098351707    -0.5608415415
   36      C       5.4642966661     3.1139905813    -0.6379106263
   37      C       4.4522739966     2.2890552870     0.2506340930
   38      O       5.3138239027     1.6738802177     1.2885419930
   39      H       5.6564218056     0.0274407231    -1.5922189313
   40      H       3.6436932240     1.2998924902    -1.6089342811
   41      H       5.4545121553    -3.9443438716     0.0034221101
   42      H       7.0014134926     0.4284288776     0.8534604881
   43      H       7.5795884120     2.7289027019    -0.0540557945
   44      H       7.0961483104     1.8722469436    -1.5510119954
   45      H       5.6418543231     4.1080562661    -0.1979723073
   46      H       5.0979342387     3.2441462083    -1.6687987032
   47      H       3.6444426560     2.8801902336     0.7233363066
   48      H       5.5465458746    -3.2972485756     1.6814212437
   49      H       7.0643400719    -3.7573602408     0.8084278788
   50      H      -6.0963828221     4.3207435836     0.8075476600
   51      H      -4.6976498939     3.9006435847    -0.2617250282
   52      H      -4.4732711833     3.9646706913     1.5232055161
   53      H      -0.6784894366     0.2807918404    -1.3474709990
   54      H      -0.5086550285    -1.3703906829    -2.0367308189
   55      H       0.6290431166    -0.6810207869     0.7881793378
   56      H       1.1166003489    -2.0422649064    -0.2917030902
 ----------------------------------------------------------------

    9   -1510.2789419480      2.44E-09 Convergence criterion met
 Total energy in the final basis set = -1510.27894195
 Final energy is   -1510.27894194798
 **  OPTIMIZATION CONVERGED  **

                    Orbital Energies (a.u.)
 --------------------------------------------------------------

 Alpha MOs
 -- Occupied --
-18.942 -18.932 -18.922 -18.915 -18.886 -18.885 -18.884 -18.874
-18.863 -18.860 -10.106 -10.098 -10.089 -10.089 -10.069 -10.062
-10.061 -10.059 -10.058 -10.057 -10.056 -10.056 -10.039 -10.035
-10.033 -10.032 -10.019 -10.019 -10.018 -10.018  -1.019  -1.010
 -1.000  -0.995  -0.968  -0.968  -0.943  -0.935  -0.926  -0.921
 -0.762  -0.760  -0.723  -0.720  -0.710  -0.705  -0.690  -0.666
 -0.660  -0.610  -0.594  -0.571  -0.544  -0.541  -0.535  -0.535
 -0.513  -0.509  -0.477  -0.468  -0.459  -0.452  -0.448  -0.444
 -0.438  -0.431  -0.431  -0.415  -0.412  -0.409  -0.408  -0.395
 -0.387  -0.378  -0.374  -0.363  -0.358  -0.356  -0.350  -0.344
 -0.341  -0.332  -0.329  -0.328  -0.326  -0.321  -0.316  -0.313
 -0.310  -0.304  -0.301  -0.298  -0.293  -0.282  -0.277  -0.272
 -0.269  -0.258  -0.253  -0.245  -0.236  -0.232  -0.231  -0.184
 -0.177  -0.168  -0.160  -0.158  -0.154  -0.144  -0.142  -0.141
 -0.138

          Ground-State Mulliken Net Atomic Charges

     Atom                 Charge (a.u.)
  ----------------------------------------
      1 O                    -0.208182
      2 C                     0.214085
      3 C                    -0.078699
      4 C                    -0.080739
      5 C                     0.216178
      6 O                    -0.178624
      7 C                    -0.051406
      8 C                    -0.049648
      9 O                    -0.175653
     10 C                     0.213177
     11 C                    -0.079059
     12 C                    -0.079245
     13 C                     0.212365
     14 O                    -0.209607
     15 O                    -0.168927
     16 O                    -0.172009
     17 O                    -0.211267
     18 C                    -0.128180
     19 C                     0.025656
     20 C                    -0.145058
     21 C                    -0.142548
     22 C                     0.025248
     23 O                    -0.187243
     24 H                     0.086317
     25 H                     0.084124
     26 H                     0.082260
     27 H                     0.077693
     28 H                     0.073715
     29 H                     0.077728
     30 H                     0.073273
     31 H                     0.090240
     32 O                    -0.215109
     33 C                    -0.128021
     34 C                     0.024766
     35 C                    -0.143149
     36 C                    -0.144709
     37 C                     0.025886
     38 O                    -0.187068
     39 H                     0.086017
     40 H                     0.085303
     41 H                     0.089774
     42 H                     0.087802
     43 H                     0.078013
     44 H                     0.073060
     45 H                     0.078066
     46 H                     0.073675
     47 H                     0.086350
     48 H                     0.092931
     49 H                     0.092108
     50 H                     0.090000
     51 H                     0.092058
     52 H                     0.088459
     53 H                     0.098269
     54 H                     0.081943
     55 H                     0.101403
     56 H                     0.086211
  ----------------------------------------
  Sum of atomic charges =    -0.000000

                    Cartesian Multipole Moments
 -----------------------------------------------------------------
    Charge (ESU x 10^10)
                 0.0000
    Dipole Moment (Debye)
         X       0.9006      Y      -0.9795      Z      -0.0695
       Tot       1.3324
    Quadrupole Moments (Debye-Ang)
        XX    -136.0779     XY      -3.2081     YY    -143.8653
        XZ     -18.9555     YZ      -2.6643     ZZ    -164.7314

 Total job time:  56.24s(wall), 2667.00s(cpu)
        *  Thank you very much for using Q-Chem.  Have a nice day.  *
