 Q-Chem 5.0, Q-Chem, Inc., Pleasanton, CA (2017)
 Q-Chem 5.0.1 for Intel X86 EM64T Linux

User input:
--------------------------------------------------------------
$molecule
0  1
O 3.8980803296 -1.8271836631 0.2636919161
C 5.0014412469 -1.298667009 -0.0020839321
C 5.2467852561 0.1382254068 -0.5710265891
C 3.9418225012 1.0350693618 -0.5794866167
C 2.7106827284 0.3706274508 0.1401899953
O 1.8260374447 -0.1243879607 -0.8800119742
C 0.7811632787 -0.9829833672 -0.2713016557
C -0.5392683192 -0.7909969225 -1.0883269091
O -1.6588800421 -1.2612105157 -0.2331891623
C -2.8839299859 -0.628944974 -0.6293896087
C -4.0224683104 -1.1669521239 0.3097097051
C -5.0352807119 -0.0621074072 0.8142294165
C -4.5156454311 1.4123753316 0.6856234423
O -3.3384656406 1.7978315842 0.520244832
O 6.2602611437 -1.9538548086 0.1594883005
O -5.6355382296 2.2945530235 0.8198664918
O -2.9957900768 0.1211432803 -1.6219864301
C -5.1853219985 3.7014494515 0.7143251864
C -5.0061206983 -2.0503005241 -0.5780595682
C -6.051315383 -2.7818982608 0.3574042644
C -7.0579064275 -1.6128295415 0.6708397393
C -6.3341153932 -0.4037650972 -0.0393417646
O -5.8061659229 -1.0187614714 -1.2779002657
H -3.567934976 -1.7345612266 1.1399052045
H -5.251527105 -0.2231310527 1.8874896352
H -4.4952470432 -2.7057172108 -1.309834554
H -6.5417842163 -3.6086522572 -0.1805182873
H -5.5749940744 -3.1852680446 1.2653420185
H -8.0409449806 -1.7943025917 0.2074851136
H -7.1994795882 -1.4453720542 1.7504873591
H -6.9705040338 0.4717049952 -0.2720864611
O 2.4548765522 0.3686278824 1.3632976107
C 6.0552370146 -3.3201184796 0.6962005748
C 6.2237646568 1.0142005212 0.3261340982
C 6.7503392092 2.2098351707 -0.5608415415
C 5.4642966661 3.1139905813 -0.6379106263
C 4.4522739966 2.289055287 0.250634093
O 5.3138239027 1.6738802177 1.288541993
H 5.6564218056 0.0274407231 -1.5922189313
H 3.643693224 1.2998924902 -1.6089342811
H 5.4545121553 -3.9443438716 0.0034221101
H 7.0014134926 0.4284288776 0.8534604881
H 7.579588412 2.7289027019 -0.0540557945
H 7.0961483104 1.8722469436 -1.5510119954
H 5.6418543231 4.1080562661 -0.1979723073
H 5.0979342387 3.2441462083 -1.6687987032
H 3.644442656 2.8801902336 0.7233363066
H 5.5465458746 -3.2972485756 1.6814212437
H 7.0643400719 -3.7573602408 0.8084278788
H -6.0963828221 4.3207435836 0.80754766
H -4.6976498939 3.9006435847 -0.2617250282
H -4.4732711833 3.9646706913 1.5232055161
H -0.6784894366 0.2807918404 -1.347470999
H -0.5086550285 -1.3703906829 -2.0367308189
H 0.6290431166 -0.6810207869 0.7881793378
H 1.1166003489 -2.0422649064 -0.2917030902
$end

$rem
JOBTYPE                   OPT
METHOD                    B3LYP
DFT_D                     d3_op
BASIS                     STO-3G
GEOM_OPT_MAX_CYCLES       100
GEOM_OPT_TOL_GRADIENT     300
GEOM_OPT_TOL_DISPLACEMENT 1200
GEOM_OPT_TOL_ENERGY       100
SYMMETRY                  False
THRESH                    12
SCF_CONVERGENCE           8
MAX_SUB_FILE_NUM          128
MEM_STATIC                400
MEM_TOTAL                 4000
$end
--------------------------------------------------------------

   16   -1510.2789510173      4.61E-09 Convergence criterion met
 Total energy in the final basis set = -1510.27895102
   13   -1510.2802021428      6.26E-09 Convergence criterion met
 Total energy in the final basis set = -1510.28020214
   13   -1510.2811549465      8.05E-09 Convergence criterion met
 Total energy in the final basis set = -1510.28115495
   13   -1510.2819892372      5.54E-09 Convergence criterion met
 Total energy in the final basis set = -1510.28198924
   14   -1510.2828729507      1.45E-09 Convergence criterion met
 Total energy in the final basis set = -1510.28287295
   13   -1510.2835691128      6.37E-09 Convergence criterion met
 Total energy in the final basis set = -1510.28356911
   13   -1510.2841514688      3.46E-09 Convergence criterion met
 Total energy in the final basis set = -1510.28415147
   13   -1510.2847602784      5.54E-09 Convergence criterion met
   12   -1510.2928263403      7.84E-09 Convergence criterion met
 Total energy in the final basis set = -1510.29282634
   12   -1510.2928334137      9.75E-09 Convergence criterion met
 Total energy in the final basis set = -1510.29283341
   12   -1510.2928648119      7.30E-09 Convergence criterion met
 Total energy in the final basis set = -1510.29286481
   12   -1510.2928805683      4.06E-09 Convergence criterion met
 Total energy in the final basis set = -1510.29288057
   11   -1510.2928916500      8.96E-09 Convergence criterion met
 Total energy in the final basis set = -1510.29289165
   10   -1510.2928934228      5.53E-09 Convergence criterion met
 Total energy in the final basis set = -1510.29289342

             Standard Nuclear Orientation (Angstroms)
    I     Atom           X                Y                Z
 ----------------------------------------------------------------
    1      O       3.2659143507    -0.8640269073     1.5754048577
    2      C       4.2787998292    -0.7105807560     0.8555064145
    3      C       4.4251619253     0.2430165392    -0.3756059638
    4      C       3.0406954539     0.8548292554    -0.8353826147
    5      C       1.7883212212     0.3034146707    -0.0596564252
    6      O       1.5105734237    -1.0157901386    -0.5452874460
    7      C       0.3237664067    -1.5644145351     0.1544236777
    8      C      -0.5193956734    -2.4426011304    -0.8359839050
    9      O      -1.9215257846    -2.4357682285    -0.3485559345
   10      C      -2.7500781672    -1.6496100775    -1.2248476186
   11      C      -4.1474021132    -1.4768693016    -0.5212004497
   12      C      -4.1618876396    -0.3900289142     0.6336306814
   13      C      -2.7949684932     0.3574011442     0.7792195020
   14      O      -1.8807008182     0.3939962795    -0.0793224870
   15      O       5.5179788257    -1.3902982573     1.0614738553
   16      O      -2.7399441051     1.0026033719     2.0438463104
   17      O      -2.4273663888    -1.2974832639    -2.3793873612
   18      C      -1.4848312081     1.7886159190     2.1837106704
   19      C      -5.2297213147    -0.8801853218    -1.5137297476
   20      C      -6.6621809352    -1.1458952515    -0.9070225051
   21      C      -6.6927264032    -0.0963159620     0.2659436277
   22      C      -5.2851775622     0.5998110132     0.0901666560
   23      O      -5.0629841294     0.5855558619    -1.3720419027
   24      H      -4.4535288811    -2.4617897717    -0.1249930785
   25      H      -4.4423121192    -0.8213126806     1.6108002760
   26      H      -5.0886392715    -1.1814576761    -2.5697206410
   27      H      -7.4426323625    -0.9350369404    -1.6553111273
   28      H      -6.7804184331    -2.1830115202    -0.5549176300
   29      H      -7.5036438329     0.6370368673     0.1319558208
   30      H      -6.8011110091    -0.5663063659     1.2564349696
   31      H      -5.2152521973     1.6312395208     0.4875357221
   32      O       1.0710941165     0.9455040926     0.7402102380
   33      C       5.4142456934    -2.2882975952     2.2359914452
   34      C       5.2092107964     1.5662977899     0.0329686609
   35      C       5.5815373843     2.3592470733    -1.2819458311
   36      C       4.1913136140     2.9908120816    -1.6641580350
   37      C       3.2694539163     2.3940786243    -0.5318849599
   38      O       4.1518139709     2.3900555724     0.6596951289
   39      H       4.9358972900    -0.2994237449    -1.1911960943
   40      H       2.8774913247     0.6711785558    -1.9126428953
   41      H       4.6250159777    -3.0543481506     2.0930321174
   42      H       6.0471511651     1.3980725338     0.7373053312
   43      H       6.3329020165     3.1344472797    -1.0630591644
   44      H       5.9783890979     1.6952796477    -2.0666370234
   45      H       4.2176094286     4.0902122948    -1.5989990214
   46      H       3.8531020094     2.7035958409    -2.6725628056
   47      H       2.3370790265     2.9517470047    -0.3178559066
   48      H       5.1920655378    -1.7223007402     3.1636308082
   49      H       6.3985355485    -2.7827184560     2.3293193645
   50      H      -1.2790765916     1.8499888562     3.2680699879
   51      H      -1.6382204751     2.8122742616     1.7856653964
   52      H      -0.6247172200     1.3219364868     1.6501478683
   53      H      -0.4910387423    -2.0081412725    -1.8595336309
   54      H      -0.1650329822    -3.4930659019    -0.8638143837
   55      H      -0.3176880612    -0.7186584672     0.4864955128
   56      H       0.6513400977    -2.1516405531     1.0385467993
 ----------------------------------------------------------------

   10   -1510.2928927254      3.09E-09 Convergence criterion met
 Total energy in the final basis set = -1510.29289273
 Final energy is   -1510.29289272542
 **  OPTIMIZATION CONVERGED  **

                    Orbital Energies (a.u.)
 --------------------------------------------------------------

 Alpha MOs
 -- Occupied --
-18.942 -18.935 -18.919 -18.914 -18.886 -18.885 -18.884 -18.877
-18.866 -18.864 -10.105 -10.100 -10.095 -10.090 -10.069 -10.061
-10.059 -10.055 -10.055 -10.055 -10.048 -10.043 -10.040 -10.036
-10.033 -10.032 -10.020 -10.019 -10.018 -10.017  -1.019  -1.012
 -1.000  -0.996  -0.969  -0.968  -0.942  -0.935  -0.928  -0.923
 -0.762  -0.760  -0.724  -0.721  -0.708  -0.704  -0.688  -0.666
 -0.653  -0.608  -0.594  -0.573  -0.544  -0.541  -0.536  -0.533
 -0.511  -0.506  -0.478  -0.470  -0.458  -0.454  -0.450  -0.448
 -0.434  -0.430  -0.427  -0.416  -0.414  -0.408  -0.401  -0.392
 -0.390  -0.377  -0.369  -0.364  -0.362  -0.352  -0.348  -0.343
 -0.342  -0.339  -0.333  -0.328  -0.325  -0.322  -0.321  -0.311
 -0.308  -0.304  -0.301  -0.300  -0.293  -0.280  -0.275  -0.272
 -0.268  -0.257  -0.252  -0.238  -0.234  -0.233  -0.230  -0.185
 -0.178  -0.168  -0.159  -0.157  -0.154  -0.147  -0.144  -0.143
 -0.142

          Ground-State Mulliken Net Atomic Charges

     Atom                 Charge (a.u.)
  ----------------------------------------
      1 O                    -0.207056
      2 C                     0.214903
      3 C                    -0.077986
      4 C                    -0.080446
      5 C                     0.225835
      6 O                    -0.177220
      7 C                    -0.059331
      8 C                    -0.055058
      9 O                    -0.182358
     10 C                     0.217182
     11 C                    -0.080118
     12 C                    -0.078135
     13 C                     0.215939
     14 O                    -0.212319
     15 O                    -0.168675
     16 O                    -0.169034
     17 O                    -0.213812
     18 C                    -0.144052
     19 C                     0.025046
     20 C                    -0.144055
     21 C                    -0.143753
     22 C                     0.025414
     23 O                    -0.188200
     24 H                     0.084105
     25 H                     0.087171
     26 H                     0.089053
     27 H                     0.077816
     28 H                     0.073091
     29 H                     0.077943
     30 H                     0.073777
     31 H                     0.083893
     32 O                    -0.219289
     33 C                    -0.128185
     34 C                     0.025068
     35 C                    -0.143887
     36 C                    -0.143728
     37 C                     0.024972
     38 O                    -0.189879
     39 H                     0.087681
     40 H                     0.086120
     41 H                     0.090513
     42 H                     0.083976
     43 H                     0.078092
     44 H                     0.073914
     45 H                     0.078219
     46 H                     0.074446
     47 H                     0.090493
     48 H                     0.091238
     49 H                     0.091981
     50 H                     0.086104
     51 H                     0.081219
     52 H                     0.121188
     53 H                     0.102578
     54 H                     0.080799
     55 H                     0.106234
     56 H                     0.080575
  ----------------------------------------
  Sum of atomic charges =    -0.000000

                    Cartesian Multipole Moments
 -----------------------------------------------------------------
    Charge (ESU x 10^10)
                -0.0000
    Dipole Moment (Debye)
         X       1.1642      Y      -1.5377      Z       0.8658
       Tot       2.1141
    Quadrupole Moments (Debye-Ang)
        XX    -134.4570     XY       1.1612     YY    -153.9396
        XZ      -7.6368     YZ      -4.1094     ZZ    -162.2585

 Total job time:  96.60s(wall), 4600.65s(cpu)
        *  Thank you very much for using Q-Chem.  Have a nice day.  *
