 Q-Chem 5.0, Q-Chem, Inc., Pleasanton, CA (2017)
 Q-Chem 5.0.1 for Intel X86 EM64T Linux

User input:
--------------------------------------------------------------
$molecule
0  1
O -3.94934 -3.66094 2.70899
C -3.26408 -4.56952 2.26188
C -3.36658 -6.02376 2.66595
C -4.56164 -6.42602 3.54565
C -5.61643 -5.36655 3.7759
O -5.19676 -4.17396 3.25916
C -6.22939 -3.18338 3.21825
C -5.63896 -1.79825 3.46098
O -6.6944 -0.83562 3.61025
C -6.63402 -0.07303 4.73005
C -7.63753 1.05552 4.72816
C -8.85761 0.83837 5.63509
C -8.73089 -0.27215 6.65852
O -7.78719 -1.04337 6.75443
O -2.27828 -4.26442 1.37745
O -9.77635 -0.41287 7.51603
O -5.67391 -0.06145 5.49459
C -9.84356 -1.36643 8.5101
C -7.09825 2.38312 5.30608
C -7.91445 3.55329 4.75874
C -9.23021 3.34132 5.47942
C -8.85376 2.17439 6.40006
O -7.4838 2.3663 6.65831
H -7.93398 1.24278 3.67001
H -9.78947 0.64971 5.05817
H -6.01667 2.54523 5.10507
H -7.44212 4.48372 5.14851
H -7.98523 3.61823 3.65169
H -9.45887 4.2575 6.06784
H -10.09221 3.07894 4.82835
H -9.51779 2.1582 7.29219
O -6.68071 -5.57386 4.34731
C -2.0223 -2.99228 0.91022
C -3.63023 -6.91838 1.43546
C -3.20076 -8.35496 1.73095
C -4.29646 -8.78568 2.68152
C -5.17785 -7.53324 2.67257
O -5.03033 -7.02275 1.3715
H -2.38901 -6.3002 3.12037
H -4.25344 -6.80112 4.54628
H -1.75862 -2.31996 1.75456
H -3.12764 -6.55927 0.51078
H -3.30559 -8.93507 0.78609
H -2.16438 -8.46455 2.11669
H -4.84221 -9.64104 2.2243
H -3.95998 -9.05409 3.70634
H -6.2152 -7.79392 2.97844
H -2.91277 -2.59438 0.37794
H -1.16909 -3.02932 0.20235
H -10.80191 -1.25445 9.05738
H -9.00471 -1.23218 9.22613
H -9.80083 -2.3846 8.06752
H -4.97213 -1.87953 4.34824
H -5.01422 -1.49868 2.59237
H -6.97357 -3.31328 4.03723
H -6.7629 -3.21129 2.24357
$end

$opt
CONSTRAINT
tors           1           2           3           4      +9.772
tors           3           4           5           6      -7.195
tors           4           5           6           7    +169.310
tors           5           6           7           8    +146.080
tors           6           7           8           9    -171.766
tors           7           8           9          10    +127.170
tors           8           9          10          11    +171.107
tors           9          10          11          12    +104.460
tors          11          12          13          14      -4.903
ENDCONSTRAINT
$end

$rem
JOBTYPE                   OPT
METHOD                    B3LYP
DFT_D                     d3_op
BASIS                     STO-3G
GEOM_OPT_MAX_CYCLES       100
GEOM_OPT_TOL_GRADIENT     300
GEOM_OPT_TOL_DISPLACEMENT 1200
GEOM_OPT_TOL_ENERGY       100
SYMMETRY                  False
THRESH                    12
SCF_CONVERGENCE           8
MAX_SUB_FILE_NUM          128
MEM_STATIC                400
MEM_TOTAL                 4000
$end
--------------------------------------------------------------

   17   -1509.8964474411      6.34E-09 Convergence criterion met
 Total energy in the final basis set = -1509.89644744
   14   -1510.0285486842      7.26E-09 Convergence criterion met
 Total energy in the final basis set = -1510.02854868
   14   -1510.1218424240      7.24E-09 Convergence criterion met
 Total energy in the final basis set = -1510.12184242
   14   -1510.1837692573      5.83E-09 Convergence criterion met
 Total energy in the final basis set = -1510.18376926
   14   -1510.2219168769      5.27E-09 Convergence criterion met
 Total energy in the final basis set = -1510.22191688
   14   -1510.2435297865      3.45E-09 Convergence criterion met
 Total energy in the final basis set = -1510.24352979
   14   -1510.2550327059      2.59E-09 Convergence criterion met
 Total energy in the final basis set = -1510.25503271
   13   -1510.2612254022      2.74E-09 Convergence criterion met
   10   -1510.2689753183      7.16E-09 Convergence criterion met
 Total energy in the final basis set = -1510.26897532
   11   -1510.2689956851      3.06E-09 Convergence criterion met
 Total energy in the final basis set = -1510.26899569
   11   -1510.2690010065      2.75E-09 Convergence criterion met
 Total energy in the final basis set = -1510.26900101
   10   -1510.2690095452      9.08E-09 Convergence criterion met
 Total energy in the final basis set = -1510.26900955
   11   -1510.2690072806      2.55E-09 Convergence criterion met
 Total energy in the final basis set = -1510.26900728
    9   -1510.2690086539      2.92E-09 Convergence criterion met
 Total energy in the final basis set = -1510.26900865

             Standard Nuclear Orientation (Angstroms)
    I     Atom           X                Y                Z
 ----------------------------------------------------------------
    1      O       2.7857180497    -1.7292574903    -1.4423399742
    2      C       3.9438792831    -1.5470032271    -1.0159063950
    3      C       4.7205071636    -0.2166711161    -0.7158113535
    4      C       3.9595119309     1.1665362784    -0.7316179637
    5      C       2.4867278662     1.2470747565    -0.1623159510
    6      O       1.9618552270    -0.0359185719     0.1619708266
    7      C       0.6940216177     0.0957242779     0.9242694291
    8      C      -0.2311646229    -1.0983119246     0.5184294172
    9      O      -1.5687031332    -0.8709015319     1.1157598894
   10      C      -2.5849730596    -0.9565508592     0.1013621995
   11      C      -3.9846095972    -0.9379624614     0.8239908033
   12      C      -4.7488692286     0.4429374659     0.7086272802
   13      C      -3.8617706486     1.5704679061     0.0837504180
   14      O      -2.6506852536     1.4877415851    -0.2246383984
   15      O       4.8570271748    -2.6202862171    -0.7281134206
   16      O      -4.6522049734     2.7471839688    -0.0798590218
   17      O      -2.3597498315    -1.1961535344    -1.1048641287
   18      C      -3.8346329444     3.8272643803    -0.6820133459
   19      C      -4.9964090752    -1.8883802453     0.0532052969
   20      C      -6.2858319363    -2.0959726767     0.9432546453
   21      C      -7.0263832523    -0.7222418009     0.7384802659
   22      C      -5.9983165442     0.0372408743    -0.1882574409
   23      O      -5.4700273607    -1.0336912080    -1.0613616642
   24      H      -3.8380634563    -1.2325986130     1.8775098474
   25      H      -5.0887571705     0.7942898739     1.7004284458
   26      H      -4.5392806884    -2.8153137438    -0.3434526180
   27      H      -6.8842474429    -2.9392321105     0.5638993897
   28      H      -6.0323828352    -2.2883356670     1.9980864635
   29      H      -7.9864813746    -0.8561770025     0.2146895626
   30      H      -7.2110935918    -0.1888526390     1.6846223976
   31      H      -6.4179696667     0.8675237067    -0.7886670643
   32      O       1.8707889795     2.3227283096     0.0165201064
   33      C       4.2126925800    -3.9208861364    -1.0175259953
   34      C       5.5157764148    -0.1315572885     0.6685165796
   35      C       6.8742970584     0.6007405912     0.3493162429
   36      C       6.3356188684     2.0353784096    -0.0156391369
   37      C       4.8120015200     1.9154351078     0.3883959634
   38      O       4.7924640810     0.8878985593     1.4627156696
   39      H       5.4746330406    -0.1681534094    -1.5256549455
   40      H       3.9987403612     1.6574342407    -1.7205339954
   41      H       3.9309483089    -4.0109395582    -2.0867577672
   42      H       5.5937082181    -1.0882202993     1.2199552823
   43      H       7.5138340218     0.6294028400     1.2463160682
   44      H       7.4326106808     0.1254028038    -0.4728602725
   45      H       6.8325144347     2.8217460322     0.5737721897
   46      H       6.4542255155     2.2710826894    -1.0856149116
   47      H       4.3426413561     2.8548156485     0.7401987406
   48      H       3.3018947453    -4.0738648476    -0.4028720544
   49      H       4.9611403625    -4.6951751867    -0.7670345302
   50      H      -4.4974929705     4.7093856677    -0.7484903273
   51      H      -3.4808910964     3.5499109902    -1.6960393845
   52      H      -2.9524963944     4.0690692311    -0.0547881981
   53      H      -0.3354372705    -1.1600368888    -0.5871203504
   54      H       0.1760332540    -2.0574004892     0.9029980493
   55      H       0.2087298817     1.0657301858     0.6808835808
   56      H       0.9158406799     0.0710131939     2.0131731301
 ----------------------------------------------------------------

    9   -1510.2690093557      1.83E-09 Convergence criterion met
 Total energy in the final basis set = -1510.26900936
 Final energy is   -1510.26900935572
 **  OPTIMIZATION CONVERGED  **

                    Orbital Energies (a.u.)
 --------------------------------------------------------------

 Alpha MOs
 -- Occupied --
-18.941 -18.927 -18.926 -18.914 -18.886 -18.884 -18.884 -18.873
-18.861 -18.857 -10.104 -10.095 -10.092 -10.087 -10.067 -10.061
-10.059 -10.057 -10.057 -10.057 -10.056 -10.053 -10.038 -10.035
-10.033 -10.032 -10.019 -10.019 -10.018 -10.018  -1.017  -1.007
 -1.001  -0.994  -0.968  -0.968  -0.941  -0.932  -0.926  -0.920
 -0.761  -0.760  -0.723  -0.720  -0.707  -0.703  -0.689  -0.664
 -0.658  -0.608  -0.594  -0.572  -0.543  -0.541  -0.535  -0.534
 -0.511  -0.508  -0.480  -0.469  -0.456  -0.453  -0.451  -0.442
 -0.432  -0.431  -0.425  -0.413  -0.410  -0.406  -0.404  -0.397
 -0.389  -0.377  -0.371  -0.361  -0.358  -0.356  -0.351  -0.343
 -0.337  -0.333  -0.329  -0.328  -0.325  -0.323  -0.313  -0.311
 -0.308  -0.303  -0.301  -0.297  -0.293  -0.290  -0.274  -0.273
 -0.268  -0.256  -0.249  -0.237  -0.232  -0.232  -0.231  -0.183
 -0.172  -0.169  -0.158  -0.155  -0.148  -0.143  -0.143  -0.140
 -0.140

          Ground-State Mulliken Net Atomic Charges

     Atom                 Charge (a.u.)
  ----------------------------------------
      1 O                    -0.202920
      2 C                     0.211817
      3 C                    -0.080316
      4 C                    -0.075600
      5 C                     0.213929
      6 O                    -0.164439
      7 C                    -0.050670
      8 C                    -0.053265
      9 O                    -0.179422
     10 C                     0.216133
     11 C                    -0.080632
     12 C                    -0.078931
     13 C                     0.214484
     14 O                    -0.204055
     15 O                    -0.176222
     16 O                    -0.168733
     17 O                    -0.216883
     18 C                    -0.128258
     19 C                     0.026267
     20 C                    -0.144813
     21 C                    -0.143015
     22 C                     0.025157
     23 O                    -0.186406
     24 H                     0.085037
     25 H                     0.085743
     26 H                     0.086006
     27 H                     0.077996
     28 H                     0.073357
     29 H                     0.078025
     30 H                     0.073304
     31 H                     0.087174
     32 O                    -0.221061
     33 C                    -0.128823
     34 C                     0.025241
     35 C                    -0.140850
     36 C                    -0.146417
     37 C                     0.023085
     38 O                    -0.193444
     39 H                     0.082594
     40 H                     0.085508
     41 H                     0.087566
     42 H                     0.088270
     43 H                     0.077231
     44 H                     0.074125
     45 H                     0.078303
     46 H                     0.073573
     47 H                     0.087238
     48 H                     0.088219
     49 H                     0.088451
     50 H                     0.091857
     51 H                     0.092757
     52 H                     0.092536
     53 H                     0.107963
     54 H                     0.080181
     55 H                     0.103668
     56 H                     0.082381
  ----------------------------------------
  Sum of atomic charges =     0.000000

                    Cartesian Multipole Moments
 -----------------------------------------------------------------
    Charge (ESU x 10^10)
                 0.0000
    Dipole Moment (Debye)
         X       0.3681      Y      -0.0612      Z       1.2705
       Tot       1.3242
    Quadrupole Moments (Debye-Ang)
        XX    -133.8530     XY      -4.9910     YY    -148.2262
        XZ     -14.4266     YZ      -5.3566     ZZ    -162.0296

 Total job time:  84.93s(wall), 4042.18s(cpu)
        *  Thank you very much for using Q-Chem.  Have a nice day.  *
