 Q-Chem 5.0, Q-Chem, Inc., Pleasanton, CA (2017)
 Q-Chem 5.0.1 for Intel X86 EM64T Linux

User input:
--------------------------------------------------------------
$molecule
0  1
O 2.7857180497 -1.7292574903 -1.4423399742
C 3.9438792831 -1.5470032271 -1.015906395
C 4.7205071636 -0.2166711161 -0.7158113535
C 3.9595119309 1.1665362784 -0.7316179637
C 2.4867278662 1.2470747565 -0.162315951
O 1.961855227 -0.0359185719 0.1619708266
C 0.6940216177 0.0957242779 0.9242694291
C -0.2311646229 -1.0983119246 0.5184294172
O -1.5687031332 -0.8709015319 1.1157598894
C -2.5849730596 -0.9565508592 0.1013621995
C -3.9846095972 -0.9379624614 0.8239908033
C -4.7488692286 0.4429374659 0.7086272802
C -3.8617706486 1.5704679061 0.083750418
O -2.6506852536 1.4877415851 -0.2246383984
O 4.8570271748 -2.6202862171 -0.7281134206
O -4.6522049734 2.7471839688 -0.0798590218
O -2.3597498315 -1.1961535344 -1.1048641287
C -3.8346329444 3.8272643803 -0.6820133459
C -4.9964090752 -1.8883802453 0.0532052969
C -6.2858319363 -2.0959726767 0.9432546453
C -7.0263832523 -0.7222418009 0.7384802659
C -5.9983165442 0.0372408743 -0.1882574409
O -5.4700273607 -1.033691208 -1.0613616642
H -3.8380634563 -1.232598613 1.8775098474
H -5.0887571705 0.7942898739 1.7004284458
H -4.5392806884 -2.8153137438 -0.343452618
H -6.8842474429 -2.9392321105 0.5638993897
H -6.0323828352 -2.288335667 1.9980864635
H -7.9864813746 -0.8561770025 0.2146895626
H -7.2110935918 -0.188852639 1.6846223976
H -6.4179696667 0.8675237067 -0.7886670643
O 1.8707889795 2.3227283096 0.0165201064
C 4.21269258 -3.9208861364 -1.0175259953
C 5.5157764148 -0.1315572885 0.6685165796
C 6.8742970584 0.6007405912 0.3493162429
C 6.3356188684 2.0353784096 -0.0156391369
C 4.81200152 1.9154351078 0.3883959634
O 4.792464081 0.8878985593 1.4627156696
H 5.4746330406 -0.1681534094 -1.5256549455
H 3.9987403612 1.6574342407 -1.7205339954
H 3.9309483089 -4.0109395582 -2.0867577672
H 5.5937082181 -1.0882202993 1.2199552823
H 7.5138340218 0.62940284 1.2463160682
H 7.4326106808 0.1254028038 -0.4728602725
H 6.8325144347 2.8217460322 0.5737721897
H 6.4542255155 2.2710826894 -1.0856149116
H 4.3426413561 2.8548156485 0.7401987406
H 3.3018947453 -4.0738648476 -0.4028720544
H 4.9611403625 -4.6951751867 -0.7670345302
H -4.4974929705 4.7093856677 -0.7484903273
H -3.4808910964 3.5499109902 -1.6960393845
H -2.9524963944 4.0690692311 -0.0547881981
H -0.3354372705 -1.1600368888 -0.5871203504
H 0.176033254 -2.0574004892 0.9029980493
H 0.2087298817 1.0657301858 0.6808835808
H 0.9158406799 0.0710131939 2.0131731301
$end

$rem
JOBTYPE                   OPT
METHOD                    B3LYP
DFT_D                     d3_op
BASIS                     STO-3G
GEOM_OPT_MAX_CYCLES       100
GEOM_OPT_TOL_GRADIENT     300
GEOM_OPT_TOL_DISPLACEMENT 1200
GEOM_OPT_TOL_ENERGY       100
SYMMETRY                  False
THRESH                    12
SCF_CONVERGENCE           8
MAX_SUB_FILE_NUM          128
MEM_STATIC                400
MEM_TOTAL                 4000
$end
--------------------------------------------------------------

   15   -1510.2691024033      9.77E-09 Convergence criterion met
 Total energy in the final basis set = -1510.26910240
   13   -1510.2716405662      7.75E-09 Convergence criterion met
 Total energy in the final basis set = -1510.27164057
   13   -1510.2741260446      6.00E-09 Convergence criterion met
 Total energy in the final basis set = -1510.27412604
   13   -1510.2765083908      4.80E-09 Convergence criterion met
 Total energy in the final basis set = -1510.27650839
   13   -1510.2785937213      5.47E-09 Convergence criterion met
 Total energy in the final basis set = -1510.27859372
   13   -1510.2806071690      5.07E-09 Convergence criterion met
 Total energy in the final basis set = -1510.28060717
   13   -1510.2820879257      3.00E-09 Convergence criterion met
 Total energy in the final basis set = -1510.28208793
   13   -1510.2834874877      6.40E-09 Convergence criterion met
   11   -1510.3025266037      1.89E-09 Convergence criterion met
 Total energy in the final basis set = -1510.30252660
   11   -1510.3025252420      1.69E-09 Convergence criterion met
 Total energy in the final basis set = -1510.30252524
   11   -1510.3025229362      1.40E-09 Convergence criterion met
 Total energy in the final basis set = -1510.30252294
   11   -1510.3025205243      2.74E-09 Convergence criterion met
 Total energy in the final basis set = -1510.30252052
   11   -1510.3025176548      2.95E-09 Convergence criterion met
 Total energy in the final basis set = -1510.30251765
    9   -1510.3025168519      4.95E-09 Convergence criterion met
 Total energy in the final basis set = -1510.30251685

             Standard Nuclear Orientation (Angstroms)
    I     Atom           X                Y                Z
 ----------------------------------------------------------------
    1      O      -0.5905360219     0.5004044879     0.3595843431
    2      C      -1.5325524106    -0.0327762397     0.9957506426
    3      C      -3.0132737271     0.4781939445     1.0327906922
    4      C      -3.2562645709     1.6997547182     0.0551960204
    5      C      -1.9728127380     2.1372737440    -0.7452699130
    6      O      -1.8457418028     1.3133772277    -1.9094522483
    7      C      -0.6058291635     1.6328809435    -2.6557116510
    8      C       0.1020261262     0.2798842610    -3.0332721310
    9      O       1.4601480465     0.1899688973    -2.4378695753
   10      C       1.5159129686    -0.8627830588    -1.4744731674
   11      C       2.9952977082    -1.0344790352    -0.9899986790
   12      C       3.4280522352    -0.2085815415     0.3000773434
   13      C       2.3615519459     0.7536661085     0.9345328206
   14      O       1.7704585775     0.5805553664     2.0282370596
   15      O      -1.4258891988    -1.1979760857     1.7897459679
   16      O       2.2440483385     1.9156844625     0.1268473343
   17      O       0.5350786608    -1.5800908331    -1.1636174220
   18      C       1.3545088018     2.9176252577     0.7715482212
   19      C       3.2268726311    -2.5195245293    -0.4747728636
   20      C       4.7796049338    -2.7975623856    -0.4053861253
   21      C       5.1759190387    -1.9967196209     0.8906227325
   22      C       3.7811993823    -1.3850433786     1.3041840043
   23      O       2.8172615111    -2.4506121662     0.9455152548
   24      H       3.6542546980    -0.7797053100    -1.8391881723
   25      H       4.3185486371     0.4010241491     0.0611433036
   26      H       2.6293170853    -3.2818265480    -1.0110790175
   27      H       4.9715465832    -3.8760252791    -0.2892763260
   28      H       5.3055215778    -2.4403004012    -1.3051371772
   29      H       5.5518121297    -2.6669227054     1.6800556780
   30      H       5.9318088145    -1.2189147182     0.6975264307
   31      H       3.6691632240    -1.1098831557     2.3706893034
   32      O      -1.2630344913     3.1453722461    -0.5113060283
   33      C      -0.0381956136    -1.7353443682     1.7293732776
   34      C      -4.0291537617    -0.5946712317     0.4455838412
   35      C      -5.4903696786    -0.1779230563     0.8745240319
   36      C      -5.7411997108     1.0540643257    -0.0726151441
   37      C      -4.3860366343     1.0986975243    -0.8852332000
   38      O      -4.0069579820    -0.3274831347    -1.0101799261
   39      H      -3.2704323817     0.7352705364     2.0765432378
   40      H      -3.6117909246     2.5850345252     0.6110978388
   41      H       0.6912154140    -0.9883964674     2.1175632740
   42      H      -3.7475821329    -1.6442426235     0.6585868400
   43      H      -6.1989879034    -0.9961136828     0.6695007657
   44      H      -5.5516775114     0.0838190835     1.9429223312
   45      H      -6.5904560801     0.8755217625    -0.7511453010
   46      H      -5.9233256606     1.9882348865     0.4824930401
   47      H      -4.4515920842     1.5702295647    -1.8844043138
   48      H       0.2385845008    -1.9728053984     0.6766996384
   49      H      -0.0397115731    -2.6463735127     2.3528749902
   50      H       1.8899852253     3.8860893099     0.7648378052
   51      H       1.1395090768     2.6020566038     1.8108482165
   52      H       0.3974638487     3.0075182914     0.2040936753
   53      H      -0.5066259377    -0.5687367676    -2.6490380574
   54      H       0.2247478219     0.1955198430    -4.1325315424
   55      H       0.0606002834     2.2681235453    -2.0336527421
   56      H      -0.8759887181     2.1970532868    -3.5741251730
 ----------------------------------------------------------------

    9   -1510.3025165215      4.35E-09 Convergence criterion met
 Total energy in the final basis set = -1510.30251652
 Final energy is   -1510.30251652152
 **  OPTIMIZATION CONVERGED  **

                    Orbital Energies (a.u.)
 --------------------------------------------------------------

 Alpha MOs
 -- Occupied --
-18.937 -18.929 -18.925 -18.923 -18.888 -18.883 -18.883 -18.871
-18.868 -18.862 -10.105 -10.097 -10.097 -10.093 -10.064 -10.063
-10.060 -10.058 -10.056 -10.055 -10.041 -10.038 -10.032 -10.031
-10.031 -10.021 -10.020 -10.020 -10.017 -10.016  -1.015  -1.006
 -1.004  -0.997  -0.971  -0.965  -0.939  -0.930  -0.927  -0.927
 -0.764  -0.758  -0.726  -0.719  -0.710  -0.704  -0.692  -0.648
 -0.640  -0.611  -0.592  -0.575  -0.543  -0.540  -0.537  -0.533
 -0.512  -0.506  -0.481  -0.466  -0.460  -0.453  -0.450  -0.440
 -0.432  -0.430  -0.429  -0.410  -0.409  -0.404  -0.398  -0.394
 -0.392  -0.366  -0.365  -0.363  -0.362  -0.352  -0.349  -0.343
 -0.339  -0.333  -0.329  -0.328  -0.324  -0.322  -0.319  -0.311
 -0.306  -0.305  -0.299  -0.297  -0.290  -0.282  -0.273  -0.272
 -0.266  -0.251  -0.242  -0.240  -0.239  -0.233  -0.230  -0.187
 -0.173  -0.164  -0.161  -0.155  -0.149  -0.148  -0.145  -0.143
 -0.139

          Ground-State Mulliken Net Atomic Charges

     Atom                 Charge (a.u.)
  ----------------------------------------
      1 O                    -0.218602
      2 C                     0.217707
      3 C                    -0.078729
      4 C                    -0.081184
      5 C                     0.224307
      6 O                    -0.170741
      7 C                    -0.051681
      8 C                    -0.055520
      9 O                    -0.166356
     10 C                     0.219022
     11 C                    -0.077624
     12 C                    -0.078085
     13 C                     0.217863
     14 O                    -0.218698
     15 O                    -0.170777
     16 O                    -0.167707
     17 O                    -0.209988
     18 C                    -0.149587
     19 C                     0.025024
     20 C                    -0.144297
     21 C                    -0.143964
     22 C                     0.023880
     23 O                    -0.188479
     24 H                     0.087573
     25 H                     0.086198
     26 H                     0.085816
     27 H                     0.078393
     28 H                     0.073507
     29 H                     0.078365
     30 H                     0.073551
     31 H                     0.088922
     32 O                    -0.230947
     33 C                    -0.152189
     34 C                     0.025003
     35 C                    -0.143683
     36 C                    -0.144553
     37 C                     0.026593
     38 O                    -0.187691
     39 H                     0.085551
     40 H                     0.083052
     41 H                     0.102288
     42 H                     0.089366
     43 H                     0.077476
     44 H                     0.073543
     45 H                     0.076938
     46 H                     0.072785
     47 H                     0.084303
     48 H                     0.106391
     49 H                     0.080144
     50 H                     0.077880
     51 H                     0.092937
     52 H                     0.113198
     53 H                     0.111565
     54 H                     0.084147
     55 H                     0.106274
     56 H                     0.081516
  ----------------------------------------
  Sum of atomic charges =    -0.000000

                    Cartesian Multipole Moments
 -----------------------------------------------------------------
    Charge (ESU x 10^10)
                -0.0000
    Dipole Moment (Debye)
         X       0.8921      Y       0.2364      Z      -0.8764
       Tot       1.2727
    Quadrupole Moments (Debye-Ang)
        XX    -138.7574     XY      -7.7346     YY    -162.1963
        XZ      -4.5030     YZ       1.5104     ZZ    -156.1258

 Total job time:  253.09s(wall), 12075.18s(cpu)
        *  Thank you very much for using Q-Chem.  Have a nice day.  *
