 Q-Chem 5.0, Q-Chem, Inc., Pleasanton, CA (2017)
 Q-Chem 5.0.1 for Intel X86 EM64T Linux

User input:
--------------------------------------------------------------
$molecule
0  1
O -3.94934 -3.66094 2.70899
C -3.26408 -4.56952 2.26188
C -3.36658 -6.02376 2.66595
C -3.9255 -6.3263 4.06592
C -4.48507 -5.15143 4.83707
O -3.68371 -4.8753 5.90804
C -4.00474 -3.63497 6.54661
C -4.49241 -3.88712 7.96954
O -4.85993 -2.64421 8.5884
C -6.04024 -2.65189 9.25618
C -6.37001 -1.31834 9.88352
C -7.81376 -1.17969 10.38815
C -8.59413 -2.47196 10.52142
O -9.35586 -2.92978 9.68194
O -2.40108 -4.29811 1.24796
O -8.3616 -3.21889 11.63716
O -6.7792 -3.6263 9.2397
C -8.95886 -4.43296 11.90487
C -5.56746 -0.98228 11.15002
C -5.52173 0.53377 11.33365
C -6.96319 0.81742 11.71271
C -7.51402 -0.61208 11.79363
O -6.40525 -1.37785 12.20729
H -6.17492 -0.55411 9.09617
H -8.4259 -0.48629 9.76988
H -4.54101 -1.40939 11.14744
H -4.87531 0.73331 12.21837
H -5.13852 1.11024 10.4643
H -6.97249 1.30181 12.7143
H -7.53453 1.43306 10.98464
H -8.4072 -0.64852 12.45587
O -5.51856 -4.56005 4.53863
C -2.20303 -3.04329 0.71106
C -4.39823 -6.7757 1.80127
C -4.09779 -8.2743 1.81577
C -4.52287 -8.63467 3.22474
C -5.07016 -7.2859 3.7039
O -5.59645 -6.70227 2.53639
H -2.35981 -6.47514 2.51247
H -3.14567 -6.81951 4.69129
H -1.8316 -2.34687 1.49301
H -4.4428 -6.40366 0.7539
H -4.80058 -8.75876 1.1005
H -3.05494 -8.5493 1.54798
H -5.34352 -9.3837 3.16347
H -3.71203 -9.01328 3.88403
H -5.78251 -7.4299 4.54629
H -3.15221 -2.65593 0.28277
H -1.44685 -3.10889 -0.09788
H -8.58762 -4.81375 12.87829
H -8.70366 -5.16827 11.11214
H -10.06154 -4.31153 11.96483
H -5.30556 -4.64209 7.90302
H -3.65817 -4.34465 8.54316
H -4.7834 -3.02756 6.0334
H -3.09512 -2.99809 6.57505
$end

$opt
CONSTRAINT
tors           1           2           3           4     -25.464
tors           3           4           5           6    -111.566
tors           4           5           6           7    +169.310
tors           5           6           7           8    +115.751
tors           6           7           8           9    -177.874
tors           7           8           9          10    +134.234
tors           8           9          10          11    -180.000
tors           9          10          11          12    +167.484
tors          11          12          13          14     -95.756
ENDCONSTRAINT
$end

$rem
JOBTYPE                   OPT
METHOD                    B3LYP
DFT_D                     d3_op
BASIS                     STO-3G
GEOM_OPT_MAX_CYCLES       100
GEOM_OPT_TOL_GRADIENT     300
GEOM_OPT_TOL_DISPLACEMENT 1200
GEOM_OPT_TOL_ENERGY       100
SYMMETRY                  False
THRESH                    12
SCF_CONVERGENCE           8
MAX_SUB_FILE_NUM          128
MEM_STATIC                400
MEM_TOTAL                 4000
$end
--------------------------------------------------------------

   15   -1510.1515155707      6.24E-09 Convergence criterion met
 Total energy in the final basis set = -1510.15151557
   13   -1510.2211992849      7.27E-09 Convergence criterion met
 Total energy in the final basis set = -1510.22119928
   14   -1510.2581789749      5.52E-09 Convergence criterion met
 Total energy in the final basis set = -1510.25817897
   14   -1510.2735103420      3.18E-09 Convergence criterion met
 Total energy in the final basis set = -1510.27351034
   14   -1510.2775323614      4.52E-09 Convergence criterion met
 Total energy in the final basis set = -1510.27753236
    2   -1510.2775323615      1.66E-09 Convergence criterion met
 Total energy in the final basis set = -1510.27753236
   13   -1510.2785380395      2.27E-09 Convergence criterion met
 Total energy in the final basis set = -1510.27853804
   12   -1510.2790154026      4.86E-09 Convergence criterion met
   11   -1510.2796287596      4.63E-09 Convergence criterion met
 Total energy in the final basis set = -1510.27962876
   11   -1510.2796419038      5.58E-09 Convergence criterion met
 Total energy in the final basis set = -1510.27964190
   10   -1510.2796543893      9.05E-09 Convergence criterion met
 Total energy in the final basis set = -1510.27965439
    9   -1510.2796655689      9.57E-09 Convergence criterion met
 Total energy in the final basis set = -1510.27966557
    9   -1510.2796694712      5.77E-09 Convergence criterion met
 Total energy in the final basis set = -1510.27966947
    9   -1510.2796713354      6.14E-09 Convergence criterion met
 Total energy in the final basis set = -1510.27967134

             Standard Nuclear Orientation (Angstroms)
    I     Atom           X                Y                Z
 ----------------------------------------------------------------
    1      O      -3.8557063828     1.8319480240     0.7970506989
    2      C      -4.9167304455     1.4196619522     0.2804417647
    3      C      -5.2274947016     0.0144958527    -0.3334654082
    4      C      -3.9633749218    -0.7736239984    -0.8688744194
    5      C      -2.5964571100    -0.2396425191    -0.3067331585
    6      O      -1.8800001334     0.3679138927    -1.3973111637
    7      C      -0.7045038796     1.1143730969    -0.8873914537
    8      C       0.6063329040     0.4482659177    -1.4296199162
    9      O       1.7710859279     1.1783826815    -0.8662923242
   10      C       2.7541424948     0.2593406395    -0.3814434611
   11      C       3.9488966251     1.0848775749     0.1959243687
   12      C       4.9666232689     0.2180214120     1.0475220418
   13      C       4.5787795446    -1.3054866871     1.1528925639
   14      O       3.9484386222    -1.8435263303     2.0893226975
   15      O      -6.1153789972     2.2008279171     0.1949654344
   16      O       5.1687446432    -2.0201420914     0.0599639087
   17      O       2.6299513573    -0.9861854857    -0.4120328950
   18      C       4.7422462838    -3.4357810301     0.1044726746
   19      C       4.9012521176     1.6264204154    -0.9598180935
   20      C       5.8064416739     2.7678347192    -0.3499796272
   21      C       6.8191297917     1.9221942500     0.5082864870
   22      C       6.3065412894     0.4531092368     0.2294667291
   23      O       5.8457221112     0.5102508220    -1.1783834177
   24      H       3.5336998448     1.9225988128     0.7842412177
   25      H       5.0390512766     0.6114172294     2.0769289740
   26      H       4.3761986244     1.8888042972    -1.8988950929
   27      H       6.3191897016     3.3223643891    -1.1521594866
   28      H       5.2238244435     3.4808779817     0.2551429837
   29      H       7.8527327933     2.0425725943     0.1468199510
   30      H       6.7873521251     2.1783264571     1.5793902587
   31      H       7.0638197385    -0.3440088806     0.3546563958
   32      O      -2.1317935564    -0.3767102537     0.8441187756
   33      C      -5.8990438150     3.5290082605     0.8145449709
   34      C      -5.8481816447    -1.0438359161     0.6887502204
   35      C      -6.6789359819    -2.0767425289    -0.1672913362
   36      C      -5.5189561849    -2.8475298663    -0.9010522814
   37      C      -4.2413670864    -2.2021685334    -0.2294603052
   38      O      -4.6896855896    -1.8450209949     1.1378369557
   39      H      -5.9429412486     0.1853656948    -1.1578699336
   40      H      -3.9208555842    -0.7840835913    -1.9718581685
   41      H      -5.0964126513     4.0941823990     0.2982994817
   42      H      -6.3807695040    -0.6017857491     1.5530535431
   43      H      -7.2498122260    -2.7470445248     0.4953172092
   44      H      -7.3783452086    -1.5861336342    -0.8627468919
   45      H      -5.5581685990    -3.9296478208    -0.7001020005
   46      H      -5.5305548522    -2.6906463690    -1.9916345374
   47      H      -3.3515579628    -2.8590660680    -0.1817531074
   48      H      -5.6316914329     3.4399678944     1.8872891062
   49      H      -6.8569819422     4.0717621243     0.7148407964
   50      H       5.2548499179    -3.9362931683    -0.7376321138
   51      H       3.6438758875    -3.5247881797    -0.0226183993
   52      H       5.0295704070    -3.9231251533     1.0588204966
   53      H       0.6678459991    -0.6196210101    -1.1271785784
   54      H       0.6422561892     0.5106741560    -2.5385644964
   55      H      -0.7086856605     1.0865053920     0.2237426979
   56      H      -0.7822232965     2.1629904045    -1.2429818963
 ----------------------------------------------------------------

    9   -1510.2796718390      2.58E-09 Convergence criterion met
 Total energy in the final basis set = -1510.27967184
 Final energy is   -1510.27967183899
 **  OPTIMIZATION CONVERGED  **

                    Orbital Energies (a.u.)
 --------------------------------------------------------------

 Alpha MOs
 -- Occupied --
-18.938 -18.936 -18.924 -18.917 -18.890 -18.886 -18.884 -18.881
-18.872 -18.854 -10.104 -10.103 -10.095 -10.085 -10.067 -10.067
-10.064 -10.063 -10.060 -10.060 -10.055 -10.049 -10.040 -10.038
-10.038 -10.030 -10.022 -10.021 -10.019 -10.017  -1.016  -1.015
 -1.004  -0.993  -0.972  -0.967  -0.941  -0.940  -0.930  -0.919
 -0.765  -0.760  -0.726  -0.721  -0.712  -0.706  -0.694  -0.666
 -0.647  -0.615  -0.595  -0.576  -0.547  -0.542  -0.539  -0.534
 -0.514  -0.509  -0.479  -0.473  -0.464  -0.459  -0.452  -0.443
 -0.435  -0.431  -0.427  -0.415  -0.411  -0.404  -0.399  -0.397
 -0.393  -0.377  -0.373  -0.366  -0.362  -0.353  -0.349  -0.346
 -0.338  -0.336  -0.332  -0.330  -0.329  -0.326  -0.322  -0.313
 -0.311  -0.306  -0.302  -0.301  -0.297  -0.281  -0.276  -0.272
 -0.271  -0.257  -0.253  -0.244  -0.239  -0.235  -0.231  -0.183
 -0.182  -0.167  -0.160  -0.158  -0.158  -0.149  -0.143  -0.142
 -0.135

          Ground-State Mulliken Net Atomic Charges

     Atom                 Charge (a.u.)
  ----------------------------------------
      1 O                    -0.208968
      2 C                     0.208019
      3 C                    -0.080138
      4 C                    -0.079373
      5 C                     0.214742
      6 O                    -0.178397
      7 C                    -0.053688
      8 C                    -0.054902
      9 O                    -0.173737
     10 C                     0.215059
     11 C                    -0.078268
     12 C                    -0.081134
     13 C                     0.213240
     14 O                    -0.220622
     15 O                    -0.170787
     16 O                    -0.168553
     17 O                    -0.206897
     18 C                    -0.126946
     19 C                     0.025664
     20 C                    -0.143383
     21 C                    -0.144629
     22 C                     0.026609
     23 O                    -0.186567
     24 H                     0.087611
     25 H                     0.083277
     26 H                     0.083680
     27 H                     0.077526
     28 H                     0.073662
     29 H                     0.077411
     30 H                     0.073498
     31 H                     0.087493
     32 O                    -0.202906
     33 C                    -0.128967
     34 C                     0.026655
     35 C                    -0.141968
     36 C                    -0.145365
     37 C                     0.026459
     38 O                    -0.183011
     39 H                     0.086198
     40 H                     0.086276
     41 H                     0.089237
     42 H                     0.085042
     43 H                     0.078761
     44 H                     0.074366
     45 H                     0.078942
     46 H                     0.073771
     47 H                     0.085332
     48 H                     0.090384
     49 H                     0.090877
     50 H                     0.086738
     51 H                     0.092539
     52 H                     0.085422
     53 H                     0.101411
     54 H                     0.083438
     55 H                     0.104512
     56 H                     0.085356
  ----------------------------------------
  Sum of atomic charges =    -0.000000

                    Cartesian Multipole Moments
 -----------------------------------------------------------------
    Charge (ESU x 10^10)
                -0.0000
    Dipole Moment (Debye)
         X      -2.0360      Y       2.1876      Z      -2.0202
       Tot       3.6072
    Quadrupole Moments (Debye-Ang)
        XX    -137.1918     XY       3.9476     YY    -148.5447
        XZ       8.7596     YZ       6.4791     ZZ    -164.5523

 Total job time:  51.37s(wall), 2436.54s(cpu)
        *  Thank you very much for using Q-Chem.  Have a nice day.  *
