 Q-Chem 5.0, Q-Chem, Inc., Pleasanton, CA (2017)
 Q-Chem 5.0.1 for Intel X86 EM64T Linux

User input:
--------------------------------------------------------------
$molecule
0  1
O -3.8557063828 1.831948024 0.7970506989
C -4.9167304455 1.4196619522 0.2804417647
C -5.2274947016 0.0144958527 -0.3334654082
C -3.9633749218 -0.7736239984 -0.8688744194
C -2.59645711 -0.2396425191 -0.3067331585
O -1.8800001334 0.3679138927 -1.3973111637
C -0.7045038796 1.1143730969 -0.8873914537
C 0.606332904 0.4482659177 -1.4296199162
O 1.7710859279 1.1783826815 -0.8662923242
C 2.7541424948 0.2593406395 -0.3814434611
C 3.9488966251 1.0848775749 0.1959243687
C 4.9666232689 0.218021412 1.0475220418
C 4.5787795446 -1.3054866871 1.1528925639
O 3.9484386222 -1.8435263303 2.0893226975
O -6.1153789972 2.2008279171 0.1949654344
O 5.1687446432 -2.0201420914 0.0599639087
O 2.6299513573 -0.9861854857 -0.412032895
C 4.7422462838 -3.4357810301 0.1044726746
C 4.9012521176 1.6264204154 -0.9598180935
C 5.8064416739 2.7678347192 -0.3499796272
C 6.8191297917 1.92219425 0.508286487
C 6.3065412894 0.4531092368 0.2294667291
O 5.8457221112 0.510250822 -1.1783834177
H 3.5336998448 1.9225988128 0.7842412177
H 5.0390512766 0.6114172294 2.076928974
H 4.3761986244 1.8888042972 -1.8988950929
H 6.3191897016 3.3223643891 -1.1521594866
H 5.2238244435 3.4808779817 0.2551429837
H 7.8527327933 2.0425725943 0.146819951
H 6.7873521251 2.1783264571 1.5793902587
H 7.0638197385 -0.3440088806 0.3546563958
O -2.1317935564 -0.3767102537 0.8441187756
C -5.899043815 3.5290082605 0.8145449709
C -5.8481816447 -1.0438359161 0.6887502204
C -6.6789359819 -2.0767425289 -0.1672913362
C -5.5189561849 -2.8475298663 -0.9010522814
C -4.2413670864 -2.2021685334 -0.2294603052
O -4.6896855896 -1.8450209949 1.1378369557
H -5.9429412486 0.1853656948 -1.1578699336
H -3.9208555842 -0.7840835913 -1.9718581685
H -5.0964126513 4.094182399 0.2982994817
H -6.380769504 -0.6017857491 1.5530535431
H -7.249812226 -2.7470445248 0.4953172092
H -7.3783452086 -1.5861336342 -0.8627468919
H -5.558168599 -3.9296478208 -0.7001020005
H -5.5305548522 -2.690646369 -1.9916345374
H -3.3515579628 -2.859066068 -0.1817531074
H -5.6316914329 3.4399678944 1.8872891062
H -6.8569819422 4.0717621243 0.7148407964
H 5.2548499179 -3.9362931683 -0.7376321138
H 3.6438758875 -3.5247881797 -0.0226183993
H 5.029570407 -3.9231251533 1.0588204966
H 0.6678459991 -0.6196210101 -1.1271785784
H 0.6422561892 0.510674156 -2.5385644964
H -0.7086856605 1.086505392 0.2237426979
H -0.7822232965 2.1629904045 -1.2429818963
$end

$rem
JOBTYPE                   OPT
METHOD                    B3LYP
DFT_D                     d3_op
BASIS                     STO-3G
GEOM_OPT_MAX_CYCLES       100
GEOM_OPT_TOL_GRADIENT     300
GEOM_OPT_TOL_DISPLACEMENT 1200
GEOM_OPT_TOL_ENERGY       100
SYMMETRY                  False
THRESH                    12
SCF_CONVERGENCE           8
MAX_SUB_FILE_NUM          128
MEM_STATIC                400
MEM_TOTAL                 4000
$end
--------------------------------------------------------------

   16   -1510.2796846384      5.33E-09 Convergence criterion met
 Total energy in the final basis set = -1510.27968464
   14   -1510.2816319202      1.15E-09 Convergence criterion met
 Total energy in the final basis set = -1510.28163192
   13   -1510.2829822667      4.11E-09 Convergence criterion met
 Total energy in the final basis set = -1510.28298227
   13   -1510.2840710123      3.54E-09 Convergence criterion met
 Total energy in the final basis set = -1510.28407101
   12   -1510.2848134993      9.86E-09 Convergence criterion met
 Total energy in the final basis set = -1510.28481350
   13   -1510.2854789927      4.37E-09 Convergence criterion met
 Total energy in the final basis set = -1510.28547899
   13   -1510.2858167193      2.86E-09 Convergence criterion met
 Total energy in the final basis set = -1510.28581672
   12   -1510.2862030085      9.97E-09 Convergence criterion met
   12   -1510.2866954911      2.87E-09 Convergence criterion met
 Total energy in the final basis set = -1510.28669549
   13   -1510.2867209868      1.46E-09 Convergence criterion met
 Total energy in the final basis set = -1510.28672099
   11   -1510.2867389690      7.67E-09 Convergence criterion met
 Total energy in the final basis set = -1510.28673897
   10   -1510.2867487165      8.80E-09 Convergence criterion met
 Total energy in the final basis set = -1510.28674872
   10   -1510.2867472235      7.12E-09 Convergence criterion met
 Total energy in the final basis set = -1510.28674722
    9   -1510.2867498383      8.25E-09 Convergence criterion met
 Total energy in the final basis set = -1510.28674984

             Standard Nuclear Orientation (Angstroms)
    I     Atom           X                Y                Z
 ----------------------------------------------------------------
    1      O       3.5760903909    -1.5870942898     0.9398077599
    2      C       4.6479656833    -1.4025378218     0.3198076050
    3      C       5.0464187826    -0.1483874765    -0.5249579051
    4      C       3.8210625027     0.8115195621    -0.8083840695
    5      C       2.4399137140     0.2860620604    -0.2697891746
    6      O       1.9921857154    -0.7561685010    -1.1567703405
    7      C       0.7040119980    -1.3104774837    -0.6810225263
    8      C      -0.5029725516    -0.4090566628    -1.1313323748
    9      O      -1.7718467686    -1.0864536867    -0.7663685609
   10      C      -2.5615787092    -0.2522998669     0.0859904381
   11      C      -3.8777768316    -1.0182442325     0.4546130399
   12      C      -5.0033582365    -0.0800476332     1.0592430650
   13      C      -4.5989404203     1.4360798390     1.1704331018
   14      O      -4.3556024615     2.0666637674     2.2219668129
   15      O       5.7331424107    -2.3312084861     0.3004908143
   16      O      -4.6635945102     2.0279317774    -0.1338848452
   17      O      -2.2228995604     0.8920191628     0.4640101467
   18      C      -4.2198854977     3.4370243491    -0.0636424326
   19      C      -4.6195314968    -1.6070915594    -0.8218973959
   20      C      -5.6663964273    -2.6816656866    -0.3296010208
   21      C      -6.7870351811    -1.7561959172     0.2747222786
   22      C      -6.1747716942    -0.3226126704     0.0118926454
   23      O      -5.4629253216    -0.4803181057    -1.2774213868
   24      H      -3.6112821060    -1.8275243712     1.1598311188
   25      H      -5.2875735381    -0.4166354054     2.0717804300
   26      H      -3.9343035524    -1.9381965984    -1.6261398130
   27      H      -6.0434196801    -3.2701975981    -1.1809943024
   28      H      -5.2335447188    -3.3699467491     0.4137110480
   29      H      -7.7412358049    -1.8731755561    -0.2635122373
   30      H      -6.9615960021    -1.9421619867     1.3465296939
   31      H      -6.9123547432     0.5002751245    -0.0526704892
   32      O       1.7677197793     0.7468941659     0.6760436551
   33      C       5.3930258198    -3.5265761784     1.1081910944
   34      C       5.9912964613     0.8177235688     0.3167742471
   35      C       6.6171201073     1.8844911654    -0.6665905352
   36      C       5.3879213568     2.8391233095    -0.9034739978
   37      C       4.2774788383     2.1220469230    -0.0411930337
   38      O       5.0299496777     1.5993685628     1.1241752780
   39      H       5.5389127470    -0.4845835015    -1.4544531066
   40      H       3.7148466603     0.9891571108    -1.8938070711
   41      H       4.4926408603    -4.0401393018     0.7136500756
   42      H       6.7165899489     0.2917590606     0.9678286261
   43      H       7.4530739179     2.4125139650    -0.1807112812
   44      H       6.9833662814     1.4227741978    -1.5974766175
   45      H       5.5830281685     3.8514388541    -0.5153643915
   46      H       5.1059151845     2.9152770234    -1.9656878429
   47      H       3.4388574449     2.7600342741     0.2990016838
   48      H       5.2120209465    -3.2639112811     2.1705025701
   49      H       6.2659326547    -4.2010675451     1.0364303152
   50      H      -4.3366897062     3.8463754017    -1.0839233195
   51      H      -3.1565648133     3.5060705432     0.2454674443
   52      H      -4.8336922124     4.0271610243     0.6473677375
   53      H      -0.4629829779     0.5795064570    -0.6249275222
   54      H      -0.4849557042    -0.2703476185    -2.2328574812
   55      H       0.7015000352    -1.4089964192     0.4253332247
   56      H       0.6151995124    -2.3153971262    -1.1413515717
 ----------------------------------------------------------------

    9   -1510.2867500575      2.83E-09 Convergence criterion met
 Total energy in the final basis set = -1510.28675006
 Final energy is   -1510.28675005746
 **  OPTIMIZATION CONVERGED  **

                    Orbital Energies (a.u.)
 --------------------------------------------------------------

 Alpha MOs
 -- Occupied --
-18.943 -18.936 -18.923 -18.916 -18.888 -18.885 -18.885 -18.884
-18.867 -18.855 -10.106 -10.103 -10.094 -10.085 -10.070 -10.067
-10.064 -10.062 -10.057 -10.057 -10.056 -10.049 -10.041 -10.038
-10.035 -10.029 -10.022 -10.020 -10.018 -10.017  -1.019  -1.016
 -1.002  -0.993  -0.971  -0.967  -0.943  -0.940  -0.929  -0.919
 -0.764  -0.760  -0.726  -0.721  -0.712  -0.705  -0.692  -0.667
 -0.647  -0.615  -0.595  -0.578  -0.546  -0.542  -0.537  -0.534
 -0.512  -0.509  -0.479  -0.478  -0.464  -0.460  -0.454  -0.442
 -0.432  -0.430  -0.422  -0.417  -0.412  -0.403  -0.398  -0.397
 -0.387  -0.379  -0.377  -0.365  -0.361  -0.354  -0.351  -0.343
 -0.341  -0.336  -0.332  -0.330  -0.327  -0.325  -0.320  -0.313
 -0.312  -0.305  -0.303  -0.301  -0.296  -0.282  -0.276  -0.275
 -0.270  -0.259  -0.252  -0.245  -0.238  -0.235  -0.231  -0.187
 -0.183  -0.164  -0.160  -0.160  -0.159  -0.146  -0.145  -0.141
 -0.135

          Ground-State Mulliken Net Atomic Charges

     Atom                 Charge (a.u.)
  ----------------------------------------
      1 O                    -0.207353
      2 C                     0.214525
      3 C                    -0.078164
      4 C                    -0.080945
      5 C                     0.216222
      6 O                    -0.178708
      7 C                    -0.049046
      8 C                    -0.058637
      9 O                    -0.174439
     10 C                     0.217040
     11 C                    -0.077475
     12 C                    -0.081202
     13 C                     0.213230
     14 O                    -0.217623
     15 O                    -0.168800
     16 O                    -0.171149
     17 O                    -0.205125
     18 C                    -0.127989
     19 C                     0.024553
     20 C                    -0.143930
     21 C                    -0.144365
     22 C                     0.026589
     23 O                    -0.187250
     24 H                     0.086073
     25 H                     0.082935
     26 H                     0.088492
     27 H                     0.077391
     28 H                     0.072923
     29 H                     0.077102
     30 H                     0.073419
     31 H                     0.084894
     32 O                    -0.212493
     33 C                    -0.128276
     34 C                     0.025406
     35 C                    -0.143702
     36 C                    -0.143969
     37 C                     0.024989
     38 O                    -0.188193
     39 H                     0.087299
     40 H                     0.083794
     41 H                     0.090393
     42 H                     0.084381
     43 H                     0.078519
     44 H                     0.073675
     45 H                     0.078650
     46 H                     0.073289
     47 H                     0.090625
     48 H                     0.091507
     49 H                     0.092009
     50 H                     0.086486
     51 H                     0.092112
     52 H                     0.085828
     53 H                     0.107041
     54 H                     0.083869
     55 H                     0.096867
     56 H                     0.086707
  ----------------------------------------
  Sum of atomic charges =    -0.000000

                    Cartesian Multipole Moments
 -----------------------------------------------------------------
    Charge (ESU x 10^10)
                -0.0000
    Dipole Moment (Debye)
         X       1.9636      Y      -2.5667      Z      -2.2376
       Tot       3.9306
    Quadrupole Moments (Debye-Ang)
        XX    -139.9289     XY       3.6779     YY    -148.6830
        XZ      -6.8529     YZ     -10.1678     ZZ    -165.8183

 Total job time:  69.28s(wall), 3291.75s(cpu)
        *  Thank you very much for using Q-Chem.  Have a nice day.  *
