 Q-Chem 5.0, Q-Chem, Inc., Pleasanton, CA (2017)
 Q-Chem 5.0.1 for Intel X86 EM64T Linux

User input:
--------------------------------------------------------------
$molecule
0  1
O -4.1184866528 -1.5625101837 1.7955186249
C -4.4327772535 -1.2210003366 0.6338944609
C -4.7871697894 0.2388592837 0.1632971437
C -3.563988143 1.2437816667 0.290415371
C -2.2235352679 0.5156296877 0.6312240964
O -1.4113660936 1.3676558637 1.4423756822
C -0.260824232 0.5966177704 1.982151944
C 0.9764100645 1.5433886227 2.1145592733
O 2.1809737964 0.6771620606 2.1116897572
C 3.0329300619 1.0433133977 1.0116843426
C 4.291628243 0.110763316 1.0394164627
C 4.2450490445 -1.1007431344 0.0129234833
C 2.8593130563 -1.5365977737 -0.5777004446
O 2.5379677209 -2.7216882885 -0.8265723496
O -4.5325580214 -2.126075634 -0.4674728132
O 2.0126622698 -0.4123940757 -0.8194684676
O 2.8260406772 2.0260750666 0.2676235071
C 0.7446742623 -0.8384114255 -1.4681615942
C 5.5143812231 0.9285648473 0.4422825428
C 6.8511611524 0.1051576757 0.6311329588
C 6.736193527 -0.9460302547 -0.5340862963
C 5.296759336 -0.6119888769 -1.0876347125
O 5.2485187013 0.8632365686 -1.0143577876
H 4.4548667101 -0.2447867463 2.0718703481
H 4.6390337901 -2.0078141734 0.5060563006
H 5.557880436 1.9832603192 0.7758089018
H 7.7295910796 0.7574369151 0.5052376901
H 6.9025816336 -0.3681461158 1.6247532213
H 7.4945243531 -0.7667472674 -1.3130567245
H 6.8234286218 -1.9875758333 -0.1859259379
H 5.0886894544 -0.9604678529 -2.1177896027
O -1.8717417169 -0.6206546606 0.2311289025
C -4.1223349734 -3.4833844667 -0.0412919816
C -5.136788459 0.3746790095 -1.3784434995
C -5.9163910957 1.7323562066 -1.5816738642
C -4.7522640937 2.7769390669 -1.4065204488
C -3.5117107675 1.8220580294 -1.1930194232
O -3.8257401605 0.6353811254 -2.0181864116
H -5.6254534446 0.5923828461 0.7914833458
H -3.7435638132 2.0350273773 1.0386352356
H -4.7623558077 -3.8665040406 0.7797404488
H -5.6102995859 -0.5230311571 -1.8186936121
H -6.349852164 1.7784474703 -2.593464141
H -6.7242943432 1.863351494 -0.8444259299
H -4.6145605799 3.3879827123 -2.3127982249
H -4.908582823 3.4496173855 -0.547986871
H -2.5322884634 2.2507752293 -1.4821387533
H -3.0662004905 -3.4949756486 0.2972286224
H -4.2338641886 -4.1285917254 -0.9320662589
H 0.5669231087 -0.162200906 -2.3257232241
H -0.1092094493 -0.7642437817 -0.7571016118
H 0.8401771061 -1.8864819992 -1.8137627953
H 1.0450842745 2.2407400159 1.249836964
H 0.9467511167 2.1201093529 3.0615981743
H -0.0198242591 -0.2456147415 1.3018001476
H -0.5444485873 0.1746492413 2.9703236351
$end

$rem
JOBTYPE                   OPT
METHOD                    B3LYP
DFT_D                     d3_op
BASIS                     STO-3G
GEOM_OPT_MAX_CYCLES       100
GEOM_OPT_TOL_GRADIENT     300
GEOM_OPT_TOL_DISPLACEMENT 1200
GEOM_OPT_TOL_ENERGY       100
SYMMETRY                  False
THRESH                    12
SCF_CONVERGENCE           8
MAX_SUB_FILE_NUM          128
MEM_STATIC                400
MEM_TOTAL                 4000
$end
--------------------------------------------------------------

   16   -1510.2810320411      7.38E-09 Convergence criterion met
 Total energy in the final basis set = -1510.28103204
   14   -1510.2450431892      6.74E-09 Convergence criterion met
 Total energy in the final basis set = -1510.24504319
   14   -1510.2821317635      4.91E-09 Convergence criterion met
 Total energy in the final basis set = -1510.28213176
   14   -1510.2819773924      6.40E-09 Convergence criterion met
 Total energy in the final basis set = -1510.28197739
   14   -1510.2839963202      2.62E-09 Convergence criterion met
 Total energy in the final basis set = -1510.28399632
   14   -1510.2853690534      3.28E-09 Convergence criterion met
 Total energy in the final basis set = -1510.28536905
   13   -1510.2859142407      5.49E-09 Convergence criterion met
 Total energy in the final basis set = -1510.28591424
   13   -1510.2868381545      7.29E-09 Convergence criterion met
   11   -1510.2975508995      2.78E-09 Convergence criterion met
 Total energy in the final basis set = -1510.29755090
    9   -1510.2975516111      8.52E-09 Convergence criterion met
 Total energy in the final basis set = -1510.29755161
    9   -1510.2975519507      5.41E-09 Convergence criterion met
 Total energy in the final basis set = -1510.29755195
   10   -1510.2975502225      7.00E-09 Convergence criterion met
 Total energy in the final basis set = -1510.29755022
   11   -1510.2975495042      2.44E-09 Convergence criterion met
 Total energy in the final basis set = -1510.29754950
   10   -1510.2975431679      6.52E-09 Convergence criterion met
 Total energy in the final basis set = -1510.29754317

             Standard Nuclear Orientation (Angstroms)
    I     Atom           X                Y                Z
 ----------------------------------------------------------------
    1      O      -3.4435081479    -2.3898649875     1.4577732374
    2      C      -3.3385394258    -1.6704769638     0.4386979424
    3      C      -4.1473614550    -0.3417436972     0.1739630971
    4      C      -3.5191802340     0.9413286426     0.8625474910
    5      C      -2.1096775598     0.6686313522     1.4749348519
    6      O      -1.7147426544     1.7781079263     2.2824448945
    7      C      -0.3066254241     1.6015275554     2.7196431852
    8      C       0.6996460822     2.0581312538     1.5953695447
    9      O       1.7872373206     1.0518945698     1.5565284733
   10      C       2.7298052797     1.3914417926     0.5254260854
   11      C       3.8505465729     0.2924416096     0.5154996599
   12      C       3.3310487511    -1.1741123716     0.2118602212
   13      C       1.8044853399    -1.2767629654    -0.1215634621
   14      O       1.0278714399    -2.1811141840     0.2653255020
   15      O      -2.5555659892    -1.9891297132    -0.7115958029
   16      O       1.4573878362    -0.2064511068    -0.9931757626
   17      O       2.6680220548     2.4295920912    -0.1651033225
   18      C       0.0228940137    -0.2646414181    -1.3691090836
   19      C       4.8698799345     0.5135246110    -0.6779335324
   20      C       6.1850814072    -0.2989941865    -0.3600632745
   21      C       5.6964155337    -1.7734140114    -0.6158990155
   22      C       4.2036921798    -1.5271773755    -1.0735101401
   23      O       4.2646433589    -0.2408818073    -1.8005527192
   24      H       4.3619197620     0.3211725643     1.4952858810
   25      H       3.5399575716    -1.8643909269     1.0475900925
   26      H       5.0084173939     1.5760133377    -0.9574711373
   27      H       6.9900627589    -0.0151411761    -1.0566359012
   28      H       6.5370550253    -0.1377143125     0.6712941787
   29      H       6.2709347568    -2.2567886563    -1.4219441764
   30      H       5.7531843077    -2.4036073576     0.2860310862
   31      H       3.7711602160    -2.3182293285    -1.7164896297
   32      O      -1.3830287863    -0.3329363268     1.2684242401
   33      C      -1.7112055993    -3.1820990765    -0.4507970603
   34      C      -4.1634167139     0.1121291110    -1.3475057214
   35      C      -5.3616028122     1.1192206255    -1.5529371278
   36      C      -4.8077579825     2.4004482226    -0.8263757117
   37      C      -3.3703953712     1.9088705761    -0.3934293253
   38      O      -2.9676480231     0.9799772218    -1.4716823349
   39      H      -5.1720591685    -0.5052110146     0.5532633783
   40      H      -4.1773356476     1.3720599117     1.6378773006
   41      H      -2.1503486054    -3.7837141843     0.3686117195
   42      H      -4.1101313331    -0.7221521291    -2.0721871543
   43      H      -5.5258106536     1.3052942253    -2.6263867999
   44      H      -6.2999980137     0.7481189234    -1.1112187873
   45      H      -4.7312778342     3.2576554056    -1.5138992460
   46      H      -5.4208062828     2.6955840237     0.0401496682
   47      H      -2.6164777459     2.7095858853    -0.2623874250
   48      H      -0.6824167553    -2.8504037415    -0.1704091291
   49      H      -1.6813000930    -3.7711203645    -1.3865234077
   50      H      -0.2039868107     0.6971464632    -1.8637266789
   51      H      -0.6265067021    -0.3974358501    -0.4754324149
   52      H      -0.1666694794    -1.0931630805    -2.0800930326
   53      H       0.1747494042     2.1012115967     0.6151767276
   54      H       1.1038424187     3.0717849296     1.8047743092
   55      H      -0.1067402701     0.5336397918     2.9542820543
   56      H      -0.1941160646     2.2164898555     3.6334990688
 ----------------------------------------------------------------

    9   -1510.2975428120      3.74E-09 Convergence criterion met
 Total energy in the final basis set = -1510.29754281
 Final energy is   -1510.29754281204
 **  OPTIMIZATION CONVERGED  **

                    Orbital Energies (a.u.)
 --------------------------------------------------------------

 Alpha MOs
 -- Occupied --
-18.950 -18.932 -18.930 -18.913 -18.895 -18.890 -18.886 -18.875
-18.873 -18.852 -10.113 -10.099 -10.099 -10.086 -10.080 -10.076
-10.066 -10.059 -10.058 -10.056 -10.044 -10.040 -10.036 -10.035
-10.033 -10.025 -10.024 -10.021 -10.020 -10.018  -1.028  -1.013
 -1.003  -0.992  -0.973  -0.968  -0.951  -0.935  -0.933  -0.917
 -0.765  -0.762  -0.730  -0.723  -0.713  -0.705  -0.699  -0.649
 -0.639  -0.619  -0.595  -0.582  -0.548  -0.545  -0.538  -0.536
 -0.514  -0.508  -0.489  -0.473  -0.462  -0.457  -0.453  -0.442
 -0.435  -0.434  -0.426  -0.418  -0.407  -0.402  -0.400  -0.399
 -0.388  -0.380  -0.368  -0.365  -0.359  -0.357  -0.355  -0.346
 -0.341  -0.333  -0.332  -0.330  -0.326  -0.323  -0.322  -0.313
 -0.307  -0.307  -0.304  -0.301  -0.294  -0.289  -0.280  -0.274
 -0.271  -0.262  -0.254  -0.243  -0.239  -0.232  -0.230  -0.192
 -0.176  -0.170  -0.166  -0.160  -0.152  -0.149  -0.144  -0.141
 -0.136

          Ground-State Mulliken Net Atomic Charges

     Atom                 Charge (a.u.)
  ----------------------------------------
      1 O                    -0.224967
      2 C                     0.212068
      3 C                    -0.081435
      4 C                    -0.078726
      5 C                     0.217031
      6 O                    -0.168176
      7 C                    -0.051548
      8 C                    -0.048669
      9 O                    -0.177185
     10 C                     0.217383
     11 C                    -0.078546
     12 C                    -0.078282
     13 C                     0.218417
     14 O                    -0.211805
     15 O                    -0.176068
     16 O                    -0.167333
     17 O                    -0.212313
     18 C                    -0.139470
     19 C                     0.024920
     20 C                    -0.143889
     21 C                    -0.143967
     22 C                     0.025795
     23 O                    -0.185799
     24 H                     0.083429
     25 H                     0.085524
     26 H                     0.090112
     27 H                     0.077990
     28 H                     0.072724
     29 H                     0.078080
     30 H                     0.073847
     31 H                     0.082685
     32 O                    -0.204512
     33 C                    -0.150461
     34 C                     0.025378
     35 C                    -0.143934
     36 C                    -0.143758
     37 C                     0.024529
     38 O                    -0.191169
     39 H                     0.083100
     40 H                     0.088892
     41 H                     0.090701
     42 H                     0.091781
     43 H                     0.078263
     44 H                     0.074258
     45 H                     0.078900
     46 H                     0.074533
     47 H                     0.082191
     48 H                     0.112507
     49 H                     0.074404
     50 H                     0.090605
     51 H                     0.110498
     52 H                     0.085018
     53 H                     0.089440
     54 H                     0.087789
     55 H                     0.106718
     56 H                     0.092499
  ----------------------------------------
  Sum of atomic charges =     0.000000

                    Cartesian Multipole Moments
 -----------------------------------------------------------------
    Charge (ESU x 10^10)
                 0.0000
    Dipole Moment (Debye)
         X      -0.0538      Y       1.5121      Z       1.1603
       Tot       1.9067
    Quadrupole Moments (Debye-Ang)
        XX    -139.9704     XY     -12.1347     YY    -161.4266
        XZ       9.7425     YZ       9.6894     ZZ    -161.6698

 Total job time:  126.29s(wall), 6013.04s(cpu)
        *  Thank you very much for using Q-Chem.  Have a nice day.  *
