 Q-Chem 5.0, Q-Chem, Inc., Pleasanton, CA (2017)
 Q-Chem 5.0.1 for Intel X86 EM64T Linux

User input:
--------------------------------------------------------------
$molecule
0  1
O -3.94934 -3.66094 2.70899
C -3.26408 -4.56952 2.26188
C -3.36658 -6.02376 2.66595
C -4.68167 -6.75177 2.34286
C -5.67984 -5.99616 1.49384
O -6.95114 -6.33963 1.85611
C -7.95009 -5.49586 1.27353
C -9.22187 -6.29421 1.00639
O -10.00179 -5.64634 -0.01089
C -10.24727 -6.38886 -1.11884
C -11.07041 -5.65344 -2.1495
C -10.26664 -5.0562 -3.31377
C -8.84986 -5.57064 -3.47114
O -7.88994 -4.90484 -3.83145
O -2.33601 -4.25446 1.3174
O -8.67595 -6.91844 -3.3891
O -10.11148 -7.60698 -1.16321
C -7.46907 -7.5653 -3.55506
C -12.06367 -6.55162 -2.92055
C -13.19474 -5.69842 -3.49464
C -12.45785 -4.95413 -4.58898
C -11.08177 -5.62287 -4.49475
O -11.36866 -6.93579 -4.07836
H -11.66859 -4.8831 -1.61036
H -10.23747 -3.94434 -3.3289
H -12.48346 -7.37548 -2.30289
H -13.92114 -6.39751 -3.9681
H -13.73071 -5.05708 -2.76235
H -12.94414 -5.18959 -5.56168
H -12.38837 -3.85312 -4.45295
H -10.53798 -5.529 -5.46123
O -5.37877 -5.37939 0.4775
C -2.12122 -2.98428 0.82448
C -2.35919 -6.9333 1.92651
C -2.1518 -8.23858 2.69855
C -3.44593 -8.95543 2.38856
C -4.13018 -7.91876 1.49686
O -3.06316 -7.34399 0.78356
H -3.14377 -6.04513 3.7558
H -5.19626 -7.15438 3.24573
H -1.81626 -2.30123 1.64586
H -1.37146 -6.45403 1.75264
H -1.31589 -8.80173 2.22551
H -1.93575 -8.09024 3.77855
H -3.21178 -9.85552 1.77672
H -4.05274 -9.25039 3.27169
H -4.91753 -8.40951 0.88185
H -3.04464 -2.60134 0.33963
H -1.30963 -3.0199 0.06916
H -7.62215 -8.65681 -3.43051
H -6.74173 -7.21667 -2.79078
H -7.06772 -7.37384 -4.57307
H -8.88548 -7.31277 0.71033
H -9.80348 -6.41078 1.945
H -7.64073 -5.16309 0.25619
H -8.14693 -4.58862 1.88403
$end

$opt
CONSTRAINT
tors           1           2           3           4     +64.251
tors           3           4           5           6    -147.250
tors           4           5           6           7    +169.310
tors           5           6           7           8    +147.239
tors           6           7           8           9    -157.541
tors           7           8           9          10    +120.760
tors           8           9          10          11    -180.000
tors           9          10          11          12    +100.172
tors          11          12          13          14    -144.030
ENDCONSTRAINT
$end

$rem
JOBTYPE                   OPT
METHOD                    B3LYP
DFT_D                     d3_op
BASIS                     STO-3G
GEOM_OPT_MAX_CYCLES       100
GEOM_OPT_TOL_GRADIENT     300
GEOM_OPT_TOL_DISPLACEMENT 1200
GEOM_OPT_TOL_ENERGY       100
SYMMETRY                  False
THRESH                    12
SCF_CONVERGENCE           8
MAX_SUB_FILE_NUM          128
MEM_STATIC                400
MEM_TOTAL                 4000
$end
--------------------------------------------------------------

   15   -1510.1435096535      7.66E-09 Convergence criterion met
 Total energy in the final basis set = -1510.14350965
   14   -1510.2135737011      5.85E-09 Convergence criterion met
 Total energy in the final basis set = -1510.21357370
   14   -1510.2514977289      8.01E-09 Convergence criterion met
 Total energy in the final basis set = -1510.25149773
   14   -1510.2683091064      6.54E-09 Convergence criterion met
 Total energy in the final basis set = -1510.26830911
   13   -1510.2737600760      7.22E-09 Convergence criterion met
 Total energy in the final basis set = -1510.27376008
   13   -1510.2754996044      3.23E-09 Convergence criterion met
 Total energy in the final basis set = -1510.27549960
   12   -1510.2760358538      8.83E-09 Convergence criterion met
 Total energy in the final basis set = -1510.27603585
   12   -1510.2763206474      6.04E-09 Convergence criterion met
   10   -1510.2810279939      8.96E-09 Convergence criterion met
 Total energy in the final basis set = -1510.28102799
   10   -1510.2810331231      9.64E-09 Convergence criterion met
 Total energy in the final basis set = -1510.28103312
    9   -1510.2810414755      7.65E-09 Convergence criterion met
 Total energy in the final basis set = -1510.28104148
    9   -1510.2810471643      4.05E-09 Convergence criterion met
 Total energy in the final basis set = -1510.28104716
    9   -1510.2810505388      5.00E-09 Convergence criterion met
 Total energy in the final basis set = -1510.28105054
    9   -1510.2810525295      5.73E-09 Convergence criterion met
 Total energy in the final basis set = -1510.28105253

             Standard Nuclear Orientation (Angstroms)
    I     Atom           X                Y                Z
 ----------------------------------------------------------------
    1      O      -4.1184866528    -1.5625101837     1.7955186249
    2      C      -4.4327772535    -1.2210003366     0.6338944609
    3      C      -4.7871697894     0.2388592837     0.1632971437
    4      C      -3.5639881430     1.2437816667     0.2904153710
    5      C      -2.2235352679     0.5156296877     0.6312240964
    6      O      -1.4113660936     1.3676558637     1.4423756822
    7      C      -0.2608242320     0.5966177704     1.9821519440
    8      C       0.9764100645     1.5433886227     2.1145592733
    9      O       2.1809737964     0.6771620606     2.1116897572
   10      C       3.0329300619     1.0433133977     1.0116843426
   11      C       4.2916282430     0.1107633160     1.0394164627
   12      C       4.2450490445    -1.1007431344     0.0129234833
   13      C       2.8593130563    -1.5365977737    -0.5777004446
   14      O       2.5379677209    -2.7216882885    -0.8265723496
   15      O      -4.5325580214    -2.1260756340    -0.4674728132
   16      O       2.0126622698    -0.4123940757    -0.8194684676
   17      O       2.8260406772     2.0260750666     0.2676235071
   18      C       0.7446742623    -0.8384114255    -1.4681615942
   19      C       5.5143812231     0.9285648473     0.4422825428
   20      C       6.8511611524     0.1051576757     0.6311329588
   21      C       6.7361935270    -0.9460302547    -0.5340862963
   22      C       5.2967593360    -0.6119888769    -1.0876347125
   23      O       5.2485187013     0.8632365686    -1.0143577876
   24      H       4.4548667101    -0.2447867463     2.0718703481
   25      H       4.6390337901    -2.0078141734     0.5060563006
   26      H       5.5578804360     1.9832603192     0.7758089018
   27      H       7.7295910796     0.7574369151     0.5052376901
   28      H       6.9025816336    -0.3681461158     1.6247532213
   29      H       7.4945243531    -0.7667472674    -1.3130567245
   30      H       6.8234286218    -1.9875758333    -0.1859259379
   31      H       5.0886894544    -0.9604678529    -2.1177896027
   32      O      -1.8717417169    -0.6206546606     0.2311289025
   33      C      -4.1223349734    -3.4833844667    -0.0412919816
   34      C      -5.1367884590     0.3746790095    -1.3784434995
   35      C      -5.9163910957     1.7323562066    -1.5816738642
   36      C      -4.7522640937     2.7769390669    -1.4065204488
   37      C      -3.5117107675     1.8220580294    -1.1930194232
   38      O      -3.8257401605     0.6353811254    -2.0181864116
   39      H      -5.6254534446     0.5923828461     0.7914833458
   40      H      -3.7435638132     2.0350273773     1.0386352356
   41      H      -4.7623558077    -3.8665040406     0.7797404488
   42      H      -5.6102995859    -0.5230311571    -1.8186936121
   43      H      -6.3498521640     1.7784474703    -2.5934641410
   44      H      -6.7242943432     1.8633514940    -0.8444259299
   45      H      -4.6145605799     3.3879827123    -2.3127982249
   46      H      -4.9085828230     3.4496173855    -0.5479868710
   47      H      -2.5322884634     2.2507752293    -1.4821387533
   48      H      -3.0662004905    -3.4949756486     0.2972286224
   49      H      -4.2338641886    -4.1285917254    -0.9320662589
   50      H       0.5669231087    -0.1622009060    -2.3257232241
   51      H      -0.1092094493    -0.7642437817    -0.7571016118
   52      H       0.8401771061    -1.8864819992    -1.8137627953
   53      H       1.0450842745     2.2407400159     1.2498369640
   54      H       0.9467511167     2.1201093529     3.0615981743
   55      H      -0.0198242591    -0.2456147415     1.3018001476
   56      H      -0.5444485873     0.1746492413     2.9703236351
 ----------------------------------------------------------------

    9   -1510.2810523773      1.71E-09 Convergence criterion met
 Total energy in the final basis set = -1510.28105238
 Final energy is   -1510.28105237728
 **  OPTIMIZATION CONVERGED  **

                    Orbital Energies (a.u.)
 --------------------------------------------------------------

 Alpha MOs
 -- Occupied --
-18.941 -18.932 -18.931 -18.927 -18.889 -18.888 -18.885 -18.872
-18.869 -18.865 -10.108 -10.097 -10.096 -10.096 -10.070 -10.065
-10.064 -10.060 -10.059 -10.059 -10.058 -10.043 -10.042 -10.038
-10.037 -10.037 -10.022 -10.020 -10.020 -10.019  -1.020  -1.010
 -1.006  -1.004  -0.972  -0.970  -0.944  -0.932  -0.930  -0.930
 -0.765  -0.762  -0.728  -0.723  -0.713  -0.706  -0.697  -0.657
 -0.651  -0.617  -0.597  -0.578  -0.547  -0.543  -0.539  -0.537
 -0.516  -0.510  -0.484  -0.471  -0.463  -0.460  -0.453  -0.447
 -0.438  -0.434  -0.430  -0.413  -0.407  -0.407  -0.406  -0.399
 -0.392  -0.376  -0.370  -0.368  -0.363  -0.361  -0.350  -0.345
 -0.342  -0.337  -0.335  -0.331  -0.331  -0.325  -0.324  -0.312
 -0.309  -0.306  -0.304  -0.299  -0.299  -0.288  -0.284  -0.279
 -0.269  -0.258  -0.249  -0.244  -0.237  -0.235  -0.233  -0.186
 -0.173  -0.172  -0.167  -0.162  -0.156  -0.150  -0.149  -0.143
 -0.143

          Ground-State Mulliken Net Atomic Charges

     Atom                 Charge (a.u.)
  ----------------------------------------
      1 O                    -0.221127
      2 C                     0.212143
      3 C                    -0.079392
      4 C                    -0.078299
      5 C                     0.216147
      6 O                    -0.170042
      7 C                    -0.053518
      8 C                    -0.056993
      9 O                    -0.176913
     10 C                     0.217641
     11 C                    -0.078765
     12 C                    -0.079786
     13 C                     0.206092
     14 O                    -0.216786
     15 O                    -0.166669
     16 O                    -0.170428
     17 O                    -0.208047
     18 C                    -0.144543
     19 C                     0.026883
     20 C                    -0.145509
     21 C                    -0.142161
     22 C                     0.026154
     23 O                    -0.183659
     24 H                     0.086697
     25 H                     0.085026
     26 H                     0.085326
     27 H                     0.078306
     28 H                     0.073573
     29 H                     0.078373
     30 H                     0.074701
     31 H                     0.084425
     32 O                    -0.213343
     33 C                    -0.126775
     34 C                     0.024616
     35 C                    -0.143878
     36 C                    -0.143985
     37 C                     0.025662
     38 O                    -0.187371
     39 H                     0.083523
     40 H                     0.088112
     41 H                     0.087461
     42 H                     0.093149
     43 H                     0.078263
     44 H                     0.073254
     45 H                     0.078965
     46 H                     0.074327
     47 H                     0.083967
     48 H                     0.094150
     49 H                     0.090223
     50 H                     0.086196
     51 H                     0.097383
     52 H                     0.098342
     53 H                     0.106618
     54 H                     0.084153
     55 H                     0.101671
     56 H                     0.086463
  ----------------------------------------
  Sum of atomic charges =     0.000000

                    Cartesian Multipole Moments
 -----------------------------------------------------------------
    Charge (ESU x 10^10)
                -0.0000
    Dipole Moment (Debye)
         X      -0.7598      Y       0.6535      Z       1.4115
       Tot       1.7311
    Quadrupole Moments (Debye-Ang)
        XX    -136.2462     XY      -8.4629     YY    -160.3576
        XZ       7.7840     YZ       3.1206     ZZ    -161.6667

 Total job time:  94.25s(wall), 4489.85s(cpu)
        *  Thank you very much for using Q-Chem.  Have a nice day.  *
