 Q-Chem 5.0, Q-Chem, Inc., Pleasanton, CA (2017)
 Q-Chem 5.0.1 for Intel X86 EM64T Linux

User input:
--------------------------------------------------------------
$molecule
0  1
O -3.94934 -3.66094 2.70899
C -3.26408 -4.56952 2.26188
C -3.36658 -6.02376 2.66595
C -3.23686 -7.07379 1.5504
C -2.84205 -6.56028 0.18346
O -3.66184 -7.09659 -0.76825
C -4.83703 -6.3142 -1.00501
C -5.256 -6.4243 -2.46736
O -6.40295 -5.59502 -2.71162
C -6.46714 -5.03753 -3.94621
C -7.69386 -4.17848 -4.14081
C -7.99536 -3.20988 -2.9879
C -6.86637 -2.98366 -2.00255
O -6.93267 -2.29518 -0.9945
O -2.16088 -4.21092 1.55343
O -5.59713 -3.12679 -2.48379
O -5.56908 -5.10103 -4.77784
C -4.45337 -2.62578 -1.89258
C -7.63626 -3.2036 -5.33286
C -9.05552 -2.83387 -5.76303
C -9.48431 -1.95503 -4.605
C -8.18435 -1.91192 -3.79462
O -7.17257 -2.00061 -4.77088
H -8.53797 -4.89123 -4.27814
H -8.8928 -3.50143 -2.3991
H -7.0646 -3.59473 -6.20203
H -8.96726 -2.20005 -6.67452
H -9.72487 -3.69422 -5.97915
H -9.72906 -0.94524 -5.00316
H -10.33334 -2.34321 -4.00154
H -8.15938 -1.00638 -3.14873
O -1.74501 -6.10231 -0.09997
C -1.80755 -2.91351 1.24327
C -2.17258 -6.432 3.55515
C -2.53604 -7.66001 4.38945
C -2.52828 -8.73542 3.32391
C -2.07677 -7.91804 2.1091
O -1.22127 -6.94578 2.65636
H -4.30295 -6.13275 3.25854
H -4.16571 -7.68292 1.46188
H -1.63496 -2.33179 2.1737
H -1.82389 -5.60954 4.21824
H -1.6898 -7.84925 5.08822
H -3.47919 -7.5717 4.97041
H -1.75224 -9.48754 3.58942
H -3.50269 -9.24129 3.15066
H -1.63074 -8.585 1.33814
H -2.60481 -2.42858 0.64371
H -0.87056 -2.9244 0.64979
H -3.56954 -2.93877 -2.48509
H -4.35172 -3.01044 -0.85824
H -4.49404 -1.51628 -1.86658
H -4.36764 -6.11489 -3.0632
H -5.50153 -7.48158 -2.70529
H -4.66889 -5.24365 -0.76346
H -5.66565 -6.68701 -0.36513
$end

$opt
CONSTRAINT
tors           1           2           3           4    +139.994
tors           3           4           5           6    -132.768
tors           4           5           6           7     +89.145
tors           5           6           7           8    +147.239
tors           6           7           8           9    -177.673
tors           7           8           9          10    +146.730
tors           8           9          10          11    -180.000
tors           9          10          11          12     +46.100
tors          11          12          13          14    -176.802
ENDCONSTRAINT
$end

$rem
JOBTYPE                   OPT
METHOD                    B3LYP
DFT_D                     d3_op
BASIS                     STO-3G
GEOM_OPT_MAX_CYCLES       100
GEOM_OPT_TOL_GRADIENT     300
GEOM_OPT_TOL_DISPLACEMENT 1200
GEOM_OPT_TOL_ENERGY       100
SYMMETRY                  False
THRESH                    12
SCF_CONVERGENCE           8
MAX_SUB_FILE_NUM          128
MEM_STATIC                400
MEM_TOTAL                 4000
$end
--------------------------------------------------------------

   15   -1510.1160224714      7.50E-09 Convergence criterion met
 Total energy in the final basis set = -1510.11602247
   14   -1510.1885057797      6.06E-09 Convergence criterion met
 Total energy in the final basis set = -1510.18850578
   14   -1510.2274589654      8.84E-09 Convergence criterion met
 Total energy in the final basis set = -1510.22745897
   14   -1510.2441629839      7.08E-09 Convergence criterion met
 Total energy in the final basis set = -1510.24416298
   14   -1510.2489269102      4.63E-09 Convergence criterion met
 Total energy in the final basis set = -1510.24892691
   14   -1510.2499475794      3.52E-09 Convergence criterion met
 Total energy in the final basis set = -1510.24994758
    2   -1510.2499475794      1.74E-09 Convergence criterion met
 Total energy in the final basis set = -1510.24994758
   13   -1510.2511502204      3.59E-09 Convergence criterion met
   10   -1510.2518663748      4.95E-09 Convergence criterion met
 Total energy in the final basis set = -1510.25186637
    9   -1510.2518707499      8.74E-09 Convergence criterion met
 Total energy in the final basis set = -1510.25187075
    9   -1510.2518745605      6.84E-09 Convergence criterion met
 Total energy in the final basis set = -1510.25187456
    9   -1510.2518767470      4.86E-09 Convergence criterion met
 Total energy in the final basis set = -1510.25187675
    9   -1510.2518751751      4.82E-09 Convergence criterion met
 Total energy in the final basis set = -1510.25187518
    9   -1510.2518763213      3.62E-09 Convergence criterion met
 Total energy in the final basis set = -1510.25187632

             Standard Nuclear Orientation (Angstroms)
    I     Atom           X                Y                Z
 ----------------------------------------------------------------
    1      O      -2.7685675730    -2.7130947448     1.0860799725
    2      C      -3.1566836470    -1.7444718999     0.3935156004
    3      C      -3.9705540197    -0.5203217785     0.9407238490
    4      C      -3.6467699157     0.9500250319     0.4254272618
    5      C      -2.6163529198     1.1254249878    -0.7561990821
    6      O      -1.6245478282     2.1681312648    -0.4755331549
    7      C      -0.4784460762     1.5393809586     0.2237042830
    8      C       0.8207229692     2.3045542183    -0.2027384601
    9      O       1.9528751672     1.6203779817     0.4647286955
   10      C       3.1266644515     1.6687921412    -0.3622105460
   11      C       4.2821327277     0.9310539752     0.3981287839
   12      C       3.9070569884    -0.4623737682     1.0438493122
   13      C       2.6923350894    -1.2213999728     0.3922580358
   14      O       2.2046639745    -2.3027790037     0.7877971570
   15      O      -3.0430346853    -1.6925599979    -1.0279539688
   16      O       2.3516656847    -0.6199249976    -0.8619017839
   17      O       3.1948135113     2.2462633638    -1.4671559150
   18      C       1.3040691834    -1.4056052516    -1.5489958749
   19      C       5.5301470334     0.5460561457    -0.5043652930
   20      C       6.7955042730     0.5483472991     0.4346024789
   21      C       6.4866359458    -0.7091575734     1.3321410469
   22      C       5.2006267578    -1.2953687577     0.6222559429
   23      O       5.3517249798    -0.8961196747    -0.7974957106
   24      H       4.6069697994     1.6156766922     1.2047723470
   25      H       3.7630817256    -0.4073398419     2.1371472709
   26      H       5.6094836054     1.1314298015    -1.4412260082
   27      H       7.7129702013     0.4012266604    -0.1578695632
   28      H       6.8927344903     1.4785232146     1.0168378880
   29      H       7.3090205172    -1.4414609872     1.3074102713
   30      H       6.2868834764    -0.4411146123     2.3822523101
   31      H       5.0754031758    -2.3925497002     0.7082389146
   32      O      -2.7123651686     0.6416794565    -1.9006091062
   33      C      -2.3716915921    -2.9141038073    -1.5302656221
   34      C      -5.5159413774    -0.6425828926     0.5489735294
   35      C      -6.3515393937     0.1757146492     1.6089156458
   36      C      -6.0151774818     1.6510899686     1.1778461331
   37      C      -5.0924646978     1.4008726173    -0.0800580412
   38      O      -5.6345722142     0.1648878830    -0.6830860928
   39      H      -3.8580154523    -0.5578813988     2.0389446236
   40      H      -3.3020182268     1.5814283620     1.2625685099
   41      H      -2.9857582281    -3.8198752297    -1.3487019951
   42      H      -5.8637846909    -1.6783909746     0.3694677286
   43      H      -7.4261816676    -0.0418527655     1.4999178386
   44      H      -6.0481367015    -0.0485692745     2.6438687232
   45      H      -6.9209780151     2.2057426805     0.8859092811
   46      H      -5.4930978483     2.2161580722     1.9662881430
   47      H      -5.0796042850     2.2207708073    -0.8244316410
   48      H      -1.3800101402    -3.0631792499    -1.0569786313
   49      H      -2.2475207871    -2.7621616686    -2.6181864017
   50      H       1.0408837854    -0.8335433742    -2.4578114399
   51      H       0.4027249853    -1.5310115232    -0.9150803080
   52      H       1.6741912190    -2.4112426004    -1.8359387040
   53      H       0.9509316075     2.2805698352    -1.3055123164
   54      H       0.7672635451     3.3673222861     0.1201696937
   55      H      -0.3554186026     0.4695467240    -0.0490416198
   56      H      -0.6038884675     1.5951028506     1.3301681751
 ----------------------------------------------------------------

    9   -1510.2518770468      2.83E-09 Convergence criterion met
 Total energy in the final basis set = -1510.25187705
 Final energy is   -1510.25187704677
 **  OPTIMIZATION CONVERGED  **

                    Orbital Energies (a.u.)
 --------------------------------------------------------------

 Alpha MOs
 -- Occupied --
-18.940 -18.938 -18.926 -18.908 -18.898 -18.895 -18.887 -18.875
-18.873 -18.872 -10.107 -10.101 -10.101 -10.100 -10.073 -10.068
-10.068 -10.066 -10.065 -10.064 -10.061 -10.058 -10.042 -10.041
-10.040 -10.037 -10.025 -10.024 -10.022 -10.020  -1.017  -1.014
 -1.006  -1.004  -0.976  -0.971  -0.940  -0.938  -0.935  -0.931
 -0.766  -0.764  -0.727  -0.725  -0.713  -0.707  -0.696  -0.666
 -0.662  -0.610  -0.602  -0.583  -0.549  -0.545  -0.542  -0.538
 -0.520  -0.512  -0.488  -0.479  -0.467  -0.465  -0.445  -0.443
 -0.439  -0.435  -0.429  -0.417  -0.414  -0.413  -0.410  -0.399
 -0.393  -0.385  -0.377  -0.372  -0.363  -0.361  -0.356  -0.347
 -0.344  -0.339  -0.338  -0.334  -0.331  -0.331  -0.320  -0.315
 -0.312  -0.311  -0.306  -0.302  -0.299  -0.296  -0.292  -0.275
 -0.271  -0.261  -0.251  -0.246  -0.240  -0.236  -0.235  -0.184
 -0.178  -0.171  -0.160  -0.157  -0.155  -0.153  -0.149  -0.148
 -0.145

          Ground-State Mulliken Net Atomic Charges

     Atom                 Charge (a.u.)
  ----------------------------------------
      1 O                    -0.215504
      2 C                     0.200246
      3 C                    -0.081195
      4 C                    -0.083284
      5 C                     0.217605
      6 O                    -0.198627
      7 C                    -0.047000
      8 C                    -0.048395
      9 O                    -0.180548
     10 C                     0.221399
     11 C                    -0.079647
     12 C                    -0.075411
     13 C                     0.213273
     14 O                    -0.215625
     15 O                    -0.160499
     16 O                    -0.166387
     17 O                    -0.215769
     18 C                    -0.126234
     19 C                     0.024209
     20 C                    -0.141974
     21 C                    -0.145147
     22 C                     0.023963
     23 O                    -0.190875
     24 H                     0.082733
     25 H                     0.087150
     26 H                     0.091621
     27 H                     0.078424
     28 H                     0.073386
     29 H                     0.078756
     30 H                     0.073753
     31 H                     0.084930
     32 O                    -0.164080
     33 C                    -0.128055
     34 C                     0.027290
     35 C                    -0.143242
     36 C                    -0.144250
     37 C                     0.027378
     38 O                    -0.182664
     39 H                     0.084983
     40 H                     0.082301
     41 H                     0.089020
     42 H                     0.084610
     43 H                     0.079278
     44 H                     0.075124
     45 H                     0.079596
     46 H                     0.074637
     47 H                     0.085696
     48 H                     0.087779
     49 H                     0.094535
     50 H                     0.096078
     51 H                     0.084971
     52 H                     0.091542
     53 H                     0.100298
     54 H                     0.083309
     55 H                     0.079153
     56 H                     0.075387
  ----------------------------------------
  Sum of atomic charges =     0.000000

                    Cartesian Multipole Moments
 -----------------------------------------------------------------
    Charge (ESU x 10^10)
                -0.0000
    Dipole Moment (Debye)
         X      -0.0441      Y       0.8151      Z       2.9734
       Tot       3.0834
    Quadrupole Moments (Debye-Ang)
        XX    -147.1861     XY      -0.8996     YY    -162.7515
        XZ      -0.2735     YZ      10.6752     ZZ    -163.3527

 Total job time:  56.32s(wall), 2676.37s(cpu)
        *  Thank you very much for using Q-Chem.  Have a nice day.  *
