 Q-Chem 5.0, Q-Chem, Inc., Pleasanton, CA (2017)
 Q-Chem 5.0.1 for Intel X86 EM64T Linux

User input:
--------------------------------------------------------------
$molecule
0  1
O -2.768567573 -2.7130947448 1.0860799725
C -3.156683647 -1.7444718999 0.3935156004
C -3.9705540197 -0.5203217785 0.940723849
C -3.6467699157 0.9500250319 0.4254272618
C -2.6163529198 1.1254249878 -0.7561990821
O -1.6245478282 2.1681312648 -0.4755331549
C -0.4784460762 1.5393809586 0.223704283
C 0.8207229692 2.3045542183 -0.2027384601
O 1.9528751672 1.6203779817 0.4647286955
C 3.1266644515 1.6687921412 -0.362210546
C 4.2821327277 0.9310539752 0.3981287839
C 3.9070569884 -0.4623737682 1.0438493122
C 2.6923350894 -1.2213999728 0.3922580358
O 2.2046639745 -2.3027790037 0.787797157
O -3.0430346853 -1.6925599979 -1.0279539688
O 2.3516656847 -0.6199249976 -0.8619017839
O 3.1948135113 2.2462633638 -1.467155915
C 1.3040691834 -1.4056052516 -1.5489958749
C 5.5301470334 0.5460561457 -0.504365293
C 6.795504273 0.5483472991 0.4346024789
C 6.4866359458 -0.7091575734 1.3321410469
C 5.2006267578 -1.2953687577 0.6222559429
O 5.3517249798 -0.8961196747 -0.7974957106
H 4.6069697994 1.6156766922 1.204772347
H 3.7630817256 -0.4073398419 2.1371472709
H 5.6094836054 1.1314298015 -1.4412260082
H 7.7129702013 0.4012266604 -0.1578695632
H 6.8927344903 1.4785232146 1.016837888
H 7.3090205172 -1.4414609872 1.3074102713
H 6.2868834764 -0.4411146123 2.3822523101
H 5.0754031758 -2.3925497002 0.7082389146
O -2.7123651686 0.6416794565 -1.9006091062
C -2.3716915921 -2.9141038073 -1.5302656221
C -5.5159413774 -0.6425828926 0.5489735294
C -6.3515393937 0.1757146492 1.6089156458
C -6.0151774818 1.6510899686 1.1778461331
C -5.0924646978 1.4008726173 -0.0800580412
O -5.6345722142 0.164887883 -0.6830860928
H -3.8580154523 -0.5578813988 2.0389446236
H -3.3020182268 1.581428362 1.2625685099
H -2.9857582281 -3.8198752297 -1.3487019951
H -5.8637846909 -1.6783909746 0.3694677286
H -7.4261816676 -0.0418527655 1.4999178386
H -6.0481367015 -0.0485692745 2.6438687232
H -6.9209780151 2.2057426805 0.8859092811
H -5.4930978483 2.2161580722 1.966288143
H -5.079604285 2.2207708073 -0.824431641
H -1.3800101402 -3.0631792499 -1.0569786313
H -2.2475207871 -2.7621616686 -2.6181864017
H 1.0408837854 -0.8335433742 -2.4578114399
H 0.4027249853 -1.5310115232 -0.915080308
H 1.674191219 -2.4112426004 -1.835938704
H 0.9509316075 2.2805698352 -1.3055123164
H 0.7672635451 3.3673222861 0.1201696937
H -0.3554186026 0.469546724 -0.0490416198
H -0.6038884675 1.5951028506 1.3301681751
$end

$rem
JOBTYPE                   OPT
METHOD                    B3LYP
DFT_D                     d3_op
BASIS                     STO-3G
GEOM_OPT_MAX_CYCLES       100
GEOM_OPT_TOL_GRADIENT     300
GEOM_OPT_TOL_DISPLACEMENT 1200
GEOM_OPT_TOL_ENERGY       100
SYMMETRY                  False
THRESH                    12
SCF_CONVERGENCE           8
MAX_SUB_FILE_NUM          128
MEM_STATIC                400
MEM_TOTAL                 4000
$end
--------------------------------------------------------------

   16   -1510.2518013174      6.14E-09 Convergence criterion met
 Total energy in the final basis set = -1510.25180132
   13   -1510.2535286876      9.74E-09 Convergence criterion met
 Total energy in the final basis set = -1510.25352869
   14   -1510.2556888312      1.59E-09 Convergence criterion met
 Total energy in the final basis set = -1510.25568883
   14   -1510.2569295554      6.58E-09 Convergence criterion met
 Total energy in the final basis set = -1510.25692956
   14   -1510.2593568683      3.38E-09 Convergence criterion met
 Total energy in the final basis set = -1510.25935687
   13   -1510.2617933935      6.85E-09 Convergence criterion met
 Total energy in the final basis set = -1510.26179339
   13   -1510.2645667810      9.76E-09 Convergence criterion met
 Total energy in the final basis set = -1510.26456678
   18   -1509.7135988496      4.55E-09 Convergence criterion met
   12   -1510.2895222433      2.94E-09 Convergence criterion met
 Total energy in the final basis set = -1510.28952224
   11   -1510.2895323558      9.49E-09 Convergence criterion met
 Total energy in the final basis set = -1510.28953236
   11   -1510.2895413130      7.52E-09 Convergence criterion met
 Total energy in the final basis set = -1510.28954131
   11   -1510.2895424776      3.54E-09 Convergence criterion met
 Total energy in the final basis set = -1510.28954248
    9   -1510.2895434961      7.99E-09 Convergence criterion met
 Total energy in the final basis set = -1510.28954350
    9   -1510.2895444984      7.80E-09 Convergence criterion met
 Total energy in the final basis set = -1510.28954450

             Standard Nuclear Orientation (Angstroms)
    I     Atom           X                Y                Z
 ----------------------------------------------------------------
    1      O      -1.1874343714    -0.8732475991     1.6102252996
    2      C      -2.2929080927    -1.0573424545     1.0385002921
    3      C      -3.5164071801    -0.0757552051     1.1063487596
    4      C      -3.5102038056     1.0210171004    -0.0484392752
    5      C      -2.3441557344     0.8593443579    -1.1000855935
    6      O      -1.0357846553     1.3822557195    -0.7938527843
    7      C      -0.7930797469     1.7960656027     0.6121788537
    8      C       0.6396186884     2.4187271376     0.6661489510
    9      O       1.6379293860     1.3564348370     0.9375136050
   10      C       2.8749047427     1.6455480682     0.2637134849
   11      C       3.9450582563     0.6020048519     0.7440275563
   12      C       3.5393785179    -0.9138502418     0.5206405804
   13      C       2.1730943362    -1.0904724196    -0.2210967052
   14      O       1.2363754413    -1.8448240613     0.1280043845
   15      O      -2.6032139960    -2.1637742165     0.2140027350
   16      O       2.1994709263    -0.2898436527    -1.3948938641
   17      O       3.0495350015     2.6127559738    -0.5069681307
   18      C       0.9079211678    -0.3558349172    -2.1235914308
   19      C       5.2765196773     0.6962514710    -0.1096703417
   20      C       6.4329206983    -0.0060205919     0.7034446407
   21      C       6.0402592927    -1.5214490057     0.5358374359
   22      C       4.7561970973    -1.4065622698    -0.3794883989
   23      O       5.0377009246    -0.2349514571    -1.2368432221
   24      H       4.1390941689     0.7931245907     1.8158340211
   25      H       3.4818551233    -1.4675044294     1.4736844684
   26      H       5.4948820721     1.7137271815    -0.4881871132
   27      H       7.4112287353     0.2094137323     0.2451410235
   28      H       6.4566246896     0.3141847016     1.7572576860
   29      H       6.8306544068    -2.0911060577     0.0218075630
   30      H       5.8190710460    -2.0117790744     1.4974912925
   31      H       4.5376842391    -2.2981231477    -0.9990093961
   32      O      -2.4860781591     0.3475453672    -2.2314571619
   33      C      -1.4411148963    -3.0836440557     0.0972188435
   34      C      -4.9094303875    -0.7858061818     0.8327271099
   35      C      -6.0612838048     0.1774486236     1.3254506971
   36      C      -6.0545527637     1.2650324547     0.1871883741
   37      C      -4.9035931815     0.7199170679    -0.7466722213
   38      O      -5.0325390971    -0.7498711702    -0.6414326995
   39      H      -3.4924360212     0.4110918392     2.0976860505
   40      H      -3.4889867621     2.0389005506     0.3781167040
   41      H      -1.4108301978    -3.7680961747     0.9691414433
   42      H      -4.9709958735    -1.8276506083     1.2014702283
   43      H      -7.0213300840    -0.3611750371     1.3637869507
   44      H      -5.8531936075     0.6002719804     2.3213244630
   45      H      -7.0122799311     1.2872863698    -0.3563462796
   46      H      -5.8393599142     2.2770647256     0.5657120175
   47      H      -4.9532164137     1.0347603965    -1.8068816007
   48      H      -0.4734220549    -2.5304006642     0.0346262353
   49      H      -1.6187061793    -3.6735181670    -0.8205196662
   50      H       1.1186412880     0.0086728174    -3.1450601857
   51      H       0.1529832627     0.3058683753    -1.6312125397
   52      H       0.5252074916    -1.3940613166    -2.1700088339
   53      H       0.8900159596     2.9354205473    -0.2864121894
   54      H       0.6783560886     3.1655730248     1.4900944296
   55      H      -0.8562904493     0.8975690257     1.2829603658
   56      H      -1.5285116900     2.5650840736     0.9295354382
 ----------------------------------------------------------------

    9   -1510.2895452787      6.80E-09 Convergence criterion met
 Total energy in the final basis set = -1510.28954528
 Final energy is   -1510.28954527867
 **  OPTIMIZATION CONVERGED  **

                    Orbital Energies (a.u.)
 --------------------------------------------------------------

 Alpha MOs
 -- Occupied --
-18.942 -18.941 -18.928 -18.928 -18.891 -18.884 -18.882 -18.879
-18.874 -18.871 -10.106 -10.105 -10.098 -10.097 -10.072 -10.068
-10.063 -10.062 -10.058 -10.054 -10.045 -10.044 -10.041 -10.035
-10.033 -10.032 -10.024 -10.023 -10.018 -10.017  -1.017  -1.012
 -1.008  -1.001  -0.973  -0.966  -0.944  -0.939  -0.933  -0.929
 -0.768  -0.761  -0.726  -0.724  -0.711  -0.709  -0.699  -0.653
 -0.644  -0.607  -0.603  -0.581  -0.554  -0.542  -0.541  -0.535
 -0.515  -0.507  -0.491  -0.479  -0.470  -0.462  -0.455  -0.437
 -0.435  -0.429  -0.420  -0.418  -0.410  -0.406  -0.402  -0.400
 -0.394  -0.385  -0.373  -0.369  -0.360  -0.356  -0.354  -0.344
 -0.342  -0.338  -0.335  -0.328  -0.326  -0.321  -0.320  -0.314
 -0.310  -0.306  -0.304  -0.302  -0.293  -0.288  -0.286  -0.280
 -0.273  -0.256  -0.246  -0.242  -0.237  -0.234  -0.230  -0.186
 -0.177  -0.174  -0.163  -0.157  -0.155  -0.150  -0.146  -0.145
 -0.140

          Ground-State Mulliken Net Atomic Charges

     Atom                 Charge (a.u.)
  ----------------------------------------
      1 O                    -0.214903
      2 C                     0.208317
      3 C                    -0.081270
      4 C                    -0.083529
      5 C                     0.207117
      6 O                    -0.173670
      7 C                    -0.062868
      8 C                    -0.051452
      9 O                    -0.176000
     10 C                     0.216713
     11 C                    -0.077498
     12 C                    -0.078146
     13 C                     0.219694
     14 O                    -0.218799
     15 O                    -0.160296
     16 O                    -0.167122
     17 O                    -0.211736
     18 C                    -0.148174
     19 C                     0.024777
     20 C                    -0.143899
     21 C                    -0.144090
     22 C                     0.026141
     23 O                    -0.185043
     24 H                     0.083449
     25 H                     0.085172
     26 H                     0.090182
     27 H                     0.077770
     28 H                     0.072375
     29 H                     0.077585
     30 H                     0.073245
     31 H                     0.082441
     32 O                    -0.193744
     33 C                    -0.146679
     34 C                     0.027011
     35 C                    -0.144377
     36 C                    -0.144577
     37 C                     0.026870
     38 O                    -0.182537
     39 H                     0.082260
     40 H                     0.079062
     41 H                     0.079623
     42 H                     0.088275
     43 H                     0.079110
     44 H                     0.072453
     45 H                     0.079531
     46 H                     0.071858
     47 H                     0.090635
     48 H                     0.125378
     49 H                     0.086264
     50 H                     0.086205
     51 H                     0.111298
     52 H                     0.082173
     53 H                     0.104619
     54 H                     0.081382
     55 H                     0.116182
     56 H                     0.075244
  ----------------------------------------
  Sum of atomic charges =    -0.000000

                    Cartesian Multipole Moments
 -----------------------------------------------------------------
    Charge (ESU x 10^10)
                -0.0000
    Dipole Moment (Debye)
         X      -1.0497      Y       1.1036      Z       4.0364
       Tot       4.3142
    Quadrupole Moments (Debye-Ang)
        XX    -147.4845     XY     -12.6510     YY    -154.5931
        XZ      -0.5621     YZ       3.8307     ZZ    -164.3685

 Total job time:  191.89s(wall), 9151.14s(cpu)
        *  Thank you very much for using Q-Chem.  Have a nice day.  *
