 Q-Chem 5.0, Q-Chem, Inc., Pleasanton, CA (2017)
 Q-Chem 5.0.1 for Intel X86 EM64T Linux

User input:
--------------------------------------------------------------
$molecule
0  1
O -3.94934 -3.66094 2.70899
C -3.26408 -4.56952 2.26188
C -3.36658 -6.02376 2.66595
C -4.65755 -6.76858 2.28846
C -5.62685 -6.02753 1.39438
O -6.90849 -6.3854 1.70221
C -7.89163 -5.57423 1.05052
C -9.28757 -6.13259 1.30683
O -10.1899 -5.68317 0.28374
C -10.79029 -6.66336 -0.43591
C -12.09532 -6.22319 -1.05542
C -12.60784 -4.85523 -0.5818
C -11.59924 -3.98628 0.14234
O -11.78982 -3.41589 1.20672
O -2.32204 -4.25103 1.33239
O -10.5695 -3.50872 -0.62773
O -10.28932 -7.75721 -0.6627
C -9.72029 -2.48548 -0.25871
C -12.05917 -6.01597 -2.57916
C -13.47022 -6.17131 -3.14513
C -14.13146 -4.91359 -2.61141
C -12.92829 -4.22655 -1.95328
O -11.83415 -4.63708 -2.7418
H -12.83054 -7.02056 -0.80226
H -13.50107 -4.94346 0.07588
H -11.35013 -6.69618 -3.09916
H -13.38559 -6.08551 -4.25234
H -13.98683 -7.12202 -2.89183
H -14.5022 -4.31927 -3.4758
H -14.95318 -5.08115 -1.88184
H -13.0929 -3.12884 -1.87923
O -5.30448 -5.40087 0.39096
C -2.0981 -2.97862 0.84938
C -2.31955 -6.92098 1.96618
C -2.12418 -8.22269 2.74719
C -3.39667 -8.95608 2.39067
C -4.05808 -7.93051 1.4692
O -2.97197 -7.3428 0.79714
H -3.18042 -6.04386 3.76268
H -5.20591 -7.17484 3.16951
H -1.80338 -2.30062 1.67867
H -1.33219 -6.4287 1.83018
H -1.26441 -8.77478 2.30475
H -1.94905 -8.07219 3.83426
H -3.12844 -9.85629 1.79317
H -4.03433 -9.25349 3.25093
H -4.81398 -8.433 0.82494
H -3.01395 -2.59128 0.35381
H -1.276 -3.01167 0.10541
H -8.97068 -2.32735 -1.06074
H -9.19425 -2.73947 0.68362
H -10.29649 -1.5465 -0.11701
H -9.20805 -7.24341 1.33715
H -9.63982 -5.81837 2.31183
H -7.72884 -5.67079 -0.04825
H -7.81942 -4.50256 1.33357
$end

$opt
CONSTRAINT
tors           1           2           3           4     +66.843
tors           3           4           5           6    -147.250
tors           4           5           6           7    +170.619
tors           5           6           7           8    +173.268
tors           6           7           8           9    -157.541
tors           7           8           9          10    +120.760
tors           8           9          10          11    +155.861
tors           9          10          11          12      -9.392
tors          11          12          13          14    -131.239
ENDCONSTRAINT
$end

$rem
JOBTYPE                   OPT
METHOD                    B3LYP
DFT_D                     d3_op
BASIS                     STO-3G
GEOM_OPT_MAX_CYCLES       100
GEOM_OPT_TOL_GRADIENT     300
GEOM_OPT_TOL_DISPLACEMENT 1200
GEOM_OPT_TOL_ENERGY       100
SYMMETRY                  False
THRESH                    12
SCF_CONVERGENCE           8
MAX_SUB_FILE_NUM          128
MEM_STATIC                400
MEM_TOTAL                 4000
$end
--------------------------------------------------------------

   15   -1510.1411537006      6.11E-09 Convergence criterion met
 Total energy in the final basis set = -1510.14115370
   14   -1510.2097656909      8.63E-09 Convergence criterion met
 Total energy in the final basis set = -1510.20976569
   14   -1510.2441800602      8.90E-09 Convergence criterion met
 Total energy in the final basis set = -1510.24418006
   15   -1510.2616831390      1.56E-09 Convergence criterion met
 Total energy in the final basis set = -1510.26168314
   13   -1510.2680223443      8.99E-09 Convergence criterion met
 Total energy in the final basis set = -1510.26802234
   13   -1510.2705333932      6.32E-09 Convergence criterion met
 Total energy in the final basis set = -1510.27053339
   12   -1510.2712753096      7.28E-09 Convergence criterion met
 Total energy in the final basis set = -1510.27127531
   12   -1510.2714490445      4.75E-09 Convergence criterion met
   11   -1510.2715820261      2.61E-09 Convergence criterion met
 Total energy in the final basis set = -1510.27158203
    9   -1510.2715873599      8.45E-09 Convergence criterion met
 Total energy in the final basis set = -1510.27158736
   10   -1510.2715931938      8.74E-09 Convergence criterion met
 Total energy in the final basis set = -1510.27159319
   10   -1510.2715963415      8.89E-09 Convergence criterion met
 Total energy in the final basis set = -1510.27159634
    9   -1510.2716001115      6.90E-09 Convergence criterion met
 Total energy in the final basis set = -1510.27160011
    9   -1510.2716013904      4.83E-09 Convergence criterion met
 Total energy in the final basis set = -1510.27160139

             Standard Nuclear Orientation (Angstroms)
    I     Atom           X                Y                Z
 ----------------------------------------------------------------
    1      O       4.1453908514    -2.2585397610    -1.0265688711
    2      C       4.7791508306    -1.4712183067    -0.2894130514
    3      C       5.1251057541     0.0279152524    -0.6219406752
    4      C       3.8411437514     0.9590567155    -0.6876192389
    5      C       2.5427955140     0.2326244284    -0.2014118360
    6      O       1.4267673854     0.7380879484    -0.9428745271
    7      C       0.2215874963    -0.0852853499    -0.6678557005
    8      C      -0.9842866026     0.6289451084    -1.3707663969
    9      O      -2.2498254320     0.2095571859    -0.7223802745
   10      C      -2.9568498917     1.3377049305    -0.1868598984
   11      C      -4.4942740647     1.0503878157    -0.0570439381
   12      C      -5.0629611564    -0.2719320606    -0.7142137241
   13      C      -4.0235943763    -1.4292018203    -0.9553033160
   14      O      -3.8695993042    -2.0719938259    -2.0173330876
   15      O       5.3107674741    -1.8249738894     0.9892357379
   16      O      -3.4453349984    -1.8119630489     0.3012889433
   17      O      -2.4089806917     2.4361773375     0.0558436703
   18      C      -2.4883898562    -2.9193946584     0.0907704329
   19      C      -5.0878457808     0.9563827408     1.4223631680
   20      C      -6.5753403714     1.4794747971     1.3465202434
   21      C      -7.2572000443     0.3032951692     0.5520798227
   22      C      -6.0638014402    -0.7295744753     0.4368502642
   23      O      -5.2666419926    -0.4907998740     1.6631895520
   24      H      -4.9615711757     1.9211220972    -0.5553025745
   25      H      -5.5738534008    -0.0665821332    -1.6708732582
   26      H      -4.4573405833     1.4139744933     2.2091681343
   27      H      -6.9970892596     1.5767699583     2.3599094485
   28      H      -6.6570786118     2.4506823410     0.8329212243
   29      H      -8.0957834199    -0.1357724033     1.1151893594
   30      H      -7.6245480765     0.6183748124    -0.4380238660
   31      H      -6.3694653171    -1.7921514834     0.3771844482
   32      O       2.4602407752    -0.6623713097     0.6686985900
   33      C       4.9037273150    -3.2057889027     1.3348711882
   34      C       5.9869182544     0.7743812205     0.4819643546
   35      C       6.6362515944     2.0498200721    -0.1849861404
   36      C       5.3817805930     2.9900197837    -0.3240732831
   37      C       4.2570378241     2.1000436035     0.3406330003
   38      O       4.9714270698     1.3490314771     1.3959207747
   39      H       5.6408711974     0.0359582793    -1.5996307989
   40      H       3.6640018540     1.3613326434    -1.7001625607
   41      H       5.2612891555    -3.9395928263     0.5835908340
   42      H       6.6809625057     0.1172498355     1.0391898679
   43      H       7.3946829398     2.4867719711     0.4839444882
   44      H       7.1088694079     1.8210553135    -1.1534474385
   45      H       5.5132675868     3.9292376318     0.2364834117
   46      H       5.1471450551     3.2337913271    -1.3725948156
   47      H       3.4041865521     2.6616672003     0.7691918103
   48      H       3.8005315910    -3.2889703753     1.4145661555
   49      H       5.3644184535    -3.4230733211     2.3160034369
   50      H      -2.1299576950    -3.2079617612     1.0959936646
   51      H      -1.6269598132    -2.5969884442    -0.5290680741
   52      H      -2.9671535872    -3.7915559635    -0.3998900667
   53      H      -0.8675577627     1.7295803043    -1.2620893983
   54      H      -1.0422677954     0.3535798336    -2.4443923008
   55      H       0.0286734842    -0.1500120508     0.4258045022
   56      H       0.3609792995    -1.1187119352    -1.0522950835
 ----------------------------------------------------------------

    9   -1510.2716015907      3.89E-09 Convergence criterion met
 Total energy in the final basis set = -1510.27160159
 Final energy is   -1510.27160159072
 **  OPTIMIZATION CONVERGED  **

                    Orbital Energies (a.u.)
 --------------------------------------------------------------

 Alpha MOs
 -- Occupied --
-18.942 -18.936 -18.929 -18.921 -18.890 -18.887 -18.885 -18.879
-18.862 -18.858 -10.109 -10.101 -10.093 -10.091 -10.077 -10.075
-10.063 -10.061 -10.061 -10.057 -10.056 -10.054 -10.042 -10.038
-10.036 -10.035 -10.022 -10.021 -10.020 -10.018  -1.021  -1.014
 -1.003  -0.998  -0.971  -0.969  -0.946  -0.939  -0.927  -0.923
 -0.765  -0.762  -0.729  -0.722  -0.713  -0.706  -0.698  -0.655
 -0.652  -0.616  -0.597  -0.583  -0.547  -0.545  -0.538  -0.537
 -0.517  -0.510  -0.489  -0.474  -0.468  -0.456  -0.453  -0.444
 -0.434  -0.432  -0.426  -0.410  -0.408  -0.405  -0.404  -0.403
 -0.397  -0.377  -0.374  -0.367  -0.362  -0.356  -0.352  -0.346
 -0.339  -0.339  -0.333  -0.331  -0.329  -0.328  -0.322  -0.315
 -0.309  -0.308  -0.302  -0.299  -0.295  -0.290  -0.284  -0.279
 -0.276  -0.257  -0.246  -0.242  -0.240  -0.234  -0.232  -0.185
 -0.180  -0.168  -0.166  -0.161  -0.156  -0.146  -0.144  -0.140
 -0.140

          Ground-State Mulliken Net Atomic Charges

     Atom                 Charge (a.u.)
  ----------------------------------------
      1 O                    -0.222362
      2 C                     0.212466
      3 C                    -0.079757
      4 C                    -0.078723
      5 C                     0.211547
      6 O                    -0.173133
      7 C                    -0.047764
      8 C                    -0.051295
      9 O                    -0.170464
     10 C                     0.213178
     11 C                    -0.079319
     12 C                    -0.079425
     13 C                     0.216112
     14 O                    -0.224713
     15 O                    -0.166594
     16 O                    -0.165353
     17 O                    -0.210645
     18 C                    -0.126673
     19 C                     0.026996
     20 C                    -0.141970
     21 C                    -0.145415
     22 C                     0.026573
     23 O                    -0.182477
     24 H                     0.085849
     25 H                     0.084055
     26 H                     0.086582
     27 H                     0.078588
     28 H                     0.073951
     29 H                     0.078532
     30 H                     0.073678
     31 H                     0.083598
     32 O                    -0.208894
     33 C                    -0.126627
     34 C                     0.024692
     35 C                    -0.143961
     36 C                    -0.144057
     37 C                     0.025560
     38 O                    -0.187192
     39 H                     0.082845
     40 H                     0.086667
     41 H                     0.086993
     42 H                     0.092114
     43 H                     0.077783
     44 H                     0.072871
     45 H                     0.078159
     46 H                     0.073618
     47 H                     0.083297
     48 H                     0.093758
     49 H                     0.089439
     50 H                     0.089264
     51 H                     0.082683
     52 H                     0.086935
     53 H                     0.104295
     54 H                     0.090553
     55 H                     0.095538
     56 H                     0.088039
  ----------------------------------------
  Sum of atomic charges =    -0.000000

                    Cartesian Multipole Moments
 -----------------------------------------------------------------
    Charge (ESU x 10^10)
                -0.0000
    Dipole Moment (Debye)
         X      -0.2343      Y       1.3962      Z      -1.1907
       Tot       1.8499
    Quadrupole Moments (Debye-Ang)
        XX    -136.5766     XY      -2.8442     YY    -157.7450
        XZ      -4.5464     YZ      -7.2792     ZZ    -165.8742

 Total job time:  50.33s(wall), 2392.79s(cpu)
        *  Thank you very much for using Q-Chem.  Have a nice day.  *
