 Q-Chem 5.0, Q-Chem, Inc., Pleasanton, CA (2017)
 Q-Chem 5.0.1 for Intel X86 EM64T Linux

User input:
--------------------------------------------------------------
$molecule
0  1
O 4.1453908514 -2.258539761 -1.0265688711
C 4.7791508306 -1.4712183067 -0.2894130514
C 5.1251057541 0.0279152524 -0.6219406752
C 3.8411437514 0.9590567155 -0.6876192389
C 2.542795514 0.2326244284 -0.201411836
O 1.4267673854 0.7380879484 -0.9428745271
C 0.2215874963 -0.0852853499 -0.6678557005
C -0.9842866026 0.6289451084 -1.3707663969
O -2.249825432 0.2095571859 -0.7223802745
C -2.9568498917 1.3377049305 -0.1868598984
C -4.4942740647 1.0503878157 -0.0570439381
C -5.0629611564 -0.2719320606 -0.7142137241
C -4.0235943763 -1.4292018203 -0.955303316
O -3.8695993042 -2.0719938259 -2.0173330876
O 5.3107674741 -1.8249738894 0.9892357379
O -3.4453349984 -1.8119630489 0.3012889433
O -2.4089806917 2.4361773375 0.0558436703
C -2.4883898562 -2.9193946584 0.0907704329
C -5.0878457808 0.9563827408 1.422363168
C -6.5753403714 1.4794747971 1.3465202434
C -7.2572000443 0.3032951692 0.5520798227
C -6.0638014402 -0.7295744753 0.4368502642
O -5.2666419926 -0.490799874 1.663189552
H -4.9615711757 1.9211220972 -0.5553025745
H -5.5738534008 -0.0665821332 -1.6708732582
H -4.4573405833 1.4139744933 2.2091681343
H -6.9970892596 1.5767699583 2.3599094485
H -6.6570786118 2.450682341 0.8329212243
H -8.0957834199 -0.1357724033 1.1151893594
H -7.6245480765 0.6183748124 -0.438023866
H -6.3694653171 -1.7921514834 0.3771844482
O 2.4602407752 -0.6623713097 0.66869859
C 4.903727315 -3.2057889027 1.3348711882
C 5.9869182544 0.7743812205 0.4819643546
C 6.6362515944 2.0498200721 -0.1849861404
C 5.381780593 2.9900197837 -0.3240732831
C 4.2570378241 2.1000436035 0.3406330003
O 4.9714270698 1.3490314771 1.3959207747
H 5.6408711974 0.0359582793 -1.5996307989
H 3.664001854 1.3613326434 -1.7001625607
H 5.2612891555 -3.9395928263 0.583590834
H 6.6809625057 0.1172498355 1.0391898679
H 7.3946829398 2.4867719711 0.4839444882
H 7.1088694079 1.8210553135 -1.1534474385
H 5.5132675868 3.9292376318 0.2364834117
H 5.1471450551 3.2337913271 -1.3725948156
H 3.4041865521 2.6616672003 0.7691918103
H 3.800531591 -3.2889703753 1.4145661555
H 5.3644184535 -3.4230733211 2.3160034369
H -2.129957695 -3.2079617612 1.0959936646
H -1.6269598132 -2.5969884442 -0.5290680741
H -2.9671535872 -3.7915559635 -0.3998900667
H -0.8675577627 1.7295803043 -1.2620893983
H -1.0422677954 0.3535798336 -2.4443923008
H 0.0286734842 -0.1500120508 0.4258045022
H 0.3609792995 -1.1187119352 -1.0522950835
$end

$rem
JOBTYPE                   OPT
METHOD                    B3LYP
DFT_D                     d3_op
BASIS                     STO-3G
GEOM_OPT_MAX_CYCLES       100
GEOM_OPT_TOL_GRADIENT     300
GEOM_OPT_TOL_DISPLACEMENT 1200
GEOM_OPT_TOL_ENERGY       100
SYMMETRY                  False
THRESH                    12
SCF_CONVERGENCE           8
MAX_SUB_FILE_NUM          128
MEM_STATIC                400
MEM_TOTAL                 4000
$end
--------------------------------------------------------------

   16   -1510.2715140488      5.34E-09 Convergence criterion met
 Total energy in the final basis set = -1510.27151405
   15   -1510.2749648532      1.91E-09 Convergence criterion met
 Total energy in the final basis set = -1510.27496485
   14   -1510.2769418819      2.51E-09 Convergence criterion met
 Total energy in the final basis set = -1510.27694188
   14   -1510.2783528864      9.91E-09 Convergence criterion met
 Total energy in the final basis set = -1510.27835289
   13   -1510.2793432076      3.96E-09 Convergence criterion met
 Total energy in the final basis set = -1510.27934321
   13   -1510.2804089069      3.82E-09 Convergence criterion met
 Total energy in the final basis set = -1510.28040891
   13   -1510.2813040789      4.77E-09 Convergence criterion met
 Total energy in the final basis set = -1510.28130408
   13   -1510.2820708828      4.50E-09 Convergence criterion met
   13   -1510.2941963014      3.17E-09 Convergence criterion met
 Total energy in the final basis set = -1510.29419630
   13   -1510.2941717726      4.31E-09 Convergence criterion met
 Total energy in the final basis set = -1510.29417177
   13   -1510.2942890885      3.26E-09 Convergence criterion met
 Total energy in the final basis set = -1510.29428909
   12   -1510.2942953142      5.28E-09 Convergence criterion met
 Total energy in the final basis set = -1510.29429531
   11   -1510.2943086297      8.26E-09 Convergence criterion met
 Total energy in the final basis set = -1510.29430863
   11   -1510.2943153082      4.36E-09 Convergence criterion met
 Total energy in the final basis set = -1510.29431531

             Standard Nuclear Orientation (Angstroms)
    I     Atom           X                Y                Z
 ----------------------------------------------------------------
    1      O       3.4458400023    -1.9620754568     2.0875520397
    2      C       3.3201985515    -0.9891766754     1.3124212002
    3      C       4.3833607421    -0.4610599826     0.2919360735
    4      C       3.8001009842    -0.0651979632    -1.1331617081
    5      C       2.2389633771    -0.2338935251    -1.2296794661
    6      O       1.6149011026     1.0518413712    -1.2446082013
    7      C       0.1424770062     0.9031835327    -1.2367691269
    8      C      -0.4885676593     2.1623128473    -0.5543801925
    9      O      -1.9530899478     1.9409247048    -0.4433942433
   10      C      -2.2595004999     1.1548973737     0.7112336245
   11      C      -3.7899293709     0.8305280713     0.6842628702
   12      C      -4.2383998589    -0.0905286031    -0.5306531006
   13      C      -3.1076784604    -0.5738921386    -1.5058427490
   14      O      -3.0770089538    -0.3788793360    -2.7423942391
   15      O       2.1521297798    -0.1695918625     1.2284023280
   16      O      -2.1451440849    -1.3527192449    -0.7864773099
   17      O      -1.4368946868     0.8344410563     1.5973057114
   18      C      -1.2667356140    -2.0994623286    -1.7296724480
   19      C      -4.2120282162    -0.0636866404     1.9232909159
   20      C      -5.7800958008     0.0174513799     2.0838205540
   21      C      -6.2519774852    -0.8719920163     0.8734987385
   22      C      -4.8652576545    -1.3202802687     0.2627539135
   23      O      -3.9839768835    -1.4461828937     1.4444107712
   24      H      -4.3423280417     1.7878306166     0.6595809805
   25      H      -4.9946171157     0.4235489912    -1.1495301510
   26      H      -3.6193600157     0.1302847033     2.8383617437
   27      H      -6.0904584861    -0.4156268612     3.0479564007
   28      H      -6.1524950938     1.0525617790     2.0239429290
   29      H      -6.8220959840    -1.7502161746     1.2157931023
   30      H      -6.8649029415    -0.3146642083     0.1473755056
   31      H      -4.8866660329    -2.2692660488    -0.3072270921
   32      O       1.6286223810    -1.3233561912    -1.3470747326
   33      C       1.0709111358    -0.7109608077     2.0869933214
   34      C       5.0263888158     0.9269969779     0.7420352494
   35      C       6.3776967387     1.1138292033    -0.0531862920
   36      C       5.8350034282     1.4623699408    -1.4885232287
   37      C       4.2738776273     1.4431430636    -1.2413873422
   38      O       4.1315102797     1.9424509465     0.1465104959
   39      H       5.1601594840    -1.2402031454     0.1996744977
   40      H       4.2500417755    -0.6971649792    -1.9204364373
   41      H       1.3562823583    -0.6748833785     3.1574253934
   42      H       5.0990512723     1.0664628610     1.8381757908
   43      H       6.9601904623     1.9467441444     0.3717831205
   44      H       6.9978864227     0.2036077531    -0.0381674974
   45      H       6.1609204506     2.4632995609    -1.8134455807
   46      H       6.1417298807     0.7269357554    -2.2495479811
   47      H       3.6751785436     2.0604842317    -1.9374720742
   48      H       0.8408311954    -1.7615721564     1.8185761962
   49      H       0.1780312160    -0.0724896444     1.9085732714
   50      H      -0.1971128405    -1.8597444808    -1.5259579075
   51      H      -1.5266601007    -1.8178155105    -2.7689880012
   52      H      -1.4445183969    -3.1817042075    -1.5761403941
   53      H      -0.0301250108     2.3138498792     0.4459418949
   54      H      -0.3549956203     3.0711153275    -1.1735501660
   55      H      -0.1542221613     0.0065916489    -0.6579376428
   56      H      -0.2478357525     0.7920319966    -2.2720678751
 ----------------------------------------------------------------

   10   -1510.2943150730      9.70E-09 Convergence criterion met
 Total energy in the final basis set = -1510.29431507
 Final energy is   -1510.29431507303
 **  OPTIMIZATION CONVERGED  **

                    Orbital Energies (a.u.)
 --------------------------------------------------------------

 Alpha MOs
 -- Occupied --
-18.945 -18.938 -18.930 -18.925 -18.892 -18.890 -18.888 -18.875
-18.871 -18.871 -10.114 -10.107 -10.096 -10.095 -10.078 -10.070
-10.062 -10.061 -10.061 -10.059 -10.043 -10.041 -10.039 -10.039
-10.036 -10.034 -10.022 -10.021 -10.021 -10.020  -1.024  -1.016
 -1.005  -1.003  -0.972  -0.970  -0.950  -0.939  -0.931  -0.930
 -0.766  -0.763  -0.730  -0.723  -0.713  -0.707  -0.698  -0.649
 -0.648  -0.617  -0.599  -0.585  -0.546  -0.546  -0.539  -0.537
 -0.517  -0.511  -0.486  -0.481  -0.468  -0.467  -0.450  -0.438
 -0.434  -0.431  -0.429  -0.414  -0.410  -0.408  -0.402  -0.397
 -0.392  -0.384  -0.377  -0.366  -0.361  -0.358  -0.355  -0.346
 -0.342  -0.338  -0.334  -0.332  -0.329  -0.325  -0.320  -0.309
 -0.308  -0.307  -0.305  -0.303  -0.297  -0.292  -0.288  -0.276
 -0.274  -0.260  -0.253  -0.242  -0.240  -0.236  -0.234  -0.190
 -0.178  -0.171  -0.170  -0.168  -0.156  -0.153  -0.146  -0.145
 -0.143

          Ground-State Mulliken Net Atomic Charges

     Atom                 Charge (a.u.)
  ----------------------------------------
      1 O                    -0.211061
      2 C                     0.208244
      3 C                    -0.079947
      4 C                    -0.077833
      5 C                     0.224550
      6 O                    -0.166413
      7 C                    -0.053340
      8 C                    -0.048919
      9 O                    -0.169660
     10 C                     0.220237
     11 C                    -0.078053
     12 C                    -0.078055
     13 C                     0.204917
     14 O                    -0.216617
     15 O                    -0.171528
     16 O                    -0.174408
     17 O                    -0.211319
     18 C                    -0.154601
     19 C                     0.025004
     20 C                    -0.143901
     21 C                    -0.144229
     22 C                     0.026759
     23 O                    -0.184482
     24 H                     0.087037
     25 H                     0.085987
     26 H                     0.089547
     27 H                     0.078876
     28 H                     0.073263
     29 H                     0.078596
     30 H                     0.074115
     31 H                     0.083693
     32 O                    -0.224329
     33 C                    -0.143831
     34 C                     0.025949
     35 C                    -0.143420
     36 C                    -0.144673
     37 C                     0.025530
     38 O                    -0.186192
     39 H                     0.085380
     40 H                     0.084640
     41 H                     0.083280
     42 H                     0.083579
     43 H                     0.077998
     44 H                     0.074433
     45 H                     0.077694
     46 H                     0.073179
     47 H                     0.089163
     48 H                     0.086541
     49 H                     0.113801
     50 H                     0.109891
     51 H                     0.091647
     52 H                     0.079550
     53 H                     0.101667
     54 H                     0.093723
     55 H                     0.101533
     56 H                     0.086807
  ----------------------------------------
  Sum of atomic charges =    -0.000000

                    Cartesian Multipole Moments
 -----------------------------------------------------------------
    Charge (ESU x 10^10)
                 0.0000
    Dipole Moment (Debye)
         X      -0.5857      Y       1.7851      Z      -0.8129
       Tot       2.0471
    Quadrupole Moments (Debye-Ang)
        XX    -135.1779     XY       0.5892     YY    -164.1425
        XZ     -10.7316     YZ       4.0342     ZZ    -164.1077

 Total job time:  206.65s(wall), 9856.27s(cpu)
        *  Thank you very much for using Q-Chem.  Have a nice day.  *
