 Q-Chem 5.0, Q-Chem, Inc., Pleasanton, CA (2017)
 Q-Chem 5.0.1 for Intel X86 EM64T Linux

User input:
--------------------------------------------------------------
$molecule
0  1
O -3.94934 -3.66094 2.70899
C -3.26408 -4.56952 2.26188
C -3.36658 -6.02376 2.66595
C -4.1266 -6.96481 1.71692
C -4.54593 -6.38431 0.38453
O -5.43537 -7.22123 -0.22695
C -6.08941 -6.62359 -1.35137
C -6.85974 -7.68145 -2.13473
O -7.06567 -7.23722 -3.48496
C -6.09047 -6.44334 -3.99277
C -6.36458 -6.01019 -5.4133
C -7.8428 -5.74777 -5.73621
C -8.76501 -5.60624 -4.54198
O -9.92124 -5.99976 -4.48874
O -2.30267 -4.26088 1.34738
O -8.33419 -4.79344 -3.53598
O -4.90142 -6.67358 -3.78507
C -9.07371 -4.47383 -2.41647
C -5.73576 -4.65231 -5.78176
C -5.56702 -4.56213 -7.29781
C -7.01165 -4.42169 -7.73444
C -7.70473 -4.34689 -6.36893
O -6.75567 -3.71729 -5.54175
H -5.94898 -6.80452 -6.07572
H -8.29585 -6.4762 -6.44451
H -4.76607 -4.4609 -5.27271
H -5.03708 -3.60613 -7.51142
H -5.00934 -5.40187 -7.76549
H -7.12008 -3.45881 -8.28144
H -7.40674 -5.25792 -8.351
H -8.68655 -3.83087 -6.45961
O -4.31941 -5.24238 0.00458
C -2.05088 -2.98801 0.87959
C -1.99657 -6.72882 2.70892
C -2.0662 -7.96249 3.60936
C -2.87615 -8.90236 2.74015
C -3.05393 -8.04149 1.48635
O -1.86385 -7.29177 1.42541
H -3.82013 -6.03057 3.68301
H -5.04629 -7.35907 2.20639
H -1.75583 -2.32321 1.71933
H -1.17359 -6.05803 3.04034
H -1.0342 -8.37014 3.70277
H -2.48134 -7.7743 4.62284
H -2.24792 -9.78957 2.50189
H -3.8472 -9.23083 3.16986
H -3.27458 -8.68284 0.60458
H -2.9531 -2.57985 0.37587
H -1.21969 -3.0282 0.14618
H -8.47623 -3.80261 -1.76621
H -9.32293 -5.39513 -1.8478
H -10.00739 -3.94897 -2.71105
H -6.20206 -8.57532 -2.20913
H -7.80182 -7.99717 -1.63938
H -5.34134 -6.00005 -1.83923
H -6.8221 -5.86091 -1.00817
$end

$opt
CONSTRAINT
tors           1           2           3           4    +101.050
tors           3           4           5           6    -167.480
tors           4           5           6           7    +167.780
tors           5           6           7           8    +169.395
tors           6           7           8           9    -157.541
tors           7           8           9          10     +31.540
tors           8           9          10          11    -180.000
tors           9          10          11          12     +35.768
tors          11          12          13          14    -144.030
ENDCONSTRAINT
$end

$rem
JOBTYPE                   OPT
METHOD                    B3LYP
DFT_D                     d3_op
BASIS                     STO-3G
GEOM_OPT_MAX_CYCLES       100
GEOM_OPT_TOL_GRADIENT     300
GEOM_OPT_TOL_DISPLACEMENT 1200
GEOM_OPT_TOL_ENERGY       100
SYMMETRY                  False
THRESH                    12
SCF_CONVERGENCE           8
MAX_SUB_FILE_NUM          128
MEM_STATIC                400
MEM_TOTAL                 4000
$end
--------------------------------------------------------------

   15   -1510.1167923117      8.09E-09 Convergence criterion met
 Total energy in the final basis set = -1510.11679231
   14   -1510.1910404578      9.74E-09 Convergence criterion met
 Total energy in the final basis set = -1510.19104046
   14   -1510.2319443930      8.50E-09 Convergence criterion met
 Total energy in the final basis set = -1510.23194439
   15   -1510.2552371498      1.97E-09 Convergence criterion met
 Total energy in the final basis set = -1510.25523715
   14   -1510.2663081554      4.33E-09 Convergence criterion met
 Total energy in the final basis set = -1510.26630816
   13   -1510.2718197198      8.12E-09 Convergence criterion met
 Total energy in the final basis set = -1510.27181972
   13   -1510.2747292759      4.89E-09 Convergence criterion met
 Total energy in the final basis set = -1510.27472928
   13   -1510.2758871761      3.20E-09 Convergence criterion met
   11   -1510.2766143510      5.42E-09 Convergence criterion met
 Total energy in the final basis set = -1510.27661435
   11   -1510.2766320497      4.45E-09 Convergence criterion met
 Total energy in the final basis set = -1510.27663205
    9   -1510.2766507237      9.59E-09 Convergence criterion met
 Total energy in the final basis set = -1510.27665072
    9   -1510.2766569077      5.49E-09 Convergence criterion met
 Total energy in the final basis set = -1510.27665691
    9   -1510.2766605210      5.64E-09 Convergence criterion met
 Total energy in the final basis set = -1510.27666052
    9   -1510.2766546189      3.57E-09 Convergence criterion met
 Total energy in the final basis set = -1510.27665462

             Standard Nuclear Orientation (Angstroms)
    I     Atom           X                Y                Z
 ----------------------------------------------------------------
    1      O      -4.2308701350    -1.8070985611     2.3505893724
    2      C      -4.4658342992    -1.4124379326     1.1872517793
    3      C      -4.9728485941     0.0226455339     0.7789934728
    4      C      -3.8384521340     0.9789450058     0.2219783688
    5      C      -2.4165358749     0.3249950646     0.2406921205
    6      O      -1.4410410560     1.3440302744     0.0042931889
    7      C      -0.0848782266     0.8172368069     0.3067642018
    8      C       0.9232465449     1.8926237975    -0.2386508002
    9      O       2.3083059702     1.4433542101    -0.5458696301
   10      C       2.4775758258     0.0965737398    -0.9965935677
   11      C       4.0136999579    -0.1163291757    -1.2460502546
   12      C       4.9687962208     0.6348329363    -0.2348429215
   13      C       4.2488439131     1.1265213789     1.0700482301
   14      O       4.4702552346     2.1778528684     1.7080603405
   15      O      -4.4667610260    -2.2580401688     0.0303181120
   16      O       3.3666491792     0.0860712169     1.5212747881
   17      O       1.5829498535    -0.7503173146    -1.2204246390
   18      C       2.7169297096     0.4875362823     2.7875861614
   19      C       4.4976191922    -1.6204179633    -1.1012414746
   20      C       5.8001702761    -1.7762492078    -1.9768455729
   21      C       6.8257314390    -0.9366423436    -1.1263134715
   22      C       5.9518086393    -0.5626449281     0.1388082464
   23      O       5.0208772683    -1.7051983945     0.2818442432
   24      H       4.2122603830     0.2401088903    -2.2748509891
   25      H       5.4918459949     1.4900207234    -0.6958065679
   26      H       3.7016603602    -2.3718694093    -1.2700530231
   27      H       6.0978839713    -2.8354355350    -2.0355075275
   28      H       5.6702482845    -1.3861075621    -2.9989844006
   29      H       7.6975876467    -1.5399933045    -0.8281444080
   30      H       7.1823889209    -0.0405774852    -1.6590816676
   31      H       6.5241055737    -0.4091156635     1.0744928101
   32      O      -2.1342013319    -0.8669688609     0.4979089592
   33      C      -3.9348541245    -3.5908928648     0.3872409599
   34      C      -5.9575946215    -0.0170714219    -0.4659595816
   35      C      -6.7064694187     1.3719988008    -0.5600062496
   36      C      -5.5689477120     2.2945516512    -1.1365976990
   37      C      -4.3753733754     1.2651614020    -1.2507789454
   38      O      -5.0415616333     0.0020979429    -1.6305305490
   39      H      -5.4517786988     0.4677327046     1.6691538775
   40      H      -3.7817382344     1.9187162094     0.7996926376
   41      H      -4.5181617023    -4.0620899982     1.2049505208
   42      H      -6.6107404852    -0.9095784933    -0.5053397757
   43      H      -7.5610451364     1.3043094379    -1.2518151699
   44      H      -7.0731117020     1.7119159658     0.4218016220
   45      H      -5.8327731873     2.6891318454    -2.1308403738
   46      H      -5.3249777346     3.1390780165    -0.4726910718
   47      H      -3.5884076964     1.5309700983    -1.9831599595
   48      H      -2.8731348161    -3.5246756009     0.7015548004
   49      H      -4.0125836383    -4.2063772398    -0.5278405011
   50      H       2.0525347643    -0.3501401365     3.0689970497
   51      H       2.1177498713     1.4131328106     2.6657983982
   52      H       3.4604821600     0.6570917474     3.5929074301
   53      H       0.4817331424     2.3174655906    -1.1691341748
   54      H       1.0520408034     2.7232713849     0.4853491006
   55      H       0.1193501244    -0.1380761487    -0.2274668717
   56      H       0.0380304081     0.6614579733     1.3987567992
 ----------------------------------------------------------------

    8   -1510.2766552235      9.02E-09 Convergence criterion met
 Total energy in the final basis set = -1510.27665522
 Final energy is   -1510.27665522351
 **  OPTIMIZATION CONVERGED  **

                    Orbital Energies (a.u.)
 --------------------------------------------------------------

 Alpha MOs
 -- Occupied --
-18.947 -18.936 -18.930 -18.916 -18.890 -18.890 -18.886 -18.884
-18.870 -18.853 -10.115 -10.104 -10.098 -10.085 -10.082 -10.064
-10.063 -10.062 -10.061 -10.060 -10.056 -10.048 -10.041 -10.039
-10.038 -10.030 -10.022 -10.021 -10.020 -10.018  -1.022  -1.015
 -1.006  -0.993  -0.972  -0.968  -0.951  -0.940  -0.933  -0.918
 -0.767  -0.761  -0.731  -0.722  -0.714  -0.705  -0.697  -0.660
 -0.647  -0.620  -0.598  -0.586  -0.547  -0.544  -0.539  -0.535
 -0.516  -0.510  -0.488  -0.475  -0.466  -0.457  -0.454  -0.438
 -0.435  -0.431  -0.429  -0.413  -0.411  -0.404  -0.399  -0.395
 -0.391  -0.388  -0.381  -0.367  -0.362  -0.358  -0.355  -0.343
 -0.342  -0.337  -0.332  -0.332  -0.329  -0.325  -0.323  -0.314
 -0.311  -0.307  -0.303  -0.301  -0.294  -0.294  -0.280  -0.279
 -0.272  -0.259  -0.252  -0.250  -0.238  -0.235  -0.232  -0.188
 -0.183  -0.173  -0.160  -0.158  -0.155  -0.148  -0.145  -0.142
 -0.135

          Ground-State Mulliken Net Atomic Charges

     Atom                 Charge (a.u.)
  ----------------------------------------
      1 O                    -0.223412
      2 C                     0.213317
      3 C                    -0.081397
      4 C                    -0.079160
      5 C                     0.213602
      6 O                    -0.176466
      7 C                    -0.066681
      8 C                    -0.048952
      9 O                    -0.171068
     10 C                     0.224540
     11 C                    -0.077711
     12 C                    -0.077544
     13 C                     0.214611
     14 O                    -0.217808
     15 O                    -0.168593
     16 O                    -0.170402
     17 O                    -0.208638
     18 C                    -0.128268
     19 C                     0.025189
     20 C                    -0.142463
     21 C                    -0.144814
     22 C                     0.025329
     23 O                    -0.185618
     24 H                     0.084173
     25 H                     0.086316
     26 H                     0.091508
     27 H                     0.078887
     28 H                     0.073342
     29 H                     0.078656
     30 H                     0.073871
     31 H                     0.082825
     32 O                    -0.202711
     33 C                    -0.127046
     34 C                     0.026994
     35 C                    -0.144743
     36 C                    -0.143438
     37 C                     0.025930
     38 O                    -0.185534
     39 H                     0.082269
     40 H                     0.085271
     41 H                     0.085029
     42 H                     0.086914
     43 H                     0.077456
     44 H                     0.073174
     45 H                     0.077547
     46 H                     0.072959
     47 H                     0.083689
     48 H                     0.092646
     49 H                     0.087079
     50 H                     0.091972
     51 H                     0.083248
     52 H                     0.089409
     53 H                     0.089853
     54 H                     0.091747
     55 H                     0.121790
     56 H                     0.081328
  ----------------------------------------
  Sum of atomic charges =    -0.000000

                    Cartesian Multipole Moments
 -----------------------------------------------------------------
    Charge (ESU x 10^10)
                 0.0000
    Dipole Moment (Debye)
         X       0.7615      Y       2.1591      Z      -1.2536
       Tot       2.6102
    Quadrupole Moments (Debye-Ang)
        XX    -145.3204     XY     -10.1074     YY    -160.7518
        XZ      -8.0516     YZ       0.6105     ZZ    -161.2800

 Total job time:  55.00s(wall), 2609.18s(cpu)
        *  Thank you very much for using Q-Chem.  Have a nice day.  *
