 Q-Chem 5.0, Q-Chem, Inc., Pleasanton, CA (2017)
 Q-Chem 5.0.1 for Intel X86 EM64T Linux

User input:
--------------------------------------------------------------
$molecule
0  1
O -4.230870135 -1.8070985611 2.3505893724
C -4.4658342992 -1.4124379326 1.1872517793
C -4.9728485941 0.0226455339 0.7789934728
C -3.838452134 0.9789450058 0.2219783688
C -2.4165358749 0.3249950646 0.2406921205
O -1.441041056 1.3440302744 0.0042931889
C -0.0848782266 0.8172368069 0.3067642018
C 0.9232465449 1.8926237975 -0.2386508002
O 2.3083059702 1.4433542101 -0.5458696301
C 2.4775758258 0.0965737398 -0.9965935677
C 4.0136999579 -0.1163291757 -1.2460502546
C 4.9687962208 0.6348329363 -0.2348429215
C 4.2488439131 1.1265213789 1.0700482301
O 4.4702552346 2.1778528684 1.7080603405
O -4.466761026 -2.2580401688 0.030318112
O 3.3666491792 0.0860712169 1.5212747881
O 1.5829498535 -0.7503173146 -1.220424639
C 2.7169297096 0.4875362823 2.7875861614
C 4.4976191922 -1.6204179633 -1.1012414746
C 5.8001702761 -1.7762492078 -1.9768455729
C 6.825731439 -0.9366423436 -1.1263134715
C 5.9518086393 -0.5626449281 0.1388082464
O 5.0208772683 -1.7051983945 0.2818442432
H 4.212260383 0.2401088903 -2.2748509891
H 5.4918459949 1.4900207234 -0.6958065679
H 3.7016603602 -2.3718694093 -1.2700530231
H 6.0978839713 -2.835435535 -2.0355075275
H 5.6702482845 -1.3861075621 -2.9989844006
H 7.6975876467 -1.5399933045 -0.828144408
H 7.1823889209 -0.0405774852 -1.6590816676
H 6.5241055737 -0.4091156635 1.0744928101
O -2.1342013319 -0.8669688609 0.4979089592
C -3.9348541245 -3.5908928648 0.3872409599
C -5.9575946215 -0.0170714219 -0.4659595816
C -6.7064694187 1.3719988008 -0.5600062496
C -5.568947712 2.2945516512 -1.136597699
C -4.3753733754 1.265161402 -1.2507789454
O -5.0415616333 0.0020979429 -1.630530549
H -5.4517786988 0.4677327046 1.6691538775
H -3.7817382344 1.9187162094 0.7996926376
H -4.5181617023 -4.0620899982 1.2049505208
H -6.6107404852 -0.9095784933 -0.5053397757
H -7.5610451364 1.3043094379 -1.2518151699
H -7.073111702 1.7119159658 0.421801622
H -5.8327731873 2.6891318454 -2.1308403738
H -5.3249777346 3.1390780165 -0.4726910718
H -3.5884076964 1.5309700983 -1.9831599595
H -2.8731348161 -3.5246756009 0.7015548004
H -4.0125836383 -4.2063772398 -0.5278405011
H 2.0525347643 -0.3501401365 3.0689970497
H 2.1177498713 1.4131328106 2.6657983982
H 3.46048216 0.6570917474 3.5929074301
H 0.4817331424 2.3174655906 -1.1691341748
H 1.0520408034 2.7232713849 0.4853491006
H 0.1193501244 -0.1380761487 -0.2274668717
H 0.0380304081 0.6614579733 1.3987567992
$end

$rem
JOBTYPE                   OPT
METHOD                    B3LYP
DFT_D                     d3_op
BASIS                     STO-3G
GEOM_OPT_MAX_CYCLES       100
GEOM_OPT_TOL_GRADIENT     300
GEOM_OPT_TOL_DISPLACEMENT 1200
GEOM_OPT_TOL_ENERGY       100
SYMMETRY                  False
THRESH                    12
SCF_CONVERGENCE           8
MAX_SUB_FILE_NUM          128
MEM_STATIC                400
MEM_TOTAL                 4000
$end
--------------------------------------------------------------

   16   -1510.2766956318      4.48E-09 Convergence criterion met
 Total energy in the final basis set = -1510.27669563
   14   -1510.2786116773      5.28E-09 Convergence criterion met
 Total energy in the final basis set = -1510.27861168
   13   -1510.2802078256      7.42E-09 Convergence criterion met
 Total energy in the final basis set = -1510.28020783
   14   -1510.2807496652      2.34E-09 Convergence criterion met
 Total energy in the final basis set = -1510.28074967
   14   -1510.2824114570      3.19E-09 Convergence criterion met
 Total energy in the final basis set = -1510.28241146
   14   -1510.2843681334      4.81E-09 Convergence criterion met
 Total energy in the final basis set = -1510.28436813
   14   -1510.2853639836      2.97E-09 Convergence criterion met
 Total energy in the final basis set = -1510.28536398
   13   -1510.2857802861      9.50E-09 Convergence criterion met
   11   -1510.2890263757      8.63E-09 Convergence criterion met
 Total energy in the final basis set = -1510.28902638
   12   -1510.2890403758      9.27E-09 Convergence criterion met
 Total energy in the final basis set = -1510.28904038
   11   -1510.2890626862      4.82E-09 Convergence criterion met
 Total energy in the final basis set = -1510.28906269
   11   -1510.2890541045      7.21E-09 Convergence criterion met
 Total energy in the final basis set = -1510.28905410
   10   -1510.2890554580      8.36E-09 Convergence criterion met
 Total energy in the final basis set = -1510.28905546
   10   -1510.2890523298      4.17E-09 Convergence criterion met
 Total energy in the final basis set = -1510.28905233

             Standard Nuclear Orientation (Angstroms)
    I     Atom           X                Y                Z
 ----------------------------------------------------------------
    1      O      -3.5112513323    -1.0055917121     2.9562391741
    2      C      -3.7899006885    -0.9944927391     1.7373173833
    3      C      -4.5661126434     0.1427508581     0.9702170797
    4      C      -3.6320396449     1.1815396938     0.2208804217
    5      C      -2.1100907991     0.8541564775     0.3603416237
    6      O      -1.3507069596     1.8651800362    -0.2977075356
    7      C       0.0959651363     1.5629661539    -0.1533497653
    8      C       0.9143352993     2.4837618521    -1.1175359750
    9      O       2.3581446208     2.2054190473    -0.9157322997
   10      C       2.7204076647     0.9694137250    -1.5542163775
   11      C       4.2080038162     0.6544535578    -1.1853866385
   12      C       4.4281396574     0.2866679208     0.3455358140
   13      C       3.1541727243     0.3139238423     1.2622214771
   14      O       2.9744987500     1.0629028967     2.2496436495
   15      O      -3.5593732802    -2.0895506134     0.8420507917
   16      O       2.2434810990    -0.7100331970     0.8499141328
   17      O       1.9553560191     0.3026302152    -2.2820754886
   18      C       1.1794041662    -0.9099183368     1.8707319770
   19      C       4.7004460700    -0.6739935120    -1.8944808090
   20      C       6.2768069854    -0.7245348311    -1.8231928210
   21      C       6.4997712597    -1.0911320427    -0.3086026351
   22      C       5.0084175319    -1.1892446806     0.2041974890
   23      O       4.2746833899    -1.7384384991    -0.9568783131
   24      H       4.8264500262     1.5279001761    -1.4616665439
   25      H       5.1631665047     0.9708865544     0.8045263735
   26      H       4.2547502185    -0.8414106173    -2.8941003317
   27      H       6.6667446766    -1.5095237456    -2.4905133486
   28      H       6.7376450563     0.2366849491    -2.1016249788
   29      H       7.0093848741    -2.0615760785    -0.1983171426
   30      H       7.0759545246    -0.3252921357     0.2348076283
   31      H       4.8566320540    -1.8275857233     1.0959434243
   32      O      -1.6058462420    -0.1331263880     0.9480895936
   33      C      -2.7669843529    -3.1346281321     1.5257047583
   34      C      -5.4296214940    -0.4041989832    -0.2449460698
   35      C      -6.4737442300     0.7090390943    -0.6536116976
   36      C      -5.5449976644     1.7402730324    -1.3960504248
   37      C      -4.1421576256     1.0225253876    -1.2801088242
   38      O      -4.4736824878    -0.4144416989    -1.3769981360
   39      H      -5.1953800538     0.6629759019     1.7139459627
   40      H      -3.7950574668     2.2129921411     0.5826889323
   41      H      -3.2588267704    -3.4799833562     2.4580395699
   42      H      -5.8515446700    -1.4151924791    -0.0884965255
   43      H      -7.2358221560     0.2923876257    -1.3312722636
   44      H      -6.9802512026     1.1446135078     0.2224680324
   45      H      -5.8306792871     1.8549544811    -2.4538297436
   46      H      -5.5422360164     2.7337470283    -0.9200971430
   47      H      -3.3958897529     1.3083970470    -2.0467965817
   48      H      -1.7519312568    -2.7642174404     1.7773473668
   49      H      -2.6873756047    -3.9753056367     0.8121902923
   50      H       0.1770472339    -0.6881468460     1.4392996200
   51      H       1.3668034658    -0.2412853828     2.7340231177
   52      H       1.2186537463    -1.9678551187     2.1947581485
   53      H       0.6106600694     2.2965672241    -2.1696003933
   54      H       0.7671299422     3.5533368960    -0.8685689681
   55      H       0.3000905243     0.5036567528    -0.4132303193
   56      H       0.4246500088     1.7361398250     0.8941817552
 ----------------------------------------------------------------

    9   -1510.2890516353      4.42E-09 Convergence criterion met
 Total energy in the final basis set = -1510.28905164
 Final energy is   -1510.28905163535
 **  OPTIMIZATION CONVERGED  **

                    Orbital Energies (a.u.)
 --------------------------------------------------------------

 Alpha MOs
 -- Occupied --
-18.951 -18.939 -18.925 -18.919 -18.897 -18.889 -18.887 -18.883
-18.870 -18.856 -10.116 -10.104 -10.095 -10.089 -10.080 -10.076
-10.063 -10.060 -10.059 -10.058 -10.052 -10.044 -10.040 -10.037
-10.036 -10.034 -10.022 -10.020 -10.020 -10.019  -1.029  -1.018
 -1.004  -0.997  -0.971  -0.969  -0.952  -0.943  -0.929  -0.922
 -0.766  -0.763  -0.731  -0.723  -0.714  -0.706  -0.699  -0.650
 -0.649  -0.620  -0.598  -0.585  -0.547  -0.544  -0.538  -0.537
 -0.517  -0.510  -0.486  -0.479  -0.467  -0.463  -0.450  -0.445
 -0.435  -0.433  -0.428  -0.414  -0.408  -0.406  -0.405  -0.397
 -0.392  -0.383  -0.375  -0.367  -0.365  -0.357  -0.350  -0.344
 -0.341  -0.339  -0.335  -0.332  -0.331  -0.328  -0.324  -0.315
 -0.308  -0.307  -0.305  -0.301  -0.298  -0.287  -0.282  -0.276
 -0.273  -0.266  -0.256  -0.242  -0.239  -0.234  -0.233  -0.193
 -0.183  -0.174  -0.162  -0.161  -0.160  -0.151  -0.146  -0.143
 -0.138

          Ground-State Mulliken Net Atomic Charges

     Atom                 Charge (a.u.)
  ----------------------------------------
      1 O                    -0.222273
      2 C                     0.213625
      3 C                    -0.081518
      4 C                    -0.077923
      5 C                     0.221629
      6 O                    -0.168730
      7 C                    -0.054516
      8 C                    -0.048211
      9 O                    -0.172065
     10 C                     0.210979
     11 C                    -0.078202
     12 C                    -0.078237
     13 C                     0.204097
     14 O                    -0.217595
     15 O                    -0.169489
     16 O                    -0.172296
     17 O                    -0.206921
     18 C                    -0.152811
     19 C                     0.025167
     20 C                    -0.144169
     21 C                    -0.144107
     22 C                     0.026918
     23 O                    -0.184036
     24 H                     0.085982
     25 H                     0.085395
     26 H                     0.089288
     27 H                     0.078354
     28 H                     0.072886
     29 H                     0.078159
     30 H                     0.073631
     31 H                     0.083672
     32 O                    -0.205467
     33 C                    -0.127243
     34 C                     0.026756
     35 C                    -0.144440
     36 C                    -0.143549
     37 C                     0.025820
     38 O                    -0.185871
     39 H                     0.083166
     40 H                     0.087772
     41 H                     0.086331
     42 H                     0.088241
     43 H                     0.078157
     44 H                     0.073684
     45 H                     0.078617
     46 H                     0.073550
     47 H                     0.086018
     48 H                     0.090266
     49 H                     0.088337
     50 H                     0.106383
     51 H                     0.092646
     52 H                     0.079875
     53 H                     0.095728
     54 H                     0.093394
     55 H                     0.103290
     56 H                     0.091853
  ----------------------------------------
  Sum of atomic charges =    -0.000000

                    Cartesian Multipole Moments
 -----------------------------------------------------------------
    Charge (ESU x 10^10)
                 0.0000
    Dipole Moment (Debye)
         X       0.3049      Y       2.0623      Z      -0.9854
       Tot       2.3058
    Quadrupole Moments (Debye-Ang)
        XX    -134.8320     XY      -5.1571     YY    -156.2735
        XZ      -1.9358     YZ      -7.4376     ZZ    -168.7518

 Total job time:  117.02s(wall), 5578.54s(cpu)
        *  Thank you very much for using Q-Chem.  Have a nice day.  *
