 Q-Chem 5.0, Q-Chem, Inc., Pleasanton, CA (2017)
 Q-Chem 5.0.1 for Intel X86 EM64T Linux

User input:
--------------------------------------------------------------
$molecule
0  1
O -4.9304787358 -2.3458842781 1.5207489408
C -4.679590053 -1.5469583075 0.5908791139
C -5.0019739986 -0.0073960902 0.5816930992
C -3.7558099971 0.9471427105 0.3618940622
C -2.3587893378 0.269359951 0.5704594141
O -1.468351451 1.267045202 1.0977240909
C -0.2657824255 0.6200461142 1.6814186639
C 0.9440394186 1.5997915211 1.5286138459
O 2.1778839652 0.7917557208 1.6755111786
C 3.1619840051 1.2160270602 0.7172521298
C 4.4380377139 0.3271697953 0.922686251
C 4.4913042947 -1.025945897 0.0895609824
C 3.2653201472 -1.4191429582 -0.8139186192
O 3.1905063348 -2.4547896869 -1.5112701002
O -4.2301831989 -1.9443442886 -0.7073211425
O 2.2308766646 -0.438305331 -0.7527385769
O 3.0267894994 2.1943849688 -0.0476486317
C 1.0818638686 -0.8272810071 -1.6017552156
C 5.7197680564 1.0718121191 0.354093293
C 7.0113147919 0.3852820064 0.9490703632
C 7.0637206833 -0.9431429856 0.1080460645
C 5.7867126862 -0.775154596 -0.8055873625
O 5.738381082 0.6781320617 -1.0742600029
H 4.5268148106 0.1100499714 2.0019437997
H 4.6628773165 -1.8814469191 0.7685451928
H 5.6770858079 2.1742501803 0.4461788167
H 7.898824375 1.0129161089 0.7700917127
H 6.9217249947 0.2006698583 2.0315007728
H 7.9733174898 -0.994889142 -0.5112439469
H 7.0099450765 -1.848493625 0.7333369506
H 5.8002465809 -1.3524967682 -1.7504946547
O -2.0342592891 -0.927322321 0.4082312317
C -3.912511311 -3.3893844429 -0.7106068237
C -5.8523354773 0.3501512912 -0.7150507865
C -6.3977702991 1.8298411235 -0.5918333664
C -5.1120636844 2.6643298733 -0.9507544851
C -4.0447845608 1.5109050699 -1.102708939
O -4.8139832004 0.4389652196 -1.7682678224
H -5.5333359602 0.232028841 1.5192329603
H -3.7917806518 1.7830393079 1.0831833486
H -4.7698167992 -4.0005971281 -0.3616654673
H -6.6112193585 -0.4089650481 -0.98639743
H -7.2109594861 2.0043184201 -1.3137198707
H -6.7726607846 2.0457619637 0.4214867824
H -5.2336373925 3.1971637865 -1.9076604012
H -4.8403680544 3.3935620924 -0.1709581006
H -3.1432098296 1.7706925482 -1.6906221338
H -3.035106862 -3.6068989064 -0.067642354
H -3.6728833948 -3.6453995399 -1.7589923814
H 0.3753021184 0.0220725769 -1.5628699673
H 0.5829699791 -1.73944048 -1.214655118
H 1.3931366932 -1.0083456104 -2.6503602431
H 0.9370384038 2.0901986314 0.5309977808
H 0.915929922 2.3909837906 2.3085617709
H -0.0573737826 -0.3325286672 1.1483966676
H -0.4558070582 0.3880098354 2.7516400168
$end

$rem
JOBTYPE                   OPT
METHOD                    B3LYP
DFT_D                     d3_op
BASIS                     STO-3G
GEOM_OPT_MAX_CYCLES       100
GEOM_OPT_TOL_GRADIENT     300
GEOM_OPT_TOL_DISPLACEMENT 1200
GEOM_OPT_TOL_ENERGY       100
SYMMETRY                  False
THRESH                    12
SCF_CONVERGENCE           8
MAX_SUB_FILE_NUM          128
MEM_STATIC                400
MEM_TOTAL                 4000
$end
--------------------------------------------------------------

   16   -1510.2760386366      5.34E-09 Convergence criterion met
 Total energy in the final basis set = -1510.27603864
   14   -1510.2782766512      2.68E-09 Convergence criterion met
 Total energy in the final basis set = -1510.27827665
   13   -1510.2797058399      9.56E-09 Convergence criterion met
 Total energy in the final basis set = -1510.27970584
   13   -1510.2816659349      8.79E-09 Convergence criterion met
 Total energy in the final basis set = -1510.28166593
   14   -1510.2827395406      3.17E-09 Convergence criterion met
 Total energy in the final basis set = -1510.28273954
   13   -1510.2837366877      7.07E-09 Convergence criterion met
 Total energy in the final basis set = -1510.28373669
   14   -1510.2853721583      1.93E-09 Convergence criterion met
 Total energy in the final basis set = -1510.28537216
   13   -1510.2867631776      9.33E-09 Convergence criterion met
   12   -1510.2975786413      4.83E-09 Convergence criterion met
 Total energy in the final basis set = -1510.29757864
   12   -1510.2975984427      3.72E-09 Convergence criterion met
 Total energy in the final basis set = -1510.29759844
   11   -1510.2976130204      5.35E-09 Convergence criterion met
 Total energy in the final basis set = -1510.29761302
   10   -1510.2976160168      7.47E-09 Convergence criterion met
 Total energy in the final basis set = -1510.29761602
   11   -1510.2976195494      2.09E-09 Convergence criterion met
 Total energy in the final basis set = -1510.29761955
    9   -1510.2976209511      5.13E-09 Convergence criterion met
 Total energy in the final basis set = -1510.29762095

             Standard Nuclear Orientation (Angstroms)
    I     Atom           X                Y                Z
 ----------------------------------------------------------------
    1      O      -3.4223866960    -2.2955035524     1.6145979419
    2      C      -3.3139593641    -1.6452896046     0.5504059910
    3      C      -4.1375725843    -0.3496159991     0.1874473228
    4      C      -3.5259143134     0.9884653640     0.7799655018
    5      C      -2.1267270229     0.7780531754     1.4380696421
    6      O      -1.7655792546     1.9457291047     2.1764832729
    7      C      -0.3650870229     1.8215535389     2.6538636043
    8      C       0.6594181834     2.2053034213     1.5187483992
    9      O       1.7537343267     1.2067953910     1.5694617111
   10      C       2.7195133829     1.4922141525     0.5435397878
   11      C       3.8501376857     0.4060146505     0.6218863169
   12      C       3.3561528253    -1.0788073151     0.3674136566
   13      C       1.8360413899    -1.2201323045     0.0200272472
   14      O       1.0680385736    -2.1161730591     0.4419122076
   15      O      -2.5097620172    -2.0278036615    -0.5650969073
   16      O       1.4847092100    -0.2004677372    -0.9086477918
   17      O       2.6676068611     2.4864730785    -0.2097256423
   18      C       0.0567602593    -0.3011180174    -1.3007622295
   19      C       4.8990389103     0.5883192644    -0.5520669920
   20      C       6.2104243695    -0.2049018180    -0.1752647163
   21      C       5.7387432464    -1.6900436496    -0.3976815427
   22      C       4.2533750310    -1.4690231918    -0.8904553128
   23      O       4.3216265833    -0.2083507458    -1.6601355533
   24      H       4.3314286891     0.4848606730     1.6140069660
   25      H       3.5644757932    -1.7322774527     1.2323793920
   26      H       5.0394319968     1.6406618283    -0.8667683009
   27      H       7.0314995047     0.0634962690    -0.8589945406
   28      H       6.5346143459    -0.0093893720     0.8593613364
   29      H       6.3321121511    -2.1907018771    -1.1791536680
   30      H       5.7837250941    -2.2945518736     0.5223351390
   31      H       3.8369649026    -2.2841708448    -1.5136179104
   32      O      -1.3818318346    -0.2240263131     1.3159243325
   33      C      -1.6541801723    -3.1896533045    -0.2146911462
   34      C      -4.1537834925    -0.0106990435    -1.3631072756
   35      C      -5.3556113149     0.9744888926    -1.6429424944
   36      C      -4.8023825542     2.3117688151    -1.0249712425
   37      C      -3.3675928022     1.8554901542    -0.5467783012
   38      O      -2.9595701396     0.8484726298    -1.5496837192
   39      H      -5.1612788084    -0.4968504615     0.5758739229
   40      H      -4.1990001911     1.4759261035     1.5072351577
   41      H      -2.0891350099    -3.7303759041     0.6482528555
   42      H      -4.0984285262    -0.8959819773    -2.0240934393
   43      H      -5.5271982705     1.0725688546    -2.7267665894
   44      H      -6.2898185611     0.6379844001    -1.1661222030
   45      H      -4.7199781698     3.1068418699    -1.7829671063
   46      H      -5.4183629940     2.6813671654    -0.1898232965
   47      H      -2.6147738302     2.6648205495    -0.4739650425
   48      H      -0.6291577485    -2.8273514318     0.0402946986
   49      H      -1.6175239454    -3.8482598218    -1.1025965120
   50      H      -0.1745792112     0.6257528408    -1.8561682537
   51      H      -0.6040040136    -0.3881194749    -0.4096338944
   52      H      -0.1118871363    -1.1738146969    -1.9624516898
   53      H       0.1521153401     2.1756394857     0.5288942083
   54      H       1.0539313144     3.2339469197     1.6633486947
   55      H      -0.1573343008     0.7774512663     2.9732973775
   56      H      -0.2798132517     2.5054921100     3.5203840570
 ----------------------------------------------------------------

    9   -1510.2976218474      3.72E-09 Convergence criterion met
 Total energy in the final basis set = -1510.29762185
 Final energy is   -1510.29762184742
 **  OPTIMIZATION CONVERGED  **

                    Orbital Energies (a.u.)
 --------------------------------------------------------------

 Alpha MOs
 -- Occupied --
-18.950 -18.932 -18.930 -18.913 -18.895 -18.890 -18.886 -18.875
-18.873 -18.852 -10.113 -10.099 -10.099 -10.086 -10.081 -10.076
-10.066 -10.059 -10.058 -10.056 -10.044 -10.040 -10.036 -10.035
-10.033 -10.025 -10.023 -10.021 -10.020 -10.018  -1.028  -1.013
 -1.003  -0.992  -0.973  -0.968  -0.951  -0.935  -0.933  -0.917
 -0.765  -0.762  -0.730  -0.723  -0.713  -0.705  -0.699  -0.649
 -0.639  -0.619  -0.596  -0.582  -0.548  -0.545  -0.538  -0.536
 -0.514  -0.508  -0.489  -0.473  -0.462  -0.457  -0.453  -0.442
 -0.436  -0.434  -0.426  -0.417  -0.407  -0.402  -0.400  -0.399
 -0.388  -0.380  -0.369  -0.365  -0.359  -0.357  -0.355  -0.346
 -0.341  -0.333  -0.332  -0.330  -0.326  -0.323  -0.322  -0.313
 -0.307  -0.307  -0.304  -0.301  -0.294  -0.289  -0.280  -0.274
 -0.270  -0.262  -0.254  -0.243  -0.239  -0.232  -0.229  -0.192
 -0.177  -0.171  -0.166  -0.160  -0.152  -0.149  -0.144  -0.141
 -0.136

          Ground-State Mulliken Net Atomic Charges

     Atom                 Charge (a.u.)
  ----------------------------------------
      1 O                    -0.224844
      2 C                     0.211951
      3 C                    -0.081297
      4 C                    -0.078942
      5 C                     0.216717
      6 O                    -0.168180
      7 C                    -0.051503
      8 C                    -0.048601
      9 O                    -0.176840
     10 C                     0.217221
     11 C                    -0.078559
     12 C                    -0.078454
     13 C                     0.218412
     14 O                    -0.211778
     15 O                    -0.175812
     16 O                    -0.167397
     17 O                    -0.212255
     18 C                    -0.139393
     19 C                     0.024943
     20 C                    -0.144029
     21 C                    -0.143885
     22 C                     0.025882
     23 O                    -0.185744
     24 H                     0.083480
     25 H                     0.085512
     26 H                     0.090085
     27 H                     0.078009
     28 H                     0.072751
     29 H                     0.078078
     30 H                     0.073866
     31 H                     0.082688
     32 O                    -0.204624
     33 C                    -0.150841
     34 C                     0.025440
     35 C                    -0.144023
     36 C                    -0.143675
     37 C                     0.024719
     38 O                    -0.190764
     39 H                     0.083193
     40 H                     0.088856
     41 H                     0.090881
     42 H                     0.091584
     43 H                     0.078241
     44 H                     0.074210
     45 H                     0.078902
     46 H                     0.074546
     47 H                     0.081981
     48 H                     0.112665
     49 H                     0.074299
     50 H                     0.090314
     51 H                     0.110398
     52 H                     0.085226
     53 H                     0.089255
     54 H                     0.088022
     55 H                     0.106578
     56 H                     0.092536
  ----------------------------------------
  Sum of atomic charges =    -0.000000

                    Cartesian Multipole Moments
 -----------------------------------------------------------------
    Charge (ESU x 10^10)
                 0.0000
    Dipole Moment (Debye)
         X      -0.1043      Y       1.5764      Z       1.0522
       Tot       1.8981
    Quadrupole Moments (Debye-Ang)
        XX    -140.0427     XY     -11.4653     YY    -160.3709
        XZ      10.7177     YZ       9.7120     ZZ    -162.4633

 Total job time:  116.09s(wall), 5516.51s(cpu)
        *  Thank you very much for using Q-Chem.  Have a nice day.  *
