 Q-Chem 5.0, Q-Chem, Inc., Pleasanton, CA (2017)
 Q-Chem 5.0.1 for Intel X86 EM64T Linux

User input:
--------------------------------------------------------------
$molecule
0  1
O -3.94934 -3.66094 2.70899
C -3.26408 -4.56952 2.26188
C -3.36658 -6.02376 2.66595
C -3.65112 -7.04423 1.55171
C -3.62502 -6.51899 0.13342
O -4.52818 -7.20141 -0.63079
C -4.83646 -6.5408 -1.86278
C -5.18472 -7.56654 -2.93642
O -5.06033 -6.97349 -4.2386
C -4.49605 -7.76183 -5.18689
C -4.39342 -7.0827 -6.53184
C -3.09972 -6.28681 -6.75808
C -1.97099 -6.57066 -5.78747
O -0.87056 -6.03837 -5.8048
O -2.22586 -4.22693 1.45373
O -2.09492 -7.50728 -4.80906
O -4.37914 -8.97741 -5.06592
C -1.13904 -7.82871 -3.86506
C -4.29661 -8.06069 -7.73108
C -4.76992 -7.36095 -9.0051
C -3.63414 -6.38384 -9.22974
C -2.66853 -6.83097 -8.12636
O -2.91971 -8.20689 -7.97908
H -5.32253 -6.48533 -6.67733
H -3.28271 -5.19059 -6.72702
H -4.87074 -9.00173 -7.58627
H -4.74522 -8.125 -9.81541
H -5.78407 -6.90852 -8.96581
H -3.20686 -6.56812 -10.24028
H -3.90129 -5.31075 -9.11547
H -1.62278 -6.55108 -8.38316
O -2.69809 -5.87827 -0.34455
C -1.94532 -2.94161 1.03828
C -2.03082 -6.55389 3.21429
C -2.26984 -7.7939 4.0763
C -2.58838 -8.81976 3.00926
C -2.43027 -7.96821 1.7465
O -1.39111 -7.07899 2.07835
H -4.15001 -6.07355 3.45568
H -4.59582 -7.61217 1.71607
H -1.73931 -2.29162 1.91537
H -1.46462 -5.78715 3.78779
H -1.30455 -8.07165 4.55663
H -3.04882 -7.66219 4.85789
H -1.79624 -9.6015 3.02685
H -3.58921 -9.29644 3.08849
H -2.24891 -8.62227 0.86453
H -2.80018 -2.53268 0.45837
H -1.0474 -2.95831 0.38723
H -1.53683 -8.62577 -3.20392
H -0.90046 -6.93837 -3.2449
H -0.21863 -8.20184 -4.36261
H -4.46179 -8.40514 -2.80314
H -6.2111 -7.95562 -2.76671
H -3.93605 -6.02961 -2.27456
H -5.63676 -5.77993 -1.73886
$end

$opt
CONSTRAINT
tors           1           2           3           4    +122.526
tors           3           4           5           6    -147.250
tors           4           5           6           7    +163.670
tors           5           6           7           8    +149.725
tors           6           7           8           9    -161.052
tors           7           8           9          10    +139.109
tors           8           9          10          11    -180.000
tors           9          10          11          12     +89.180
tors          11          12          13          14    -179.919
ENDCONSTRAINT
$end

$rem
JOBTYPE                   OPT
METHOD                    B3LYP
DFT_D                     d3_op
BASIS                     STO-3G
GEOM_OPT_MAX_CYCLES       100
GEOM_OPT_TOL_GRADIENT     300
GEOM_OPT_TOL_DISPLACEMENT 1200
GEOM_OPT_TOL_ENERGY       100
SYMMETRY                  False
THRESH                    12
SCF_CONVERGENCE           8
MAX_SUB_FILE_NUM          128
MEM_STATIC                400
MEM_TOTAL                 4000
$end
--------------------------------------------------------------

   15   -1510.1313313699      5.85E-09 Convergence criterion met
 Total energy in the final basis set = -1510.13133137
   13   -1510.2042418222      9.63E-09 Convergence criterion met
 Total energy in the final basis set = -1510.20424182
   14   -1510.2437989082      9.64E-09 Convergence criterion met
 Total energy in the final basis set = -1510.24379891
   14   -1510.2611313586      8.35E-09 Convergence criterion met
 Total energy in the final basis set = -1510.26113136
   14   -1510.2667681425      8.00E-09 Convergence criterion met
 Total energy in the final basis set = -1510.26676814
   13   -1510.2705018292      8.90E-09 Convergence criterion met
 Total energy in the final basis set = -1510.27050183
   13   -1510.2723809454      5.13E-09 Convergence criterion met
 Total energy in the final basis set = -1510.27238095
   13   -1510.2735201620      8.20E-09 Convergence criterion met
   10   -1510.2759565793      9.26E-09 Convergence criterion met
 Total energy in the final basis set = -1510.27595658
    9   -1510.2759596418      7.48E-09 Convergence criterion met
 Total energy in the final basis set = -1510.27595964
    9   -1510.2759614247      4.73E-09 Convergence criterion met
 Total energy in the final basis set = -1510.27596142
    9   -1510.2759628941      2.45E-09 Convergence criterion met
 Total energy in the final basis set = -1510.27596289
    9   -1510.2759640459      3.17E-09 Convergence criterion met
 Total energy in the final basis set = -1510.27596405
    9   -1510.2759650498      2.17E-09 Convergence criterion met
 Total energy in the final basis set = -1510.27596505

             Standard Nuclear Orientation (Angstroms)
    I     Atom           X                Y                Z
 ----------------------------------------------------------------
    1      O      -4.9304787358    -2.3458842781     1.5207489408
    2      C      -4.6795900530    -1.5469583075     0.5908791139
    3      C      -5.0019739986    -0.0073960902     0.5816930992
    4      C      -3.7558099971     0.9471427105     0.3618940622
    5      C      -2.3587893378     0.2693599510     0.5704594141
    6      O      -1.4683514510     1.2670452020     1.0977240909
    7      C      -0.2657824255     0.6200461142     1.6814186639
    8      C       0.9440394186     1.5997915211     1.5286138459
    9      O       2.1778839652     0.7917557208     1.6755111786
   10      C       3.1619840051     1.2160270602     0.7172521298
   11      C       4.4380377139     0.3271697953     0.9226862510
   12      C       4.4913042947    -1.0259458970     0.0895609824
   13      C       3.2653201472    -1.4191429582    -0.8139186192
   14      O       3.1905063348    -2.4547896869    -1.5112701002
   15      O      -4.2301831989    -1.9443442886    -0.7073211425
   16      O       2.2308766646    -0.4383053310    -0.7527385769
   17      O       3.0267894994     2.1943849688    -0.0476486317
   18      C       1.0818638686    -0.8272810071    -1.6017552156
   19      C       5.7197680564     1.0718121191     0.3540932930
   20      C       7.0113147919     0.3852820064     0.9490703632
   21      C       7.0637206833    -0.9431429856     0.1080460645
   22      C       5.7867126862    -0.7751545960    -0.8055873625
   23      O       5.7383810820     0.6781320617    -1.0742600029
   24      H       4.5268148106     0.1100499714     2.0019437997
   25      H       4.6628773165    -1.8814469191     0.7685451928
   26      H       5.6770858079     2.1742501803     0.4461788167
   27      H       7.8988243750     1.0129161089     0.7700917127
   28      H       6.9217249947     0.2006698583     2.0315007728
   29      H       7.9733174898    -0.9948891420    -0.5112439469
   30      H       7.0099450765    -1.8484936250     0.7333369506
   31      H       5.8002465809    -1.3524967682    -1.7504946547
   32      O      -2.0342592891    -0.9273223210     0.4082312317
   33      C      -3.9125113110    -3.3893844429    -0.7106068237
   34      C      -5.8523354773     0.3501512912    -0.7150507865
   35      C      -6.3977702991     1.8298411235    -0.5918333664
   36      C      -5.1120636844     2.6643298733    -0.9507544851
   37      C      -4.0447845608     1.5109050699    -1.1027089390
   38      O      -4.8139832004     0.4389652196    -1.7682678224
   39      H      -5.5333359602     0.2320288410     1.5192329603
   40      H      -3.7917806518     1.7830393079     1.0831833486
   41      H      -4.7698167992    -4.0005971281    -0.3616654673
   42      H      -6.6112193585    -0.4089650481    -0.9863974300
   43      H      -7.2109594861     2.0043184201    -1.3137198707
   44      H      -6.7726607846     2.0457619637     0.4214867824
   45      H      -5.2336373925     3.1971637865    -1.9076604012
   46      H      -4.8403680544     3.3935620924    -0.1709581006
   47      H      -3.1432098296     1.7706925482    -1.6906221338
   48      H      -3.0351068620    -3.6068989064    -0.0676423540
   49      H      -3.6728833948    -3.6453995399    -1.7589923814
   50      H       0.3753021184     0.0220725769    -1.5628699673
   51      H       0.5829699791    -1.7394404800    -1.2146551180
   52      H       1.3931366932    -1.0083456104    -2.6503602431
   53      H       0.9370384038     2.0901986314     0.5309977808
   54      H       0.9159299220     2.3909837906     2.3085617709
   55      H      -0.0573737826    -0.3325286672     1.1483966676
   56      H      -0.4558070582     0.3880098354     2.7516400168
 ----------------------------------------------------------------

    9   -1510.2759657044      2.17E-09 Convergence criterion met
 Total energy in the final basis set = -1510.27596570
 Final energy is   -1510.27596570443
 **  OPTIMIZATION CONVERGED  **

                    Orbital Energies (a.u.)
 --------------------------------------------------------------

 Alpha MOs
 -- Occupied --
-18.943 -18.934 -18.926 -18.924 -18.891 -18.888 -18.885 -18.875
-18.868 -18.864 -10.105 -10.103 -10.098 -10.092 -10.071 -10.068
-10.068 -10.064 -10.062 -10.060 -10.059 -10.054 -10.040 -10.040
-10.037 -10.037 -10.023 -10.021 -10.021 -10.020  -1.018  -1.017
 -1.004  -1.001  -0.972  -0.971  -0.942  -0.939  -0.931  -0.926
 -0.765  -0.763  -0.728  -0.723  -0.714  -0.706  -0.696  -0.665
 -0.653  -0.617  -0.598  -0.579  -0.548  -0.545  -0.539  -0.538
 -0.516  -0.511  -0.486  -0.478  -0.464  -0.458  -0.447  -0.444
 -0.437  -0.434  -0.430  -0.414  -0.413  -0.411  -0.403  -0.401
 -0.397  -0.384  -0.371  -0.368  -0.364  -0.353  -0.350  -0.346
 -0.342  -0.337  -0.335  -0.332  -0.330  -0.330  -0.324  -0.315
 -0.312  -0.307  -0.307  -0.300  -0.298  -0.296  -0.285  -0.276
 -0.270  -0.256  -0.247  -0.243  -0.241  -0.236  -0.235  -0.186
 -0.181  -0.172  -0.167  -0.157  -0.155  -0.148  -0.145  -0.145
 -0.143

          Ground-State Mulliken Net Atomic Charges

     Atom                 Charge (a.u.)
  ----------------------------------------
      1 O                    -0.218515
      2 C                     0.209596
      3 C                    -0.079630
      4 C                    -0.080283
      5 C                     0.208190
      6 O                    -0.176960
      7 C                    -0.053001
      8 C                    -0.051887
      9 O                    -0.177473
     10 C                     0.221889
     11 C                    -0.080532
     12 C                    -0.078264
     13 C                     0.211012
     14 O                    -0.214723
     15 O                    -0.160879
     16 O                    -0.167954
     17 O                    -0.216701
     18 C                    -0.126177
     19 C                     0.025735
     20 C                    -0.144534
     21 C                    -0.143545
     22 C                     0.025279
     23 O                    -0.187815
     24 H                     0.085031
     25 H                     0.085990
     26 H                     0.087409
     27 H                     0.078315
     28 H                     0.073249
     29 H                     0.078669
     30 H                     0.073935
     31 H                     0.086701
     32 O                    -0.209584
     33 C                    -0.126460
     34 C                     0.027150
     35 C                    -0.145213
     36 C                    -0.142173
     37 C                     0.026858
     38 O                    -0.182572
     39 H                     0.084702
     40 H                     0.086685
     41 H                     0.087168
     42 H                     0.084217
     43 H                     0.078546
     44 H                     0.074037
     45 H                     0.078555
     46 H                     0.074436
     47 H                     0.083695
     48 H                     0.090197
     49 H                     0.089235
     50 H                     0.092922
     51 H                     0.093938
     52 H                     0.094425
     53 H                     0.101014
     54 H                     0.082103
     55 H                     0.100414
     56 H                     0.083576
  ----------------------------------------
  Sum of atomic charges =    -0.000000

                    Cartesian Multipole Moments
 -----------------------------------------------------------------
    Charge (ESU x 10^10)
                 0.0000
    Dipole Moment (Debye)
         X      -0.2065      Y       1.0329      Z       1.8637
       Tot       2.1408
    Quadrupole Moments (Debye-Ang)
        XX    -146.5360     XY     -12.3538     YY    -162.7129
        XZ      10.7930     YZ       4.5620     ZZ    -162.3341

 Total job time:  67.20s(wall), 3193.06s(cpu)
        *  Thank you very much for using Q-Chem.  Have a nice day.  *
