 Q-Chem 5.0, Q-Chem, Inc., Pleasanton, CA (2017)
 Q-Chem 5.0.1 for Intel X86 EM64T Linux

User input:
--------------------------------------------------------------
$molecule
0  1
O -2.5277732471 -1.6203685123 1.3615934834
C -3.6285651236 -1.3901838263 0.8128550267
C -4.4435902781 -0.0473143006 0.9147106338
C -3.6844354702 1.1868598231 0.2637805684
C -2.4056530876 0.7552279027 -0.5407110649
O -1.3421158403 1.7539964412 -0.48736268
C -0.2996828037 1.2071793498 0.4135201146
C 0.9133157963 2.198720217 0.41654761
O 2.0863968338 1.4510737046 0.9282976421
C 3.1800938416 1.5410073155 -0.0008100712
C 4.3758923496 0.7303674365 0.6075384925
C 4.160471734 -0.834550597 0.7508350948
C 2.9543966801 -1.4810763835 -0.0240399236
O 2.5992205717 -2.6775524679 0.0557472444
O -4.340390582 -2.3373595749 0.0154999348
O 2.3908356978 -0.5536139464 -0.9530029369
O 3.1745306922 2.2367143573 -1.0383873348
C 1.3660945163 -1.2141244331 -1.7952751283
C 5.6836943021 0.7893535851 -0.2887792853
C 6.921149197 0.5366043975 0.6558213055
C 6.7393652788 -0.9947352431 0.9723429774
C 5.4994627662 -1.3566555909 0.0604550373
O 5.6271452556 -0.4485266482 -1.1013458294
H 4.5725589393 1.1583988374 1.6079655433
H 4.0961261068 -1.1457934489 1.8087313328
H 5.7415574036 1.6808469252 -0.9432536807
H 7.8625317967 0.7266817802 0.1156301258
H 6.8962486566 1.1671884549 1.5587084698
H 7.6225179645 -1.5798557155 0.6709578922
H 6.5355032563 -1.1872537129 2.0378971861
H 5.4521274793 -2.4126722174 -0.2703874368
O -2.2911457369 -0.3087184728 -1.1858626973
C -3.5428881853 -3.5773929051 -0.1237659771
C -5.8106274017 -0.0262831986 0.1108099889
C -6.6980059867 1.1413073649 0.6957939346
C -5.9542521153 2.4029095514 0.1195792611
C -4.8082171166 1.7227790691 -0.7305566577
O -5.4261562837 0.4751766113 -1.2295269664
H -4.6154779724 0.1483033773 1.9893483642
H -3.396883327 1.947663401 1.0100287989
H -3.3417334941 -4.0480882868 0.8603457543
H -6.3058563578 -1.0120731077 0.0272832935
H -7.7283368152 1.0710417676 0.3120894682
H -6.7290410947 1.1299625083 1.7969687766
H -6.6124901159 2.9985033609 -0.5328554014
H -5.5507068307 3.0579184104 0.908179378
H -4.4229848679 2.3317264251 -1.5715717935
H -2.5742154777 -3.3780597033 -0.6256633981
H -4.1494507277 -4.2609274286 -0.7458466884
H 0.9460731387 -0.4206660594 -2.4403473873
H 0.5566754288 -1.6636484636 -1.1845918755
H 1.8173237697 -2.0080228954 -2.4244738922
H 1.1346454978 2.5576452172 -0.6125723235
H 0.7173031395 3.0706418849 1.0750928008
H 0.0602876249 0.2156220128 0.0620053292
H -0.693853764 1.0772287312 1.4471929422
$end

$rem
JOBTYPE                   OPT
METHOD                    B3LYP
DFT_D                     d3_op
BASIS                     STO-3G
GEOM_OPT_MAX_CYCLES       100
GEOM_OPT_TOL_GRADIENT     300
GEOM_OPT_TOL_DISPLACEMENT 1200
GEOM_OPT_TOL_ENERGY       100
SYMMETRY                  False
THRESH                    12
SCF_CONVERGENCE           8
MAX_SUB_FILE_NUM          128
MEM_STATIC                400
MEM_TOTAL                 4000
$end
--------------------------------------------------------------

   16   -1510.2628422907      5.72E-09 Convergence criterion met
 Total energy in the final basis set = -1510.26284229
   14   -1510.2644725830      8.36E-09 Convergence criterion met
 Total energy in the final basis set = -1510.26447258
   14   -1510.2674609540      5.87E-09 Convergence criterion met
 Total energy in the final basis set = -1510.26746095
   15   -1510.2344263670      3.02E-09 Convergence criterion met
 Total energy in the final basis set = -1510.23442637
   14   -1510.2703895381      6.17E-09 Convergence criterion met
 Total energy in the final basis set = -1510.27038954
   14   -1510.2725771371      2.30E-09 Convergence criterion met
 Total energy in the final basis set = -1510.27257714
   14   -1510.2769076015      3.26E-09 Convergence criterion met
 Total energy in the final basis set = -1510.27690760
   14   -1510.2803021080      6.25E-09 Convergence criterion met
   11   -1510.2975744879      3.57E-09 Convergence criterion met
 Total energy in the final basis set = -1510.29757449
   10   -1510.2975810005      5.82E-09 Convergence criterion met
 Total energy in the final basis set = -1510.29758100
   11   -1510.2975720615      4.49E-09 Convergence criterion met
 Total energy in the final basis set = -1510.29757206
   11   -1510.2975757802      3.16E-09 Convergence criterion met
 Total energy in the final basis set = -1510.29757578
    9   -1510.2975767620      9.56E-09 Convergence criterion met
 Total energy in the final basis set = -1510.29757676
    9   -1510.2975753168      3.91E-09 Convergence criterion met
 Total energy in the final basis set = -1510.29757532

             Standard Nuclear Orientation (Angstroms)
    I     Atom           X                Y                Z
 ----------------------------------------------------------------
    1      O      -3.2115015788    -2.3641779037     2.0606444558
    2      C      -3.2151376755    -1.7853555177     0.9507363237
    3      C      -4.1258428439    -0.5549533574     0.5686092244
    4      C      -3.5500629701     0.8421168732     1.0489966251
    5      C      -2.1030603095     0.7374544051     1.6232713695
    6      O      -1.7611486758     1.9557021175     2.2850342279
    7      C      -0.3309695197     1.9224741603     2.6824803176
    8      C       0.6070249092     2.2771177389     1.4659523251
    9      O       1.7413317148     1.3233137443     1.5008741964
   10      C       2.6444440171     1.6036762554     0.4182763371
   11      C       3.8260282446     0.5721496407     0.4876142467
   12      C       3.3896382613    -0.9426302782     0.3163275838
   13      C       1.8608053035    -1.1683137896     0.0658993318
   14      O       1.1615768016    -2.0715582618     0.5815458872
   15      O      -2.4750199366    -2.2060326731    -0.1947741102
   16      O       1.4100897932    -0.2186998901    -0.8930794422
   17      O       2.5132685743     2.5614215748    -0.3717991524
   18      C      -0.0338879682    -0.3997525626    -1.1865496414
   19      C       4.8113586853     0.7494859812    -0.7407449956
   20      C       6.1692056135     0.0209782370    -0.3989016562
   21      C       5.7505868726    -1.4882831275    -0.5545597203
   22      C       4.2341439271    -1.3425948197    -0.9744281202
   23      O       4.2127424046    -0.1090257951    -1.7896129295
   24      H       4.3464754389     0.7147855330     1.4526796469
   25      H       3.6769467621    -1.5497775423     1.1922736034
   26      H       4.8954232779     1.7936221806    -1.0997804491
   27      H       6.9490585431     0.2997893696    -1.1254005461
   28      H       6.5286724982     0.2621864234     0.6142979146
   29      H       6.3233917647    -1.9868752359    -1.3525999514
   30      H       5.8689498108    -2.0631005087     0.3779915372
   31      H       3.8189515133    -2.1950412699    -1.5464192755
   32      O      -1.3120027352    -0.2280130771     1.4966592430
   33      C      -1.5395723335    -3.3015828025     0.1650427155
   34      C      -4.2548071742    -0.3052146255    -0.9933780511
   35      C      -5.5219666060     0.6023764321    -1.2464194723
   36      C      -5.0030670474     1.9980280761    -0.7373823114
   37      C      -3.5200610642     1.6410752024    -0.3293106394
   38      O      -3.1212499623     0.6006638304    -1.3016017532
   39      H      -5.1150885596    -0.7281784210     1.0288192677
   40      H      -4.2002764197     1.3360634025     1.7924879404
   41      H      -1.8889774208    -3.8076345157     1.0858817866
   42      H      -4.1935060432    -1.2220982131    -1.6093439263
   43      H      -5.7651671647     0.6314471488    -2.3204874492
   44      H      -6.4058864168     0.2476285685    -0.6930909662
   45      H      -5.0093579954     2.7518489473    -1.5408359863
   46      H      -5.5849187749     2.3850996676     0.1143512770
   47      H      -2.8084116184     2.4896818835    -0.3469132906
   48      H      -0.5201007178    -2.8762972288     0.3286795847
   49      H      -1.5267395898    -4.0116991601    -0.6829463304
   50      H      -0.3373200804     0.4797001122    -1.7827142340
   51      H      -0.6339297609    -0.4534983096    -0.2504974057
   52      H      -0.2064717955    -1.3194607449    -1.7799395578
   53      H       0.0418270971     2.1731492790     0.5130769487
   54      H       0.9690378648     3.3258278971     1.5290612917
   55      H      -0.0559036635     0.9112418890     3.0528682273
   56      H      -0.2284891356     2.6636465155     3.4985689426
 ----------------------------------------------------------------

    9   -1510.2975751247      2.73E-09 Convergence criterion met
 Total energy in the final basis set = -1510.29757512
 Final energy is   -1510.29757512473
 **  OPTIMIZATION CONVERGED  **

                    Orbital Energies (a.u.)
 --------------------------------------------------------------

 Alpha MOs
 -- Occupied --
-18.950 -18.932 -18.930 -18.913 -18.895 -18.890 -18.886 -18.875
-18.873 -18.852 -10.113 -10.099 -10.099 -10.086 -10.081 -10.076
-10.066 -10.059 -10.058 -10.056 -10.044 -10.040 -10.036 -10.035
-10.033 -10.025 -10.024 -10.021 -10.019 -10.018  -1.028  -1.013
 -1.003  -0.992  -0.973  -0.968  -0.951  -0.935  -0.933  -0.917
 -0.765  -0.762  -0.730  -0.723  -0.713  -0.705  -0.699  -0.649
 -0.639  -0.619  -0.595  -0.582  -0.548  -0.545  -0.538  -0.536
 -0.514  -0.508  -0.489  -0.473  -0.462  -0.457  -0.453  -0.442
 -0.436  -0.434  -0.426  -0.417  -0.407  -0.402  -0.400  -0.399
 -0.388  -0.381  -0.368  -0.365  -0.359  -0.357  -0.355  -0.345
 -0.342  -0.333  -0.332  -0.330  -0.326  -0.323  -0.322  -0.313
 -0.307  -0.307  -0.304  -0.301  -0.294  -0.289  -0.280  -0.274
 -0.271  -0.262  -0.254  -0.243  -0.239  -0.232  -0.230  -0.192
 -0.177  -0.170  -0.166  -0.160  -0.152  -0.149  -0.144  -0.141
 -0.136

          Ground-State Mulliken Net Atomic Charges

     Atom                 Charge (a.u.)
  ----------------------------------------
      1 O                    -0.224932
      2 C                     0.211917
      3 C                    -0.081278
      4 C                    -0.078933
      5 C                     0.216819
      6 O                    -0.168040
      7 C                    -0.051278
      8 C                    -0.048557
      9 O                    -0.176521
     10 C                     0.216998
     11 C                    -0.078419
     12 C                    -0.078612
     13 C                     0.218469
     14 O                    -0.211897
     15 O                    -0.175751
     16 O                    -0.167371
     17 O                    -0.212099
     18 C                    -0.139822
     19 C                     0.024943
     20 C                    -0.144081
     21 C                    -0.143789
     22 C                     0.025907
     23 O                    -0.185691
     24 H                     0.083461
     25 H                     0.085453
     26 H                     0.090002
     27 H                     0.077969
     28 H                     0.072717
     29 H                     0.078058
     30 H                     0.073875
     31 H                     0.082699
     32 O                    -0.204710
     33 C                    -0.150890
     34 C                     0.025296
     35 C                    -0.144020
     36 C                    -0.143651
     37 C                     0.024699
     38 O                    -0.190696
     39 H                     0.083187
     40 H                     0.088847
     41 H                     0.090725
     42 H                     0.091763
     43 H                     0.078261
     44 H                     0.074217
     45 H                     0.078866
     46 H                     0.074553
     47 H                     0.081963
     48 H                     0.112874
     49 H                     0.074334
     50 H                     0.090047
     51 H                     0.110562
     52 H                     0.085106
     53 H                     0.089168
     54 H                     0.088266
     55 H                     0.106402
     56 H                     0.092612
  ----------------------------------------
  Sum of atomic charges =    -0.000000

                    Cartesian Multipole Moments
 -----------------------------------------------------------------
    Charge (ESU x 10^10)
                 0.0000
    Dipole Moment (Debye)
         X      -0.1597      Y       1.5953      Z       0.9905
       Tot       1.8846
    Quadrupole Moments (Debye-Ang)
        XX    -137.8455     XY      -9.3770     YY    -160.2505
        XZ       9.2961     YZ      10.7818     ZZ    -164.4999

 Total job time:  137.12s(wall), 6535.87s(cpu)
        *  Thank you very much for using Q-Chem.  Have a nice day.  *
