 Q-Chem 5.0, Q-Chem, Inc., Pleasanton, CA (2017)
 Q-Chem 5.0.1 for Intel X86 EM64T Linux

User input:
--------------------------------------------------------------
$molecule
0  1
O -3.94934 -3.66094 2.70899
C -3.26408 -4.56952 2.26188
C -3.36658 -6.02376 2.66595
C -4.68167 -6.75177 2.34286
C -5.67984 -5.99616 1.49384
O -6.95114 -6.33963 1.85611
C -7.62469 -5.31165 2.59016
C -9.0667 -5.72316 2.86835
O -9.85014 -4.56642 3.2016
C -10.96888 -4.3855 2.45673
C -11.74812 -3.15467 2.85483
C -11.02705 -1.82243 2.60289
C -9.82253 -1.88621 1.68541
O -9.0721 -0.95416 1.43504
O -2.33902 -4.25564 1.31422
O -9.69455 -2.94739 0.84075
O -11.36054 -5.15333 1.58463
C -8.80388 -3.03052 -0.21282
C -13.04271 -2.91382 2.04429
C -14.00352 -2.04661 2.85737
C -13.28957 -0.71065 2.81064
C -12.13196 -1.05145 1.86569
O -12.66203 -2.03706 1.01193
H -12.02552 -3.28971 3.92489
H -10.68456 -1.35488 3.55198
H -13.55388 -3.84973 1.73061
H -14.94364 -1.96621 2.26541
H -14.24619 -2.41958 3.87561
H -13.97306 0.03685 2.35029
H -12.91598 -0.33694 3.78873
H -11.747 -0.13262 1.3703
O -5.42446 -5.46084 0.42508
C -2.13075 -2.9871 0.81429
C -2.36179 -6.93719 1.92673
C -2.14982 -8.23708 2.70619
C -3.4479 -8.95466 2.41341
C -4.13421 -7.92863 1.51052
O -3.06942 -7.35918 0.78944
H -3.14183 -6.04563 3.75546
H -5.19569 -7.13394 3.25501
H -1.82755 -2.2982 1.63139
H -1.37517 -6.45864 1.74491
H -1.31951 -8.80287 2.22631
H -1.9212 -8.08514 3.78307
H -3.21933 -9.86632 1.81688
H -4.05271 -9.23082 3.30398
H -4.92382 -8.42481 0.90312
H -3.05688 -2.61105 0.32907
H -1.32056 -3.02309 0.0575
H -8.91052 -4.02087 -0.70092
H -7.75987 -2.918 0.1486
H -9.02298 -2.23768 -0.95914
H -9.42562 -6.25192 1.95825
H -9.08421 -6.46042 3.69863
H -7.65688 -4.40964 1.9459
H -7.09948 -5.04764 3.53502
$end

$opt
CONSTRAINT
tors           1           2           3           4     +64.251
tors           3           4           5           6    -147.250
tors           4           5           6           7    +106.649
tors           5           6           7           8    +175.787
tors           6           7           8           9    -161.416
tors           7           8           9          10    +125.863
tors           8           9          10          11    -180.000
tors           9          10          11          12     +65.546
tors          11          12          13          14    -174.988
ENDCONSTRAINT
$end

$rem
JOBTYPE                   OPT
METHOD                    B3LYP
DFT_D                     d3_op
BASIS                     STO-3G
GEOM_OPT_MAX_CYCLES       100
GEOM_OPT_TOL_GRADIENT     300
GEOM_OPT_TOL_DISPLACEMENT 1200
GEOM_OPT_TOL_ENERGY       100
SYMMETRY                  False
THRESH                    12
SCF_CONVERGENCE           8
MAX_SUB_FILE_NUM          128
MEM_STATIC                400
MEM_TOTAL                 4000
$end
--------------------------------------------------------------

   15   -1510.1273628017      7.23E-09 Convergence criterion met
 Total energy in the final basis set = -1510.12736280
   13   -1510.1992514654      9.84E-09 Convergence criterion met
 Total energy in the final basis set = -1510.19925147
   14   -1510.2382610232      7.76E-09 Convergence criterion met
 Total energy in the final basis set = -1510.23826102
   14   -1510.2554335493      5.21E-09 Convergence criterion met
 Total energy in the final basis set = -1510.25543355
   14   -1510.2604600088      6.12E-09 Convergence criterion met
 Total energy in the final basis set = -1510.26046001
   14   -1510.2606288154      5.87E-09 Convergence criterion met
 Total energy in the final basis set = -1510.26062882
   13   -1510.2623675429      4.61E-09 Convergence criterion met
 Total energy in the final basis set = -1510.26236754
   12   -1510.2625998782      7.30E-09 Convergence criterion met
   12   -1510.2627125955      4.78E-09 Convergence criterion met
 Total energy in the final basis set = -1510.26271260
   11   -1510.2627332946      5.66E-09 Convergence criterion met
 Total energy in the final basis set = -1510.26273329
   11   -1510.2627560408      5.14E-09 Convergence criterion met
 Total energy in the final basis set = -1510.26275604
   11   -1510.2627741658      5.45E-09 Convergence criterion met
 Total energy in the final basis set = -1510.26277417
   10   -1510.2627810480      8.19E-09 Convergence criterion met
 Total energy in the final basis set = -1510.26278105
   10   -1510.2627822810      9.18E-09 Convergence criterion met
 Total energy in the final basis set = -1510.26278228

             Standard Nuclear Orientation (Angstroms)
    I     Atom           X                Y                Z
 ----------------------------------------------------------------
    1      O      -2.5277732471    -1.6203685123     1.3615934834
    2      C      -3.6285651236    -1.3901838263     0.8128550267
    3      C      -4.4435902781    -0.0473143006     0.9147106338
    4      C      -3.6844354702     1.1868598231     0.2637805684
    5      C      -2.4056530876     0.7552279027    -0.5407110649
    6      O      -1.3421158403     1.7539964412    -0.4873626800
    7      C      -0.2996828037     1.2071793498     0.4135201146
    8      C       0.9133157963     2.1987202170     0.4165476100
    9      O       2.0863968338     1.4510737046     0.9282976421
   10      C       3.1800938416     1.5410073155    -0.0008100712
   11      C       4.3758923496     0.7303674365     0.6075384925
   12      C       4.1604717340    -0.8345505970     0.7508350948
   13      C       2.9543966801    -1.4810763835    -0.0240399236
   14      O       2.5992205717    -2.6775524679     0.0557472444
   15      O      -4.3403905820    -2.3373595749     0.0154999348
   16      O       2.3908356978    -0.5536139464    -0.9530029369
   17      O       3.1745306922     2.2367143573    -1.0383873348
   18      C       1.3660945163    -1.2141244331    -1.7952751283
   19      C       5.6836943021     0.7893535851    -0.2887792853
   20      C       6.9211491970     0.5366043975     0.6558213055
   21      C       6.7393652788    -0.9947352431     0.9723429774
   22      C       5.4994627662    -1.3566555909     0.0604550373
   23      O       5.6271452556    -0.4485266482    -1.1013458294
   24      H       4.5725589393     1.1583988374     1.6079655433
   25      H       4.0961261068    -1.1457934489     1.8087313328
   26      H       5.7415574036     1.6808469252    -0.9432536807
   27      H       7.8625317967     0.7266817802     0.1156301258
   28      H       6.8962486566     1.1671884549     1.5587084698
   29      H       7.6225179645    -1.5798557155     0.6709578922
   30      H       6.5355032563    -1.1872537129     2.0378971861
   31      H       5.4521274793    -2.4126722174    -0.2703874368
   32      O      -2.2911457369    -0.3087184728    -1.1858626973
   33      C      -3.5428881853    -3.5773929051    -0.1237659771
   34      C      -5.8106274017    -0.0262831986     0.1108099889
   35      C      -6.6980059867     1.1413073649     0.6957939346
   36      C      -5.9542521153     2.4029095514     0.1195792611
   37      C      -4.8082171166     1.7227790691    -0.7305566577
   38      O      -5.4261562837     0.4751766113    -1.2295269664
   39      H      -4.6154779724     0.1483033773     1.9893483642
   40      H      -3.3968833270     1.9476634010     1.0100287989
   41      H      -3.3417334941    -4.0480882868     0.8603457543
   42      H      -6.3058563578    -1.0120731077     0.0272832935
   43      H      -7.7283368152     1.0710417676     0.3120894682
   44      H      -6.7290410947     1.1299625083     1.7969687766
   45      H      -6.6124901159     2.9985033609    -0.5328554014
   46      H      -5.5507068307     3.0579184104     0.9081793780
   47      H      -4.4229848679     2.3317264251    -1.5715717935
   48      H      -2.5742154777    -3.3780597033    -0.6256633981
   49      H      -4.1494507277    -4.2609274286    -0.7458466884
   50      H       0.9460731387    -0.4206660594    -2.4403473873
   51      H       0.5566754288    -1.6636484636    -1.1845918755
   52      H       1.8173237697    -2.0080228954    -2.4244738922
   53      H       1.1346454978     2.5576452172    -0.6125723235
   54      H       0.7173031395     3.0706418849     1.0750928008
   55      H       0.0602876249     0.2156220128     0.0620053292
   56      H      -0.6938537640     1.0772287312     1.4471929422
 ----------------------------------------------------------------

   10   -1510.2627817675      7.48E-09 Convergence criterion met
 Total energy in the final basis set = -1510.26278177
 Final energy is   -1510.26278176748
 **  OPTIMIZATION CONVERGED  **

                    Orbital Energies (a.u.)
 --------------------------------------------------------------

 Alpha MOs
 -- Occupied --
-18.939 -18.934 -18.923 -18.905 -18.902 -18.890 -18.886 -18.872
-18.870 -18.867 -10.109 -10.099 -10.099 -10.098 -10.068 -10.064
-10.063 -10.063 -10.061 -10.060 -10.059 -10.056 -10.040 -10.039
-10.039 -10.036 -10.023 -10.021 -10.020 -10.019  -1.014  -1.013
 -1.005  -1.003  -0.972  -0.969  -0.939  -0.935  -0.933  -0.930
 -0.764  -0.762  -0.725  -0.723  -0.711  -0.706  -0.693  -0.660
 -0.659  -0.610  -0.598  -0.578  -0.549  -0.542  -0.540  -0.536
 -0.515  -0.509  -0.485  -0.475  -0.464  -0.455  -0.446  -0.443
 -0.440  -0.435  -0.428  -0.412  -0.411  -0.410  -0.408  -0.397
 -0.394  -0.382  -0.374  -0.370  -0.364  -0.356  -0.350  -0.346
 -0.342  -0.338  -0.335  -0.333  -0.330  -0.324  -0.320  -0.313
 -0.308  -0.308  -0.306  -0.303  -0.296  -0.294  -0.286  -0.280
 -0.268  -0.253  -0.248  -0.243  -0.240  -0.235  -0.233  -0.180
 -0.174  -0.170  -0.161  -0.159  -0.156  -0.151  -0.148  -0.144
 -0.144

          Ground-State Mulliken Net Atomic Charges

     Atom                 Charge (a.u.)
  ----------------------------------------
      1 O                    -0.223619
      2 C                     0.211055
      3 C                    -0.080383
      4 C                    -0.081557
      5 C                     0.221397
      6 O                    -0.196888
      7 C                    -0.048489
      8 C                    -0.053276
      9 O                    -0.179560
     10 C                     0.222890
     11 C                    -0.079841
     12 C                    -0.076582
     13 C                     0.211668
     14 O                    -0.214860
     15 O                    -0.165756
     16 O                    -0.167395
     17 O                    -0.215687
     18 C                    -0.127232
     19 C                     0.024260
     20 C                    -0.143044
     21 C                    -0.144688
     22 C                     0.024790
     23 O                    -0.190018
     24 H                     0.084027
     25 H                     0.086852
     26 H                     0.090554
     27 H                     0.078093
     28 H                     0.072999
     29 H                     0.078449
     30 H                     0.073857
     31 H                     0.085005
     32 O                    -0.182156
     33 C                    -0.126659
     34 C                     0.024637
     35 C                    -0.143848
     36 C                    -0.143866
     37 C                     0.025830
     38 O                    -0.186653
     39 H                     0.082995
     40 H                     0.084163
     41 H                     0.088151
     42 H                     0.093084
     43 H                     0.078427
     44 H                     0.073060
     45 H                     0.078964
     46 H                     0.074020
     47 H                     0.084738
     48 H                     0.093487
     49 H                     0.090906
     50 H                     0.097845
     51 H                     0.093895
     52 H                     0.091319
     53 H                     0.104725
     54 H                     0.081643
     55 H                     0.086459
     56 H                     0.077812
  ----------------------------------------
  Sum of atomic charges =     0.000000

                    Cartesian Multipole Moments
 -----------------------------------------------------------------
    Charge (ESU x 10^10)
                -0.0000
    Dipole Moment (Debye)
         X      -1.0282      Y       0.8930      Z       3.0856
       Tot       3.3728
    Quadrupole Moments (Debye-Ang)
        XX    -143.6012     XY      -3.2280     YY    -157.5196
        XZ       1.3918     YZ       5.2432     ZZ    -162.2146

 Total job time:  42.65s(wall), 2024.78s(cpu)
        *  Thank you very much for using Q-Chem.  Have a nice day.  *
