 Q-Chem 5.0, Q-Chem, Inc., Pleasanton, CA (2017)
 Q-Chem 5.0.1 for Intel X86 EM64T Linux

User input:
--------------------------------------------------------------
$molecule
0  1
O 4.8857035509 -2.4647247998 -0.5428245825
C 5.3788918905 -1.4688717829 0.0301392872
C 5.4292476824 0.0006505933 -0.5302390111
C 4.0344377661 0.5516991242 -1.0359091938
C 2.8102327393 -0.2378687304 -0.4549448332
O 1.6479000145 0.1420416061 -1.2024428902
C 0.48405404 -0.6898085845 -0.8058751786
C -0.7912069045 0.0523893814 -1.3187985773
O -1.9574580534 -0.7540160519 -0.8804231541
C -3.1672055213 0.0052860328 -1.0365432135
C -4.3629947914 -0.9183934718 -0.6131473445
C -4.9470460985 -0.6907964888 0.8504805356
C -4.2140320627 0.354130503 1.7592180964
O -3.9037911934 0.1964595951 2.961314566
O 6.0131034405 -1.5181171229 1.3115903633
O -4.0203432148 1.5712511372 1.0380005459
O -3.2039909325 1.1528694562 -1.5272343201
C -3.3493894698 2.5740799084 1.8959840363
C -5.6452167846 -0.5875271672 -1.4927721058
C -6.6713211831 -1.7810326051 -1.354914869
C -7.2567210636 -1.514818146 0.0809882133
C -6.4366324802 -0.234675089 0.5087856591
O -6.28970285 0.5205971324 -0.7529772834
H -4.0340557925 -1.9657678551 -0.7342209597
H -4.9506441731 -1.6421807982 1.4115255308
H -5.4164639652 -0.2743585225 -2.5296809891
H -7.4517591961 -1.7119897116 -2.1293415405
H -6.1776711464 -2.7622955968 -1.4374136048
H -8.3331111313 -1.2833830583 0.0413691023
H -7.1016129177 -2.3598250329 0.7705672889
H -6.9138767229 0.3936582981 1.2855509584
O 2.7964028266 -1.0203623662 0.5192518267
C 5.9394477914 -2.8937520748 1.8541141841
C 5.8622517496 1.1354459012 0.4936532998
C 6.4642062797 2.3245644335 -0.3523015019
C 5.1633322736 2.8852192294 -1.0389347512
C 4.0463371801 1.9940119966 -0.3631376299
O 4.5821982241 1.6974475802 0.9851989185
H 6.1351415319 -0.0175251275 -1.3818849694
H 3.9588699988 0.5943405595 -2.1365032526
H 6.4805429001 -3.6172951077 1.2103446716
H 6.4805367733 0.7758137658 1.3378300208
H 6.9215984209 3.0746726294 0.3125555036
H 7.2199188394 1.9847700672 -1.0786282942
H 5.0039763862 3.9493234095 -0.8033364134
H 5.1758711614 2.7650978407 -2.1342325803
H 3.0472509687 2.4667889609 -0.2923482464
H 4.8879763554 -3.2310664312 1.9574392335
H 6.4173769901 -2.8549332495 2.8502459397
H -3.2432395412 3.4810815194 1.2729996209
H -2.3472769651 2.2273477354 2.2218753518
H -3.9506737178 2.808913721 2.7979766286
H -0.8385494783 1.0795690075 -0.8969161478
H -0.7690348709 0.140478482 -2.4273154515
H 0.4464044352 -0.8161579845 0.2977319644
H 0.5573008878 -1.6996289874 -1.265927716
$end

$rem
JOBTYPE                   OPT
METHOD                    B3LYP
DFT_D                     d3_op
BASIS                     STO-3G
GEOM_OPT_MAX_CYCLES       100
GEOM_OPT_TOL_GRADIENT     300
GEOM_OPT_TOL_DISPLACEMENT 1200
GEOM_OPT_TOL_ENERGY       100
SYMMETRY                  False
THRESH                    12
SCF_CONVERGENCE           8
MAX_SUB_FILE_NUM          128
MEM_STATIC                400
MEM_TOTAL                 4000
$end
--------------------------------------------------------------

   16   -1510.2757378613      6.83E-09 Convergence criterion met
 Total energy in the final basis set = -1510.27573786
   13   -1510.2772515325      9.81E-09 Convergence criterion met
 Total energy in the final basis set = -1510.27725153
   13   -1510.2787284063      2.87E-09 Convergence criterion met
 Total energy in the final basis set = -1510.27872841
   13   -1510.2802165478      4.12E-09 Convergence criterion met
 Total energy in the final basis set = -1510.28021655
   13   -1510.2818123190      6.20E-09 Convergence criterion met
 Total energy in the final basis set = -1510.28181232
   13   -1510.2831413557      6.73E-09 Convergence criterion met
 Total energy in the final basis set = -1510.28314136
   13   -1510.2839790350      4.61E-09 Convergence criterion met
 Total energy in the final basis set = -1510.28397903
   13   -1510.2847599578      5.76E-09 Convergence criterion met
   11   -1510.2865252014      9.82E-09 Convergence criterion met
 Total energy in the final basis set = -1510.28652520
   12   -1510.2865136737      4.98E-09 Convergence criterion met
 Total energy in the final basis set = -1510.28651367
   10   -1510.2865157646      7.12E-09 Convergence criterion met
 Total energy in the final basis set = -1510.28651576
   10   -1510.2865114178      7.07E-09 Convergence criterion met
 Total energy in the final basis set = -1510.28651142
   10   -1510.2865090362      4.82E-09 Convergence criterion met
 Total energy in the final basis set = -1510.28650904
   10   -1510.2865140493      3.47E-09 Convergence criterion met
 Total energy in the final basis set = -1510.28651405

             Standard Nuclear Orientation (Angstroms)
    I     Atom           X                Y                Z
 ----------------------------------------------------------------
    1      O       5.5799333801    -2.5109787694    -0.1288587486
    2      C       5.1612507069    -1.4228358452     0.3224642861
    3      C       5.2719812972    -0.0174870414    -0.3794553401
    4      C       3.9200312187     0.5069102582    -1.0176231913
    5      C       2.7191221795    -0.4770894765    -0.8138219213
    6      O       1.5204198411     0.1745568147    -1.2421914696
    7      C       0.3494870952    -0.7094651556    -1.0153988710
    8      C      -0.8602654421    -0.0628115108    -1.7648924853
    9      O      -2.0630343964    -0.7668766431    -1.2607906130
   10      C      -3.2577248533    -0.0698607807    -1.6456253505
   11      C      -4.4623150689    -0.8207063205    -0.9773954093
   12      C      -4.3005146325    -0.9872193533     0.5930027601
   13      C      -3.0088714733    -0.3090533519     1.1654993392
   14      O      -2.1412683740    -0.8208268182     1.9049881912
   15      O       4.6083052685    -1.2478819620     1.6334493776
   16      O      -2.9865149812     1.0565048278     0.7250306358
   17      O      -3.2838970670     0.9249727443    -2.3979019308
   18      C      -1.8049140562     1.7538451856     1.2800755602
   19      C      -5.8056276423     0.0145627981    -1.0664133229
   20      C      -7.0124261310    -0.9612805212    -0.7799538351
   21      C      -6.8600741632    -1.1799686560     0.7717666500
   22      C      -5.6202394295    -0.2524957753     1.0931981032
   23      O      -5.7648437285     0.8710064418     0.1418619524
   24      H      -4.5661582158    -1.8081980896    -1.4639028703
   25      H      -4.2829448812    -2.0498504362     0.8913448937
   26      H      -5.8892831396     0.6364312926    -1.9789980562
   27      H      -7.9683390718    -0.4715899369    -1.0253350875
   28      H      -6.9380099437    -1.8987393633    -1.3540133004
   29      H      -7.7514535299    -0.8339793957     1.3187023567
   30      H      -6.6691938350    -2.2322648807     1.0367145003
   31      H      -5.5711976426     0.1233680428     2.1336550686
   32      O       2.7568845845    -1.6446230173    -0.3657534259
   33      C       4.4378213664    -2.5670591538     2.2805982633
   34      C       5.5800178848     1.1527806681     0.6488324136
   35      C       6.0839863128     2.4129709908    -0.1605628826
   36      C       4.7374353698     2.9300329138    -0.7901004344
   37      C       3.7124444247     1.8699642766    -0.2249931440
   38      O       4.2367015632     1.5606200691     1.1232035933
   39      H       6.0575822321    -0.1011795733    -1.1509735797
   40      H       4.0290196948     0.6929469759    -2.1021818976
   41      H       5.3977844482    -3.1187858123     2.3484468231
   42      H       6.2163490197     0.8548471772     1.5039167759
   43      H       6.5221606850     3.1582685691     0.5221652239
   44      H       6.8351322619     2.1462965208    -0.9211739860
   45      H       4.4835232074     3.9397869794    -0.4300814346
   46      H       4.7575241980     2.9426754669    -1.8915832851
   47      H       2.6580603209     2.2043062041    -0.1731984477
   48      H       3.7085028157    -3.1926822364     1.7262442042
   49      H       4.0534316001    -2.3622526638     3.2967029287
   50      H      -1.7720432118     2.7414812318     0.7845765538
   51      H      -0.8656865994     1.2008762857     1.0780135682
   52      H      -1.8972714765     1.8946394546     2.3766247550
   53      H      -0.9173366923     1.0249572442    -1.5438765353
   54      H      -0.7570005896    -0.1845361030    -2.8652142338
   55      H       0.1182199777    -0.7804305024     0.0712760229
   56      H       0.5462058672    -1.7367423447    -1.3892340311
 ----------------------------------------------------------------

   10   -1510.2865132814      3.48E-09 Convergence criterion met
 Total energy in the final basis set = -1510.28651328
 Final energy is   -1510.28651328138
 **  OPTIMIZATION CONVERGED  **

                    Orbital Energies (a.u.)
 --------------------------------------------------------------

 Alpha MOs
 -- Occupied --
-18.943 -18.936 -18.934 -18.918 -18.889 -18.888 -18.888 -18.882
-18.874 -18.856 -10.108 -10.105 -10.100 -10.087 -10.080 -10.079
-10.065 -10.062 -10.061 -10.059 -10.058 -10.050 -10.041 -10.040
-10.038 -10.032 -10.022 -10.021 -10.021 -10.019  -1.023  -1.018
 -1.007  -0.995  -0.971  -0.970  -0.947  -0.941  -0.936  -0.921
 -0.766  -0.763  -0.732  -0.723  -0.715  -0.706  -0.699  -0.662
 -0.649  -0.617  -0.598  -0.582  -0.549  -0.545  -0.539  -0.537
 -0.518  -0.512  -0.487  -0.477  -0.466  -0.461  -0.458  -0.440
 -0.437  -0.433  -0.431  -0.414  -0.411  -0.407  -0.404  -0.400
 -0.394  -0.382  -0.372  -0.366  -0.363  -0.362  -0.356  -0.346
 -0.342  -0.338  -0.333  -0.331  -0.330  -0.327  -0.324  -0.314
 -0.310  -0.307  -0.305  -0.299  -0.295  -0.293  -0.280  -0.277
 -0.273  -0.264  -0.257  -0.252  -0.240  -0.235  -0.234  -0.187
 -0.182  -0.177  -0.162  -0.161  -0.160  -0.151  -0.145  -0.144
 -0.137

          Ground-State Mulliken Net Atomic Charges

     Atom                 Charge (a.u.)
  ----------------------------------------
      1 O                    -0.220257
      2 C                     0.213175
      3 C                    -0.081635
      4 C                    -0.078172
      5 C                     0.215192
      6 O                    -0.174696
      7 C                    -0.047940
      8 C                    -0.046399
      9 O                    -0.177931
     10 C                     0.217370
     11 C                    -0.078151
     12 C                    -0.078531
     13 C                     0.211416
     14 O                    -0.215182
     15 O                    -0.170515
     16 O                    -0.169039
     17 O                    -0.208163
     18 C                    -0.129077
     19 C                     0.024758
     20 C                    -0.143745
     21 C                    -0.144016
     22 C                     0.025988
     23 O                    -0.185564
     24 H                     0.085083
     25 H                     0.085705
     26 H                     0.090262
     27 H                     0.078475
     28 H                     0.073205
     29 H                     0.078317
     30 H                     0.073974
     31 H                     0.082795
     32 O                    -0.204455
     33 C                    -0.127659
     34 C                     0.026727
     35 C                    -0.144433
     36 C                    -0.143745
     37 C                     0.024886
     38 O                    -0.187113
     39 H                     0.082916
     40 H                     0.086241
     41 H                     0.085650
     42 H                     0.086302
     43 H                     0.077751
     44 H                     0.073694
     45 H                     0.077868
     46 H                     0.073360
     47 H                     0.085727
     48 H                     0.092111
     49 H                     0.087517
     50 H                     0.092130
     51 H                     0.087661
     52 H                     0.088212
     53 H                     0.093967
     54 H                     0.087990
     55 H                     0.094434
     56 H                     0.095561
  ----------------------------------------
  Sum of atomic charges =    -0.000000

                    Cartesian Multipole Moments
 -----------------------------------------------------------------
    Charge (ESU x 10^10)
                 0.0000
    Dipole Moment (Debye)
         X      -0.8700      Y       0.4709      Z      -0.8172
       Tot       1.2831
    Quadrupole Moments (Debye-Ang)
        XX    -150.6737     XY      21.2356     YY    -162.6148
        XZ      -3.7391     YZ       0.0517     ZZ    -158.5489

 Total job time:  72.44s(wall), 3447.34s(cpu)
        *  Thank you very much for using Q-Chem.  Have a nice day.  *
