 Q-Chem 5.0, Q-Chem, Inc., Pleasanton, CA (2017)
 Q-Chem 5.0.1 for Intel X86 EM64T Linux

User input:
--------------------------------------------------------------
$molecule
0  1
O -3.94934 -3.66094 2.70899
C -3.26408 -4.56952 2.26188
C -3.36658 -6.02376 2.66595
C -4.76316 -6.66581 2.63152
C -5.87303 -5.83425 2.02755
O -7.08386 -6.3958 2.31733
C -8.19199 -5.58656 1.90938
C -9.46754 -6.42188 1.87279
O -10.56692 -5.6168 1.41883
C -11.68678 -6.29985 1.07458
C -12.82256 -5.39593 0.65794
C -13.01873 -5.26018 -0.85909
C -12.31193 -6.29448 -1.71194
O -11.66844 -6.05857 -2.72428
O -2.40535 -4.27362 1.24884
O -12.51048 -7.60024 -1.38279
O -11.81624 -7.50932 1.22626
C -11.95698 -8.67011 -2.05458
C -14.21962 -5.89005 1.08607
C -15.18707 -4.70779 1.14523
C -15.34517 -4.39777 -0.33041
C -14.53177 -5.54535 -0.94064
O -14.69874 -6.60293 -0.02612
H -12.64726 -4.40396 1.13516
H -12.75525 -4.25365 -1.25302
H -14.21444 -6.43461 2.05549
H -16.15539 -5.09982 1.53135
H -14.86246 -3.85314 1.77701
H -16.42168 -4.49305 -0.59499
H -14.95849 -3.40676 -0.65292
H -14.86281 -5.74762 -1.98355
O -5.72618 -4.88064 1.27209
C -2.22051 -3.0117 0.72352
C -2.60037 -6.99871 1.7445
C -2.30853 -8.30684 2.4828
C -3.68408 -8.93812 2.49829
C -4.48457 -7.88265 1.73377
O -3.56266 -7.38435 0.79321
H -2.94538 -6.06654 3.69522
H -5.09145 -6.94876 3.6579
H -1.85507 -2.31908 1.51158
H -1.64906 -6.58618 1.34528
H -1.64539 -8.92674 1.83787
H -1.83441 -8.17218 3.47882
H -3.64756 -9.8764 1.9006
H -4.10047 -9.14975 3.50686
H -5.41415 -8.3308 1.31822
H -3.17406 -2.63016 0.29977
H -1.46454 -3.0623 -0.08666
H -12.28526 -9.6123 -1.56995
H -10.84811 -8.61403 -2.01169
H -12.29363 -8.67488 -3.11315
H -9.28154 -7.25684 1.15787
H -9.68978 -6.84192 2.87835
H -8.05875 -5.21877 0.86516
H -8.30538 -4.71834 2.59522
$end

$opt
CONSTRAINT
tors           1           2           3           4     +51.150
tors           3           4           5           6    -167.143
tors           4           5           6           7    +173.356
tors           5           6           7           8    +163.141
tors           6           7           8           9    -178.026
tors           7           8           9          10    +166.701
tors           8           9          10          11    +177.753
tors           9          10          11          12    +100.172
tors          11          12          13          14    -134.622
ENDCONSTRAINT
$end

$rem
JOBTYPE                   OPT
METHOD                    B3LYP
DFT_D                     d3_op
BASIS                     STO-3G
GEOM_OPT_MAX_CYCLES       100
GEOM_OPT_TOL_GRADIENT     300
GEOM_OPT_TOL_DISPLACEMENT 1200
GEOM_OPT_TOL_ENERGY       100
SYMMETRY                  False
THRESH                    12
SCF_CONVERGENCE           8
MAX_SUB_FILE_NUM          128
MEM_STATIC                400
MEM_TOTAL                 4000
$end
--------------------------------------------------------------

   15   -1510.1499823553      8.09E-09 Convergence criterion met
 Total energy in the final basis set = -1510.14998236
   13   -1510.2191269834      4.83E-09 Convergence criterion met
 Total energy in the final basis set = -1510.21912698
   13   -1510.2557224155      7.04E-09 Convergence criterion met
 Total energy in the final basis set = -1510.25572242
   13   -1510.2701314778      6.99E-09 Convergence criterion met
 Total energy in the final basis set = -1510.27013148
   13   -1510.2732394701      5.10E-09 Convergence criterion met
 Total energy in the final basis set = -1510.27323947
   13   -1510.2741599244      2.08E-09 Convergence criterion met
 Total energy in the final basis set = -1510.27415992
   12   -1510.2746446094      8.21E-09 Convergence criterion met
 Total energy in the final basis set = -1510.27464461
   12   -1510.2748690884      5.50E-09 Convergence criterion met
   11   -1510.2756764185      3.95E-09 Convergence criterion met
 Total energy in the final basis set = -1510.27567642
   10   -1510.2756847533      8.20E-09 Convergence criterion met
 Total energy in the final basis set = -1510.27568475
   10   -1510.2756956984      7.61E-09 Convergence criterion met
 Total energy in the final basis set = -1510.27569570
   10   -1510.2757089832      8.16E-09 Convergence criterion met
 Total energy in the final basis set = -1510.27570898
   10   -1510.2757192813      8.19E-09 Convergence criterion met
 Total energy in the final basis set = -1510.27571928
   10   -1510.2757255544      5.28E-09 Convergence criterion met
 Total energy in the final basis set = -1510.27572555

             Standard Nuclear Orientation (Angstroms)
    I     Atom           X                Y                Z
 ----------------------------------------------------------------
    1      O       4.8857035509    -2.4647247998    -0.5428245825
    2      C       5.3788918905    -1.4688717829     0.0301392872
    3      C       5.4292476824     0.0006505933    -0.5302390111
    4      C       4.0344377661     0.5516991242    -1.0359091938
    5      C       2.8102327393    -0.2378687304    -0.4549448332
    6      O       1.6479000145     0.1420416061    -1.2024428902
    7      C       0.4840540400    -0.6898085845    -0.8058751786
    8      C      -0.7912069045     0.0523893814    -1.3187985773
    9      O      -1.9574580534    -0.7540160519    -0.8804231541
   10      C      -3.1672055213     0.0052860328    -1.0365432135
   11      C      -4.3629947914    -0.9183934718    -0.6131473445
   12      C      -4.9470460985    -0.6907964888     0.8504805356
   13      C      -4.2140320627     0.3541305030     1.7592180964
   14      O      -3.9037911934     0.1964595951     2.9613145660
   15      O       6.0131034405    -1.5181171229     1.3115903633
   16      O      -4.0203432148     1.5712511372     1.0380005459
   17      O      -3.2039909325     1.1528694562    -1.5272343201
   18      C      -3.3493894698     2.5740799084     1.8959840363
   19      C      -5.6452167846    -0.5875271672    -1.4927721058
   20      C      -6.6713211831    -1.7810326051    -1.3549148690
   21      C      -7.2567210636    -1.5148181460     0.0809882133
   22      C      -6.4366324802    -0.2346750890     0.5087856591
   23      O      -6.2897028500     0.5205971324    -0.7529772834
   24      H      -4.0340557925    -1.9657678551    -0.7342209597
   25      H      -4.9506441731    -1.6421807982     1.4115255308
   26      H      -5.4164639652    -0.2743585225    -2.5296809891
   27      H      -7.4517591961    -1.7119897116    -2.1293415405
   28      H      -6.1776711464    -2.7622955968    -1.4374136048
   29      H      -8.3331111313    -1.2833830583     0.0413691023
   30      H      -7.1016129177    -2.3598250329     0.7705672889
   31      H      -6.9138767229     0.3936582981     1.2855509584
   32      O       2.7964028266    -1.0203623662     0.5192518267
   33      C       5.9394477914    -2.8937520748     1.8541141841
   34      C       5.8622517496     1.1354459012     0.4936532998
   35      C       6.4642062797     2.3245644335    -0.3523015019
   36      C       5.1633322736     2.8852192294    -1.0389347512
   37      C       4.0463371801     1.9940119966    -0.3631376299
   38      O       4.5821982241     1.6974475802     0.9851989185
   39      H       6.1351415319    -0.0175251275    -1.3818849694
   40      H       3.9588699988     0.5943405595    -2.1365032526
   41      H       6.4805429001    -3.6172951077     1.2103446716
   42      H       6.4805367733     0.7758137658     1.3378300208
   43      H       6.9215984209     3.0746726294     0.3125555036
   44      H       7.2199188394     1.9847700672    -1.0786282942
   45      H       5.0039763862     3.9493234095    -0.8033364134
   46      H       5.1758711614     2.7650978407    -2.1342325803
   47      H       3.0472509687     2.4667889609    -0.2923482464
   48      H       4.8879763554    -3.2310664312     1.9574392335
   49      H       6.4173769901    -2.8549332495     2.8502459397
   50      H      -3.2432395412     3.4810815194     1.2729996209
   51      H      -2.3472769651     2.2273477354     2.2218753518
   52      H      -3.9506737178     2.8089137210     2.7979766286
   53      H      -0.8385494783     1.0795690075    -0.8969161478
   54      H      -0.7690348709     0.1404784820    -2.4273154515
   55      H       0.4464044352    -0.8161579845     0.2977319644
   56      H       0.5573008878    -1.6996289874    -1.2659277160
 ----------------------------------------------------------------

    9   -1510.2757258964      7.24E-09 Convergence criterion met
 Total energy in the final basis set = -1510.27572590
 Final energy is   -1510.27572589639
 **  OPTIMIZATION CONVERGED  **

                    Orbital Energies (a.u.)
 --------------------------------------------------------------

 Alpha MOs
 -- Occupied --
-18.935 -18.934 -18.931 -18.929 -18.890 -18.886 -18.880 -18.876
-18.871 -18.864 -10.101 -10.098 -10.097 -10.095 -10.075 -10.074
-10.062 -10.061 -10.061 -10.060 -10.059 -10.056 -10.039 -10.038
-10.037 -10.035 -10.021 -10.021 -10.020 -10.019  -1.015  -1.012
 -1.007  -1.003  -0.971  -0.970  -0.941  -0.935  -0.932  -0.928
 -0.763  -0.762  -0.729  -0.722  -0.714  -0.706  -0.698  -0.659
 -0.656  -0.616  -0.597  -0.578  -0.546  -0.544  -0.538  -0.537
 -0.517  -0.511  -0.484  -0.472  -0.462  -0.459  -0.451  -0.446
 -0.439  -0.434  -0.432  -0.412  -0.410  -0.408  -0.406  -0.401
 -0.392  -0.376  -0.371  -0.369  -0.359  -0.357  -0.355  -0.348
 -0.342  -0.340  -0.334  -0.332  -0.327  -0.327  -0.320  -0.311
 -0.307  -0.307  -0.303  -0.301  -0.297  -0.285  -0.283  -0.277
 -0.273  -0.259  -0.253  -0.246  -0.245  -0.235  -0.233  -0.182
 -0.179  -0.172  -0.170  -0.157  -0.153  -0.149  -0.147  -0.144
 -0.141

          Ground-State Mulliken Net Atomic Charges

     Atom                 Charge (a.u.)
  ----------------------------------------
      1 O                    -0.218560
      2 C                     0.214349
      3 C                    -0.080460
      4 C                    -0.077198
      5 C                     0.214127
      6 O                    -0.176370
      7 C                    -0.047757
      8 C                    -0.047133
      9 O                    -0.176258
     10 C                     0.210190
     11 C                    -0.079012
     12 C                    -0.079232
     13 C                     0.203861
     14 O                    -0.215283
     15 O                    -0.169853
     16 O                    -0.163127
     17 O                    -0.203826
     18 C                    -0.127401
     19 C                     0.026809
     20 C                    -0.144488
     21 C                    -0.143492
     22 C                     0.026628
     23 O                    -0.183401
     24 H                     0.085995
     25 H                     0.085343
     26 H                     0.085680
     27 H                     0.078223
     28 H                     0.073681
     29 H                     0.078353
     30 H                     0.074470
     31 H                     0.083475
     32 O                    -0.206518
     33 C                    -0.127127
     34 C                     0.023318
     35 C                    -0.142865
     36 C                    -0.144792
     37 C                     0.024877
     38 O                    -0.190575
     39 H                     0.082197
     40 H                     0.087374
     41 H                     0.086635
     42 H                     0.094055
     43 H                     0.077804
     44 H                     0.072881
     45 H                     0.078195
     46 H                     0.073775
     47 H                     0.083346
     48 H                     0.094158
     49 H                     0.089220
     50 H                     0.094068
     51 H                     0.087300
     52 H                     0.089179
     53 H                     0.092679
     54 H                     0.087217
     55 H                     0.096930
     56 H                     0.088339
  ----------------------------------------
  Sum of atomic charges =    -0.000000

                    Cartesian Multipole Moments
 -----------------------------------------------------------------
    Charge (ESU x 10^10)
                -0.0000
    Dipole Moment (Debye)
         X       0.8218      Y      -0.4265      Z      -1.2441
       Tot       1.5508
    Quadrupole Moments (Debye-Ang)
        XX    -143.0631     XY      13.1574     YY    -156.2704
        XZ      -4.4449     YZ       0.7670     ZZ    -162.8088

 Total job time:  60.72s(wall), 2883.84s(cpu)
        *  Thank you very much for using Q-Chem.  Have a nice day.  *
