 Q-Chem 5.0, Q-Chem, Inc., Pleasanton, CA (2017)
 Q-Chem 5.0.1 for Intel X86 EM64T Linux

User input:
--------------------------------------------------------------
$molecule
0  1
O -3.94934 -3.66094 2.70899
C -3.26408 -4.56952 2.26188
C -3.36658 -6.02376 2.66595
C -4.74113 -6.69756 2.52287
C -5.81663 -5.89435 1.82556
O -7.00206 -6.57143 1.86747
C -8.11812 -5.77934 1.44765
C -9.38103 -6.63321 1.40169
O -10.47147 -5.86585 0.86786
C -10.50054 -5.75586 -0.48351
C -11.66854 -4.93879 -0.98233
C -11.33195 -3.48673 -1.35177
C -9.85857 -3.17021 -1.51203
O -9.37662 -2.04808 -1.56762
O -2.38158 -4.26811 1.27111
O -9.04891 -4.16686 -1.96311
O -9.88853 -6.52423 -1.21893
C -7.71141 -4.02569 -2.27516
C -12.25243 -5.43204 -2.32714
C -13.69846 -4.95702 -2.46796
C -13.48788 -3.47228 -2.68279
C -11.95762 -3.4218 -2.75619
O -11.59749 -4.66553 -3.30616
H -12.48097 -5.01241 -0.22305
H -11.7585 -2.74689 -0.63947
H -12.20209 -6.53572 -2.45275
H -14.09195 -5.39949 -3.41141
H -14.37852 -5.22356 -1.63056
H -13.94323 -3.19085 -3.65816
H -13.87598 -2.81488 -1.87471
H -11.62396 -2.52469 -3.32383
O -5.68936 -4.80429 1.28317
C -2.18915 -3.00432 0.75312
C -2.51111 -6.98559 1.80996
C -2.24058 -8.28011 2.57922
C -3.5989 -8.94363 2.50683
C -4.36547 -7.91945 1.66799
O -3.38889 -7.40592 0.79366
H -3.01671 -6.05767 3.72196
H -5.1503 -6.97113 3.5219
H -1.84599 -2.31174 1.55114
H -1.54364 -6.55128 1.47801
H -1.52144 -8.88731 1.98404
H -1.83693 -8.13052 3.60373
H -3.49704 -9.89237 1.93382
H -4.08433 -9.14443 3.48636
H -5.24692 -8.39909 1.18842
H -3.1338 -2.62604 0.30698
H -1.41355 -3.05012 -0.03857
H -7.3098 -5.00647 -2.60244
H -7.14439 -3.68781 -1.3814
H -7.58449 -3.2934 -3.10068
H -9.22573 -7.57955 0.83594
H -9.62646 -6.92246 2.44539
H -7.93351 -5.41446 0.41277
H -8.27057 -4.90751 2.12311
$end

$opt
CONSTRAINT
tors           1           2           3           4     +55.983
tors           3           4           5           6    -175.172
tors           4           5           6           7    +169.310
tors           5           6           7           8    +174.969
tors           6           7           8           9    -174.929
tors           7           8           9          10     +80.223
tors           8           9          10          11    -180.000
tors           9          10          11          12    +100.172
tors          11          12          13          14    -166.328
ENDCONSTRAINT
$end

$rem
JOBTYPE                   OPT
METHOD                    B3LYP
DFT_D                     d3_op
BASIS                     STO-3G
GEOM_OPT_MAX_CYCLES       100
GEOM_OPT_TOL_GRADIENT     300
GEOM_OPT_TOL_DISPLACEMENT 1200
GEOM_OPT_TOL_ENERGY       100
SYMMETRY                  False
THRESH                    12
SCF_CONVERGENCE           8
MAX_SUB_FILE_NUM          128
MEM_STATIC                400
MEM_TOTAL                 4000
$end
--------------------------------------------------------------

   15   -1510.1414488067      8.88E-09 Convergence criterion met
 Total energy in the final basis set = -1510.14144881
   13   -1510.2121936413      7.61E-09 Convergence criterion met
 Total energy in the final basis set = -1510.21219364
   14   -1510.2502714068      4.13E-09 Convergence criterion met
 Total energy in the final basis set = -1510.25027141
   14   -1510.2666496591      3.15E-09 Convergence criterion met
 Total energy in the final basis set = -1510.26664966
   13   -1510.2720901468      9.44E-09 Convergence criterion met
 Total energy in the final basis set = -1510.27209015
   13   -1510.2743786045      7.06E-09 Convergence criterion met
 Total energy in the final basis set = -1510.27437860
   13   -1510.2755663296      4.03E-09 Convergence criterion met
 Total energy in the final basis set = -1510.27556633
   13   -1510.2763003772      7.08E-09 Convergence criterion met
   10   -1510.2800965298      8.67E-09 Convergence criterion met
 Total energy in the final basis set = -1510.28009653
   11   -1510.2801045587      7.64E-09 Convergence criterion met
 Total energy in the final basis set = -1510.28010456
   12   -1510.2800976287      8.34E-09 Convergence criterion met
 Total energy in the final basis set = -1510.28009763
   12   -1510.2801135180      3.00E-09 Convergence criterion met
 Total energy in the final basis set = -1510.28011352
    9   -1510.2801169630      8.05E-09 Convergence criterion met
 Total energy in the final basis set = -1510.28011696
   10   -1510.2801198149      9.12E-09 Convergence criterion met
 Total energy in the final basis set = -1510.28011981

             Standard Nuclear Orientation (Angstroms)
    I     Atom           X                Y                Z
 ----------------------------------------------------------------
    1      O      -3.8000538020    -1.7983700133     1.7658452714
    2      C      -4.2262881870    -1.4428627660     0.6451579681
    3      C      -4.7605590901    -0.0111571873     0.2672506661
    4      C      -3.7275194732     1.1501288950     0.5533668021
    5      C      -2.2499231214     0.6251354929     0.5805101659
    6      O      -1.3748929776     1.6890484038     0.9522121601
    7      C      -0.0278222240     1.1274684372     1.2263528080
    8      C       0.9879798538     2.2808809465     1.5126438193
    9      O       2.3287935648     1.6598101418     1.6537610929
   10      C       2.8796940478     1.3943135559     0.3492592435
   11      C       4.2885336157     0.7420942749     0.5450957474
   12      C       4.3749267662    -0.8380711306     0.3960191843
   13      C       3.0838606047    -1.7215721952     0.2363701002
   14      O       3.0974567523    -2.9675119467     0.3666718638
   15      O      -4.3246501200    -2.3114750539    -0.4878473083
   16      O       1.9097479854    -0.9772829926    -0.0946551294
   17      O       2.3476143087     1.7601410656    -0.7198977433
   18      C       0.7770507681    -1.9100344448    -0.3523914112
   19      C       5.2445423629     1.1992933912    -0.6398043205
   20      C       6.7401603782     0.8883657836    -0.2384743105
   21      C       6.7963522248    -0.6688763539    -0.4561950173
   22      C       5.3086310111    -0.9639712080    -0.8961598568
   23      O       4.9482145599     0.2172571020    -1.7068544337
   24      H       4.6706042672     1.0511138339     1.5340677152
   25      H       4.9048202479    -1.2583731068     1.2702266632
   26      H       5.0529564666     2.2275348103    -1.0024325034
   27      H       7.4383283843     1.4174233328    -0.9062123772
   28      H       6.9554152950     1.1803933116     0.8016824202
   29      H       7.4946142056    -0.9388408226    -1.2645811396
   30      H       7.0794777004    -1.2196977464     0.4546404226
   31      H       5.1637638165    -1.8972284621    -1.4748093173
   32      O      -1.8681711291    -0.5307119723     0.2770152526
   33      C      -3.7658562025    -3.6396261283    -0.1483705820
   34      C      -5.1179310441     0.2541412384    -1.2581523677
   35      C      -6.2088003975     1.3936547014    -1.2839603369
   36      C      -5.3475948863     2.6326723125    -0.8342090924
   37      C      -3.8982441152     2.0035180691    -0.7801839839
   38      O      -3.9234305179     0.9372446488    -1.8094890378
   39      H      -5.6604344002     0.1511464781     0.8901946182
   40      H      -3.9467389772     1.7225123743     1.4717739451
   41      H      -4.2983819473    -4.1034587535     0.7071096230
   42      H      -5.3495240222    -0.6584395872    -1.8395318395
   43      H      -6.5997602355     1.5264964962    -2.3054832391
   44      H      -7.0515442112     1.1863256405    -0.6054589268
   45      H      -5.3868994084     3.4475393212    -1.5744077930
   46      H      -5.6579508716     3.0315379987     0.1451045934
   47      H      -3.0680930375     2.7116378957    -0.9693584922
   48      H      -2.6881218907    -3.5683471367     0.1040118633
   49      H      -3.8953857737    -4.2655796220    -1.0504366927
   50      H      -0.1707122964    -1.3771091749    -0.1130772520
   51      H       0.8824164915    -2.8199292714     0.2696330502
   52      H       0.7780211449    -2.2094745343    -1.4197053713
   53      H       0.9730033684     3.0136986435     0.6777368413
   54      H       0.7724498462     2.7915678706     2.4718568568
   55      H       0.3503799737     0.5636115577     0.3501610294
   56      H      -0.0705577511     0.4323437743     2.0922224995
 ----------------------------------------------------------------

    9   -1510.2801207198      1.53E-09 Convergence criterion met
 Total energy in the final basis set = -1510.28012072
 Final energy is   -1510.28012071982
 **  OPTIMIZATION CONVERGED  **

                    Orbital Energies (a.u.)
 --------------------------------------------------------------

 Alpha MOs
 -- Occupied --
-18.944 -18.932 -18.930 -18.928 -18.891 -18.889 -18.887 -18.873
-18.866 -18.861 -10.111 -10.098 -10.096 -10.094 -10.074 -10.069
-10.062 -10.059 -10.059 -10.058 -10.057 -10.043 -10.040 -10.038
-10.037 -10.035 -10.022 -10.020 -10.020 -10.019  -1.023  -1.011
 -1.004  -1.003  -0.971  -0.971  -0.947  -0.934  -0.929  -0.927
 -0.764  -0.762  -0.729  -0.722  -0.712  -0.706  -0.697  -0.656
 -0.650  -0.618  -0.598  -0.581  -0.546  -0.542  -0.538  -0.537
 -0.516  -0.510  -0.483  -0.476  -0.463  -0.462  -0.452  -0.446
 -0.438  -0.434  -0.429  -0.413  -0.407  -0.405  -0.403  -0.399
 -0.388  -0.383  -0.370  -0.368  -0.366  -0.362  -0.349  -0.343
 -0.340  -0.335  -0.333  -0.330  -0.330  -0.324  -0.322  -0.312
 -0.310  -0.306  -0.306  -0.301  -0.297  -0.289  -0.282  -0.278
 -0.268  -0.262  -0.252  -0.246  -0.238  -0.234  -0.234  -0.186
 -0.177  -0.171  -0.170  -0.161  -0.154  -0.149  -0.146  -0.144
 -0.141

          Ground-State Mulliken Net Atomic Charges

     Atom                 Charge (a.u.)
  ----------------------------------------
      1 O                    -0.222475
      2 C                     0.214662
      3 C                    -0.080943
      4 C                    -0.076317
      5 C                     0.222204
      6 O                    -0.170800
      7 C                    -0.054930
      8 C                    -0.049362
      9 O                    -0.173778
     10 C                     0.214915
     11 C                    -0.080611
     12 C                    -0.078819
     13 C                     0.206575
     14 O                    -0.218850
     15 O                    -0.170038
     16 O                    -0.172883
     17 O                    -0.209209
     18 C                    -0.147773
     19 C                     0.026827
     20 C                    -0.144850
     21 C                    -0.143205
     22 C                     0.026209
     23 O                    -0.185866
     24 H                     0.085542
     25 H                     0.085518
     26 H                     0.085655
     27 H                     0.078249
     28 H                     0.073368
     29 H                     0.078494
     30 H                     0.074510
     31 H                     0.085592
     32 O                    -0.208164
     33 C                    -0.126979
     34 C                     0.023305
     35 C                    -0.142473
     36 C                    -0.144904
     37 C                     0.024492
     38 O                    -0.190350
     39 H                     0.082047
     40 H                     0.088502
     41 H                     0.087524
     42 H                     0.094074
     43 H                     0.078192
     44 H                     0.073100
     45 H                     0.078873
     46 H                     0.073697
     47 H                     0.086265
     48 H                     0.092035
     49 H                     0.088999
     50 H                     0.111047
     51 H                     0.092047
     52 H                     0.082063
     53 H                     0.096963
     54 H                     0.089392
     55 H                     0.106294
     56 H                     0.086347
  ----------------------------------------
  Sum of atomic charges =    -0.000000

                    Cartesian Multipole Moments
 -----------------------------------------------------------------
    Charge (ESU x 10^10)
                -0.0000
    Dipole Moment (Debye)
         X      -0.6999      Y       1.6247      Z       1.7748
       Tot       2.5058
    Quadrupole Moments (Debye-Ang)
        XX    -134.2201     XY      -0.3532     YY    -156.3301
        XZ       5.2783     YZ       6.4146     ZZ    -166.8577

 Total job time:  86.25s(wall), 4106.03s(cpu)
        *  Thank you very much for using Q-Chem.  Have a nice day.  *
