 Q-Chem 5.0, Q-Chem, Inc., Pleasanton, CA (2017)
 Q-Chem 5.0.1 for Intel X86 EM64T Linux

User input:
--------------------------------------------------------------
$molecule
0  1
O -3.800053802 -1.7983700133 1.7658452714
C -4.226288187 -1.442862766 0.6451579681
C -4.7605590901 -0.0111571873 0.2672506661
C -3.7275194732 1.150128895 0.5533668021
C -2.2499231214 0.6251354929 0.5805101659
O -1.3748929776 1.6890484038 0.9522121601
C -0.027822224 1.1274684372 1.226352808
C 0.9879798538 2.2808809465 1.5126438193
O 2.3287935648 1.6598101418 1.6537610929
C 2.8796940478 1.3943135559 0.3492592435
C 4.2885336157 0.7420942749 0.5450957474
C 4.3749267662 -0.8380711306 0.3960191843
C 3.0838606047 -1.7215721952 0.2363701002
O 3.0974567523 -2.9675119467 0.3666718638
O -4.32465012 -2.3114750539 -0.4878473083
O 1.9097479854 -0.9772829926 -0.0946551294
O 2.3476143087 1.7601410656 -0.7198977433
C 0.7770507681 -1.9100344448 -0.3523914112
C 5.2445423629 1.1992933912 -0.6398043205
C 6.7401603782 0.8883657836 -0.2384743105
C 6.7963522248 -0.6688763539 -0.4561950173
C 5.3086310111 -0.963971208 -0.8961598568
O 4.9482145599 0.217257102 -1.7068544337
H 4.6706042672 1.0511138339 1.5340677152
H 4.9048202479 -1.2583731068 1.2702266632
H 5.0529564666 2.2275348103 -1.0024325034
H 7.4383283843 1.4174233328 -0.9062123772
H 6.955415295 1.1803933116 0.8016824202
H 7.4946142056 -0.9388408226 -1.2645811396
H 7.0794777004 -1.2196977464 0.4546404226
H 5.1637638165 -1.8972284621 -1.4748093173
O -1.8681711291 -0.5307119723 0.2770152526
C -3.7658562025 -3.6396261283 -0.148370582
C -5.1179310441 0.2541412384 -1.2581523677
C -6.2088003975 1.3936547014 -1.2839603369
C -5.3475948863 2.6326723125 -0.8342090924
C -3.8982441152 2.0035180691 -0.7801839839
O -3.9234305179 0.9372446488 -1.8094890378
H -5.6604344002 0.1511464781 0.8901946182
H -3.9467389772 1.7225123743 1.4717739451
H -4.2983819473 -4.1034587535 0.707109623
H -5.3495240222 -0.6584395872 -1.8395318395
H -6.5997602355 1.5264964962 -2.3054832391
H -7.0515442112 1.1863256405 -0.6054589268
H -5.3868994084 3.4475393212 -1.574407793
H -5.6579508716 3.0315379987 0.1451045934
H -3.0680930375 2.7116378957 -0.9693584922
H -2.6881218907 -3.5683471367 0.1040118633
H -3.8953857737 -4.265579622 -1.0504366927
H -0.1707122964 -1.3771091749 -0.113077252
H 0.8824164915 -2.8199292714 0.2696330502
H 0.7780211449 -2.2094745343 -1.4197053713
H 0.9730033684 3.0136986435 0.6777368413
H 0.7724498462 2.7915678706 2.4718568568
H 0.3503799737 0.5636115577 0.3501610294
H -0.0705577511 0.4323437743 2.0922224995
$end

$rem
JOBTYPE                   OPT
METHOD                    B3LYP
DFT_D                     d3_op
BASIS                     STO-3G
GEOM_OPT_MAX_CYCLES       100
GEOM_OPT_TOL_GRADIENT     300
GEOM_OPT_TOL_DISPLACEMENT 1200
GEOM_OPT_TOL_ENERGY       100
SYMMETRY                  False
THRESH                    12
SCF_CONVERGENCE           8
MAX_SUB_FILE_NUM          128
MEM_STATIC                400
MEM_TOTAL                 4000
$end
--------------------------------------------------------------

   16   -1510.2801484626      6.86E-09 Convergence criterion met
 Total energy in the final basis set = -1510.28014846
   14   -1510.2737444911      3.61E-09 Convergence criterion met
 Total energy in the final basis set = -1510.27374449
   14   -1510.2815304879      3.51E-09 Convergence criterion met
 Total energy in the final basis set = -1510.28153049
   13   -1510.2822915453      5.51E-09 Convergence criterion met
 Total energy in the final basis set = -1510.28229155
   14   -1510.2822280597      2.26E-09 Convergence criterion met
 Total energy in the final basis set = -1510.28222806
   13   -1510.2836014201      3.43E-09 Convergence criterion met
 Total energy in the final basis set = -1510.28360142
   13   -1510.2844995029      4.73E-09 Convergence criterion met
 Total energy in the final basis set = -1510.28449950
   14   -1510.2851767587      1.85E-09 Convergence criterion met
   12   -1510.2890600944      7.37E-09 Convergence criterion met
 Total energy in the final basis set = -1510.28906009
   13   -1510.2891235944      2.11E-09 Convergence criterion met
 Total energy in the final basis set = -1510.28912359
   10   -1510.2891198444      7.26E-09 Convergence criterion met
 Total energy in the final basis set = -1510.28911984
   11   -1510.2891321691      6.02E-09 Convergence criterion met
 Total energy in the final basis set = -1510.28913217
    9   -1510.2891335882      8.25E-09 Convergence criterion met
 Total energy in the final basis set = -1510.28913359
    9   -1510.2891347236      5.63E-09 Convergence criterion met
 Total energy in the final basis set = -1510.28913472

             Standard Nuclear Orientation (Angstroms)
    I     Atom           X                Y                Z
 ----------------------------------------------------------------
    1      O      -3.9051690263    -2.7232494815     0.6526787358
    2      C      -3.9499729252    -1.7363969391    -0.1138605143
    3      C      -4.6647374059    -0.3628018027     0.1794943386
    4      C      -3.7008876462     0.7779236647     0.7102992837
    5      C      -2.2025571134     0.3364117472     0.7797785759
    6      O      -1.4136076313     1.4300073015     1.2420449220
    7      C       0.0126818962     1.0204136666     1.2953251052
    8      C       0.9120608381     2.2952987705     1.4107430399
    9      O       2.3324708275     1.8645642844     1.4065656294
   10      C       2.7460923629     1.5471701582     0.0669243191
   11      C       4.2011317128     0.9768709711     0.1319335522
   12      C       4.3155241691    -0.4280629747     0.8657408753
   13      C       2.9773764114    -1.0460867216     1.4043745762
   14      O       2.7290536262    -1.3331033419     2.5977082423
   15      O      -3.4621159188    -1.7315831779    -1.4614632001
   16      O       2.0931145250    -1.3109515891     0.3098284343
   17      O       2.0423337813     1.7324153772    -0.9480620689
   18      C       0.9598256857    -2.1698807152     0.7491902896
   19      C       4.7386466080     0.6159242283    -1.3142576348
   20      C       6.3083937451     0.4669400870    -1.2380633642
   21      C       6.4431052829    -0.9153185032    -0.4975132409
   22      C       4.9254628131    -1.3126927154    -0.3096057525
   23      O       4.2678368047    -0.7736123156    -1.5197649376
   24      H       4.8426840838     1.7225856281     0.6359370011
   25      H       5.0054605473    -0.3629192594     1.7253664250
   26      H       4.3511294674     1.2759835312    -2.1143879547
   27      H       6.7407024828     0.4267201765    -2.2504215600
   28      H       6.7784258560     1.2953022843    -0.6841178798
   29      H       6.9606254788    -1.6602308721    -1.1225975158
   30      H       6.9725630188    -0.8333656554     0.4651763874
   31      H       4.7309203502    -2.3983851119    -0.2133838417
   32      O      -1.7382889127    -0.7893039383     0.4775833972
   33      C      -2.7271490358    -2.9864170496    -1.7307350472
   34      C      -5.2455741986     0.3275409378    -1.1286961388
   35      C      -6.2985884631     1.4196611594    -0.6903626638
   36      C      -5.3523453842     2.5502345304    -0.1390565547
   37      C      -3.9313743536     1.9058042710    -0.3879565748
   38      O      -4.1076831851     1.1306258977    -1.6348836204
   39      H      -5.4602880515    -0.5625861454     0.9187526153
   40      H      -4.0012459981     1.1338979867     1.7127738066
   41      H      -3.3552112269    -3.8806992311    -1.5399236390
   42      H      -5.5922983063    -0.3817018974    -1.9044131128
   43      H      -6.8762564664     1.7671620278    -1.5614854800
   44      H      -6.9990350130     1.0394963784     0.0704136427
   45      H      -5.4579356034     3.4838280963    -0.7143970986
   46      H      -5.5263373213     2.7701815496     0.9263632620
   47      H      -3.0935485096     2.6236322395    -0.4844417001
   48      H      -1.8135574631    -3.0556707623    -1.1051588609
   49      H      -2.4417143747    -2.9517497289    -2.7982410735
   50      H      -0.0094924600    -1.6595240178     0.5511880827
   51      H       1.0587477785    -2.3786327418     1.8327032891
   52      H       1.0073236144    -3.1160997909     0.1759821140
   53      H       0.6994682355     2.9818995887     0.5636661015
   54      H       0.7480587122     2.8200539125     2.3726548094
   55      H       0.2913186534     0.4756645055     0.3699550933
   56      H       0.1922121210     0.3499713105     2.1634359146
 ----------------------------------------------------------------

    9   -1510.2891359381      3.71E-09 Convergence criterion met
 Total energy in the final basis set = -1510.28913594
 Final energy is   -1510.28913593807
 **  OPTIMIZATION CONVERGED  **

                    Orbital Energies (a.u.)
 --------------------------------------------------------------

 Alpha MOs
 -- Occupied --
-18.951 -18.938 -18.925 -18.919 -18.897 -18.888 -18.887 -18.883
-18.870 -18.856 -10.116 -10.104 -10.095 -10.089 -10.080 -10.076
-10.063 -10.060 -10.058 -10.058 -10.051 -10.044 -10.040 -10.038
-10.036 -10.033 -10.022 -10.020 -10.020 -10.019  -1.028  -1.018
 -1.004  -0.996  -0.970  -0.969  -0.952  -0.942  -0.929  -0.922
 -0.765  -0.763  -0.731  -0.723  -0.714  -0.706  -0.699  -0.650
 -0.649  -0.619  -0.598  -0.585  -0.547  -0.544  -0.538  -0.537
 -0.517  -0.510  -0.486  -0.478  -0.467  -0.463  -0.449  -0.445
 -0.435  -0.433  -0.429  -0.414  -0.408  -0.406  -0.405  -0.396
 -0.392  -0.383  -0.375  -0.367  -0.364  -0.357  -0.349  -0.344
 -0.341  -0.338  -0.335  -0.332  -0.331  -0.328  -0.324  -0.315
 -0.308  -0.307  -0.305  -0.301  -0.298  -0.287  -0.282  -0.275
 -0.273  -0.265  -0.256  -0.242  -0.239  -0.234  -0.233  -0.193
 -0.183  -0.174  -0.162  -0.161  -0.161  -0.151  -0.145  -0.143
 -0.138

          Ground-State Mulliken Net Atomic Charges

     Atom                 Charge (a.u.)
  ----------------------------------------
      1 O                    -0.222170
      2 C                     0.213667
      3 C                    -0.081635
      4 C                    -0.077652
      5 C                     0.222109
      6 O                    -0.168861
      7 C                    -0.054454
      8 C                    -0.048552
      9 O                    -0.172231
     10 C                     0.211325
     11 C                    -0.078391
     12 C                    -0.078062
     13 C                     0.204620
     14 O                    -0.217241
     15 O                    -0.169691
     16 O                    -0.172474
     17 O                    -0.207022
     18 C                    -0.152988
     19 C                     0.025009
     20 C                    -0.143982
     21 C                    -0.144238
     22 C                     0.026853
     23 O                    -0.183994
     24 H                     0.085900
     25 H                     0.085445
     26 H                     0.089680
     27 H                     0.078477
     28 H                     0.072894
     29 H                     0.078164
     30 H                     0.073684
     31 H                     0.083359
     32 O                    -0.205589
     33 C                    -0.127213
     34 C                     0.026635
     35 C                    -0.144329
     36 C                    -0.143703
     37 C                     0.025503
     38 O                    -0.186117
     39 H                     0.083034
     40 H                     0.087688
     41 H                     0.086228
     42 H                     0.088190
     43 H                     0.078192
     44 H                     0.073649
     45 H                     0.078491
     46 H                     0.073401
     47 H                     0.086431
     48 H                     0.090184
     49 H                     0.088492
     50 H                     0.106525
     51 H                     0.093028
     52 H                     0.079554
     53 H                     0.096490
     54 H                     0.092923
     55 H                     0.103955
     56 H                     0.090809
  ----------------------------------------
  Sum of atomic charges =    -0.000000

                    Cartesian Multipole Moments
 -----------------------------------------------------------------
    Charge (ESU x 10^10)
                 0.0000
    Dipole Moment (Debye)
         X       0.4114      Y       2.1018      Z       0.8969
       Tot       2.3219
    Quadrupole Moments (Debye-Ang)
        XX    -134.9640     XY      -4.3455     YY    -156.6681
        XZ      -1.6642     YZ       7.4481     ZZ    -168.5978

 Total job time:  112.14s(wall), 5344.96s(cpu)
        *  Thank you very much for using Q-Chem.  Have a nice day.  *
