 Q-Chem 5.0, Q-Chem, Inc., Pleasanton, CA (2017)
 Q-Chem 5.0.1 for Intel X86 EM64T Linux

User input:
--------------------------------------------------------------
$molecule
0  1
O -2.6816480253 -1.7852874974 1.2729326518
C -3.5721995673 -1.5860511239 0.4176345005
C -4.3418932767 -0.2449023643 0.143741577
C -3.5319159779 1.0552312534 0.5413779015
C -1.9992251663 0.7941633996 0.7408868336
O -1.5575658416 1.5432660359 1.874958612
C -0.1433767973 1.2397935336 2.2144037611
C 0.8260562094 2.2994226977 1.5675452137
O 2.1962631007 1.7529777405 1.4269476107
C 2.4733163461 1.4305520744 0.0520533964
C 3.9512993785 0.9044758843 -0.0269333664
C 4.2476013317 -0.5396630869 0.5567944119
C 3.013976352 -1.3953772208 1.0018753155
O 3.0257053947 -2.3240876487 1.8408714512
O -4.071885252 -2.5955764001 -0.4628837271
O 1.8826305454 -1.0281813847 0.2176090626
O 1.6986781476 1.6795560835 -0.8958337626
C 0.7440854165 -1.9504355425 0.4520896183
C 4.4117365758 0.729142262 -1.5362888144
C 5.9876646121 0.7854418185 -1.5778131926
C 6.351688742 -0.6089516949 -0.9440098727
C 4.9143705288 -1.2285443804 -0.7183023369
O 4.11435493 -0.6897999212 -1.8383230721
H 4.5839915712 1.6459965054 0.4944913592
H 4.9533683075 -0.4949259216 1.404931821
H 3.88024892 1.3924591007 -2.2459746886
H 6.3424622617 0.859079963 -2.6182823067
H 6.3925512388 1.6350229129 -1.005237424
H 6.9346022387 -1.2322663849 -1.6406289824
H 6.9124271123 -0.5156338569 -0.000184468
H 4.8766092758 -2.335383081 -0.7078814674
O -1.2520879044 0.131967176 -0.0126234228
C -3.353523203 -3.8699137323 -0.2285905687
C -4.6769230614 0.0430528751 -1.3835398127
C -5.9049574021 1.0334804095 -1.4200766521
C -5.2269828993 2.3625464361 -0.917876692
C -3.7171500697 1.9119612259 -0.7893893658
O -3.5529999152 0.8886200815 -1.8467050748
H -5.2802061347 -0.2920798099 0.7280328125
H -3.9389419831 1.5557758158 1.436489891
H -3.5165488272 -4.2476425398 0.8015221734
H -4.7681133922 -0.8683941315 -2.0050101106
H -6.2811704237 1.1385905814 -2.4502927294
H -6.7322045226 0.7026237431 -0.7721158857
H -5.3254935154 3.1739769905 -1.6561994665
H -5.6348560114 2.7105070596 0.0448250976
H -2.9726004403 2.7218444576 -0.9151846183
H -2.2626700985 -3.7565973009 -0.3942245691
H -3.7668414414 -4.5911070607 -0.9574946254
H -0.1690615426 -1.3570649506 0.2307661029
H 0.739389963 -2.3162100963 1.4977212903
H 0.81757592 -2.8209388248 -0.2306591932
H 0.4512787395 2.5589921445 0.5520507757
H 0.8892866812 3.211700868 2.1941405207
H 0.1370654501 0.2327128913 1.8450978359
H -0.0770965937 1.2621258309 3.3203783587
$end

$rem
JOBTYPE                   OPT
METHOD                    B3LYP
DFT_D                     d3_op
BASIS                     STO-3G
GEOM_OPT_MAX_CYCLES       100
GEOM_OPT_TOL_GRADIENT     300
GEOM_OPT_TOL_DISPLACEMENT 1200
GEOM_OPT_TOL_ENERGY       100
SYMMETRY                  False
THRESH                    12
SCF_CONVERGENCE           8
MAX_SUB_FILE_NUM          128
MEM_STATIC                400
MEM_TOTAL                 4000
$end
--------------------------------------------------------------

   16   -1510.2847252303      5.26E-09 Convergence criterion met
 Total energy in the final basis set = -1510.28472523
   14   -1510.2824996139      7.22E-09 Convergence criterion met
 Total energy in the final basis set = -1510.28249961
   13   -1510.2835341967      5.84E-09 Convergence criterion met
 Total energy in the final basis set = -1510.28353420
   14   -1510.2659246674      8.23E-09 Convergence criterion met
 Total energy in the final basis set = -1510.26592467
   14   -1510.2837868744      2.72E-09 Convergence criterion met
 Total energy in the final basis set = -1510.28378687
   13   -1510.2862340459      8.67E-09 Convergence criterion met
 Total energy in the final basis set = -1510.28623405
   13   -1510.2872881756      7.07E-09 Convergence criterion met
 Total energy in the final basis set = -1510.28728818
   13   -1510.2886141097      3.96E-09 Convergence criterion met
   12   -1510.2941750772      8.44E-09 Convergence criterion met
 Total energy in the final basis set = -1510.29417508
   13   -1510.2935753051      7.78E-09 Convergence criterion met
 Total energy in the final basis set = -1510.29357531
   13   -1510.2942306669      6.01E-09 Convergence criterion met
 Total energy in the final basis set = -1510.29423067
   13   -1510.2941107505      2.98E-09 Convergence criterion met
 Total energy in the final basis set = -1510.29411075
   12   -1510.2942499575      8.06E-09 Convergence criterion met
 Total energy in the final basis set = -1510.29424996
   11   -1510.2942464143      3.86E-09 Convergence criterion met
 Total energy in the final basis set = -1510.29424641

             Standard Nuclear Orientation (Angstroms)
    I     Atom           X                Y                Z
 ----------------------------------------------------------------
    1      O      -2.0224826856    -1.3845436328     0.3856599893
    2      C      -3.2681458638    -1.4900864027     0.4732064214
    3      C      -4.3127935165    -0.3247302244     0.4781426345
    4      C      -3.6283957379     1.0971035387     0.3457619544
    5      C      -2.0552072982     1.0462073430     0.3440402959
    6      O      -1.6267712472     1.0201315263     1.7106166720
    7      C      -0.1752514283     0.7401101244     1.8272265176
    8      C       0.7482855414     1.8899670308     1.2779619915
    9      O       2.1301561429     1.3649940675     1.3753121367
   10      C       2.9295156013     1.7550464627     0.2487693020
   11      C       4.2693391224     0.9489738894     0.3761192539
   12      C       4.0251912079    -0.6213276880     0.4013690049
   13      C       2.5214198087    -1.0181662222     0.1849311072
   14      O       1.7992982565    -1.7037772497     0.9449253373
   15      O      -3.9572139845    -2.7344670899     0.5644008487
   16      O       2.1021426702    -0.4815686657    -1.0687040421
   17      O       2.5832014330     2.5758433350    -0.6242423158
   18      C       0.7061804016    -0.8749307386    -1.3878213513
   19      C       5.2047541278     1.0984143373    -0.8930652979
   20      C       6.6548456295     0.6239724703    -0.4873687343
   21      C       6.4487926046    -0.9349842785    -0.4054265024
   22      C       4.9302978387    -1.0682098158    -0.8263879197
   23      O       4.7398254967     0.0265533399    -1.8038023883
   24      H       4.7811498642     1.2760515115     1.2996044589
   25      H       4.3611690910    -1.0705555922     1.3520853210
   26      H       5.1383456782     2.0848393878    -1.3918839505
   27      H       7.3809345328     0.8933906174    -1.2709268254
   28      H       6.9867076497     1.0614714620     0.4677007703
   29      H       7.0956626013    -1.4671055898    -1.1207894464
   30      H       6.6340861769    -1.3352226243     0.6040850386
   31      H       4.6487112585    -2.0407908320    -1.2742820197
   32      O      -1.3118589347     1.1650371427    -0.6582807129
   33      C      -2.9889822416    -3.8566694823     0.5168540324
   34      C      -5.1981023113    -0.3535802810    -0.8435344263
   35      C      -6.4106164085     0.6414359106    -0.6595759538
   36      C      -5.6967440546     2.0322819246    -0.8441060194
   37      C      -4.2002767760     1.5774851361    -1.0533499258
   38      O      -4.3280966816     0.3220889835    -1.8316662979
   39      H      -4.9362603729    -0.4062542490     1.3869240409
   40      H      -3.9480594401     1.7584118408     1.1705160958
   41      H      -2.2621733698    -3.8039412486     1.3529523690
   42      H      -5.4666732530    -1.3724980990    -1.1846393209
   43      H      -7.1703990564     0.4686485528    -1.4381069094
   44      H      -6.8860053375     0.5342980593     0.3284583855
   45      H      -6.0678084774     2.5594645828    -1.7373243984
   46      H      -5.8139215579     2.6913053976     0.0309037658
   47      H      -3.5466657960     2.2937602756    -1.5876959092
   48      H      -2.4273565657    -3.8665265823    -0.4394644421
   49      H      -3.5903978998    -4.7801046053     0.6039812229
   50      H      -0.0008547477    -0.0467640413    -1.1418225239
   51      H       0.4168333757    -1.7776831564    -0.8150314586
   52      H       0.6732610585    -1.0821449386    -2.4735959531
   53      H       0.4905544651     2.1199795117     0.2228928288
   54      H       0.6405595495     2.8119023145     1.8891401328
   55      H       0.0836606485    -0.2117922188     1.3125051300
   56      H       0.0035579768     0.6066249872     2.9130529186
 ----------------------------------------------------------------

   10   -1510.2942467839      9.74E-09 Convergence criterion met
 Total energy in the final basis set = -1510.29424678
 Final energy is   -1510.29424678392
 **  OPTIMIZATION CONVERGED  **

                    Orbital Energies (a.u.)
 --------------------------------------------------------------

 Alpha MOs
 -- Occupied --
-18.948 -18.928 -18.923 -18.918 -18.891 -18.890 -18.881 -18.873
-18.872 -18.859 -10.111 -10.103 -10.094 -10.087 -10.072 -10.064
-10.061 -10.060 -10.059 -10.054 -10.052 -10.045 -10.037 -10.031
-10.029 -10.027 -10.023 -10.021 -10.015 -10.014  -1.025  -1.008
 -1.004  -0.994  -0.973  -0.962  -0.948  -0.936  -0.931  -0.921
 -0.766  -0.757  -0.727  -0.720  -0.711  -0.700  -0.691  -0.669
 -0.640  -0.613  -0.594  -0.579  -0.547  -0.540  -0.538  -0.531
 -0.515  -0.503  -0.483  -0.468  -0.462  -0.459  -0.457  -0.437
 -0.434  -0.429  -0.424  -0.418  -0.413  -0.400  -0.397  -0.393
 -0.383  -0.381  -0.371  -0.368  -0.356  -0.352  -0.350  -0.347
 -0.340  -0.338  -0.335  -0.329  -0.324  -0.324  -0.316  -0.316
 -0.309  -0.304  -0.302  -0.299  -0.291  -0.279  -0.278  -0.275
 -0.271  -0.262  -0.252  -0.240  -0.237  -0.232  -0.227  -0.190
 -0.178  -0.169  -0.165  -0.156  -0.151  -0.148  -0.146  -0.139
 -0.136

          Ground-State Mulliken Net Atomic Charges

     Atom                 Charge (a.u.)
  ----------------------------------------
      1 O                    -0.205824
      2 C                     0.216855
      3 C                    -0.077727
      4 C                    -0.081525
      5 C                     0.224877
      6 O                    -0.175007
      7 C                    -0.053001
      8 C                    -0.058378
      9 O                    -0.180190
     10 C                     0.216431
     11 C                    -0.077572
     12 C                    -0.077556
     13 C                     0.208598
     14 O                    -0.223840
     15 O                    -0.167067
     16 O                    -0.169956
     17 O                    -0.206006
     18 C                    -0.150120
     19 C                     0.024780
     20 C                    -0.143714
     21 C                    -0.144418
     22 C                     0.026011
     23 O                    -0.184187
     24 H                     0.083452
     25 H                     0.082988
     26 H                     0.089138
     27 H                     0.077200
     28 H                     0.072027
     29 H                     0.076885
     30 H                     0.072604
     31 H                     0.081970
     32 O                    -0.219582
     33 C                    -0.128079
     34 C                     0.024862
     35 C                    -0.143885
     36 C                    -0.143781
     37 C                     0.024917
     38 O                    -0.188979
     39 H                     0.088231
     40 H                     0.085498
     41 H                     0.093912
     42 H                     0.086575
     43 H                     0.078969
     44 H                     0.073953
     45 H                     0.079031
     46 H                     0.073828
     47 H                     0.089931
     48 H                     0.092603
     49 H                     0.093234
     50 H                     0.109338
     51 H                     0.089439
     52 H                     0.081870
     53 H                     0.107845
     54 H                     0.079339
     55 H                     0.105153
     56 H                     0.088045
  ----------------------------------------
  Sum of atomic charges =     0.000000

                    Cartesian Multipole Moments
 -----------------------------------------------------------------
    Charge (ESU x 10^10)
                 0.0000
    Dipole Moment (Debye)
         X      -1.8879      Y      -1.0166      Z       2.6084
       Tot       3.3766
    Quadrupole Moments (Debye-Ang)
        XX    -133.3500     XY      -1.7749     YY    -152.5152
        XZ       2.4784     YZ       5.1751     ZZ    -166.2234

 Total job time:  83.24s(wall), 3963.67s(cpu)
        *  Thank you very much for using Q-Chem.  Have a nice day.  *
