 Q-Chem 5.0, Q-Chem, Inc., Pleasanton, CA (2017)
 Q-Chem 5.0.1 for Intel X86 EM64T Linux

User input:
--------------------------------------------------------------
$molecule
0  1
O -3.94934 -3.66094 2.70899
C -3.26408 -4.56952 2.26188
C -3.36658 -6.02376 2.66595
C -4.72561 -6.51235 3.19336
C -5.87841 -5.53833 3.09118
O -6.64075 -5.60131 4.22268
C -7.67624 -4.61356 4.25973
C -8.98639 -5.2062 3.75136
O -9.85397 -4.1564 3.29517
C -9.97316 -4.04206 1.94912
C -10.93128 -2.95109 1.53385
C -10.41269 -1.5206 1.74138
C -8.9229 -1.38664 1.98487
O -8.38044 -0.45835 2.56674
O -2.19706 -4.24152 1.48527
O -8.1164 -2.17517 1.22008
O -9.44181 -4.78943 1.13512
C -6.74723 -2.03232 1.11816
C -11.2343 -2.91719 0.01715
C -12.568 -2.21099 -0.22653
C -12.19116 -0.77971 0.09367
C -10.68729 -0.94295 0.33893
O -10.31374 -1.99861 -0.51185
H -11.88996 -3.14939 2.06442
H -10.94447 -0.95566 2.53825
H -11.2504 -3.92332 -0.45554
H -12.7809 -2.28572 -1.31729
H -13.43421 -2.61259 0.34199
H -12.37782 -0.15724 -0.80953
H -12.70393 -0.33787 0.97541
H -10.15991 0.02293 0.17289
O -6.22043 -4.99431 2.04648
C -1.90274 -2.96054 1.06688
C -3.23347 -6.94676 1.4274
C -2.80192 -8.34839 1.85983
C -4.08107 -8.85342 2.48819
C -5.00751 -7.66561 2.21432
O -4.55158 -7.15304 0.98946
H -2.5109 -6.23471 3.34522
H -4.65754 -6.89206 4.23873
H -1.72504 -2.30176 1.94363
H -2.52497 -6.56785 0.65928
H -2.60766 -8.93828 0.93529
H -1.90319 -8.38257 2.51246
H -4.42521 -9.7454 1.91854
H -4.01672 -9.09663 3.57083
H -6.07115 -7.99266 2.2407
H -2.7391 -2.55679 0.45678
H -0.98456 -2.98296 0.44487
H -6.34971 -2.80707 0.43139
H -6.272 -2.15103 2.11442
H -6.49796 -1.03207 0.7043
H -8.72605 -5.92461 2.94391
H -9.47829 -5.82498 4.53083
H -7.41777 -3.73239 3.62834
H -7.79758 -4.1975 5.28171
$end

$opt
CONSTRAINT
tors           1           2           3           4     +26.509
tors           3           4           5           6    -139.562
tors           4           5           6           7    +174.143
tors           5           6           7           8     +95.698
tors           6           7           8           9    -157.541
tors           7           8           9          10    +105.515
tors           8           9          10          11    +178.163
tors           9          10          11          12     +72.618
tors          11          12          13          14    -155.776
ENDCONSTRAINT
$end

$rem
JOBTYPE                   OPT
METHOD                    B3LYP
DFT_D                     d3_op
BASIS                     STO-3G
GEOM_OPT_MAX_CYCLES       100
GEOM_OPT_TOL_GRADIENT     300
GEOM_OPT_TOL_DISPLACEMENT 1200
GEOM_OPT_TOL_ENERGY       100
SYMMETRY                  False
THRESH                    12
SCF_CONVERGENCE           8
MAX_SUB_FILE_NUM          128
MEM_STATIC                400
MEM_TOTAL                 4000
$end
--------------------------------------------------------------

   15   -1510.1507947260      7.95E-09 Convergence criterion met
 Total energy in the final basis set = -1510.15079473
   14   -1510.2207251703      7.19E-09 Convergence criterion met
 Total energy in the final basis set = -1510.22072517
   14   -1510.2584718050      8.63E-09 Convergence criterion met
 Total energy in the final basis set = -1510.25847180
   14   -1510.2741282803      8.91E-09 Convergence criterion met
 Total energy in the final basis set = -1510.27412828
   14   -1510.2755734967      8.07E-09 Convergence criterion met
 Total energy in the final basis set = -1510.27557350
    2   -1510.2755734967      4.92E-09 Convergence criterion met
 Total energy in the final basis set = -1510.27557350
   13   -1510.2805181901      3.37E-09 Convergence criterion met
 Total energy in the final basis set = -1510.28051819
   13   -1510.2796824629      7.87E-09 Convergence criterion met
   10   -1510.2847934465      9.63E-09 Convergence criterion met
 Total energy in the final basis set = -1510.28479345
    9   -1510.2847997449      8.47E-09 Convergence criterion met
 Total energy in the final basis set = -1510.28479974
    9   -1510.2848027306      4.80E-09 Convergence criterion met
 Total energy in the final basis set = -1510.28480273
    9   -1510.2848057663      3.87E-09 Convergence criterion met
 Total energy in the final basis set = -1510.28480577
    9   -1510.2848077627      3.60E-09 Convergence criterion met
 Total energy in the final basis set = -1510.28480776
    9   -1510.2848092984      3.43E-09 Convergence criterion met
 Total energy in the final basis set = -1510.28480930

             Standard Nuclear Orientation (Angstroms)
    I     Atom           X                Y                Z
 ----------------------------------------------------------------
    1      O      -2.6816480253    -1.7852874974     1.2729326518
    2      C      -3.5721995673    -1.5860511239     0.4176345005
    3      C      -4.3418932767    -0.2449023643     0.1437415770
    4      C      -3.5319159779     1.0552312534     0.5413779015
    5      C      -1.9992251663     0.7941633996     0.7408868336
    6      O      -1.5575658416     1.5432660359     1.8749586120
    7      C      -0.1433767973     1.2397935336     2.2144037611
    8      C       0.8260562094     2.2994226977     1.5675452137
    9      O       2.1962631007     1.7529777405     1.4269476107
   10      C       2.4733163461     1.4305520744     0.0520533964
   11      C       3.9512993785     0.9044758843    -0.0269333664
   12      C       4.2476013317    -0.5396630869     0.5567944119
   13      C       3.0139763520    -1.3953772208     1.0018753155
   14      O       3.0257053947    -2.3240876487     1.8408714512
   15      O      -4.0718852520    -2.5955764001    -0.4628837271
   16      O       1.8826305454    -1.0281813847     0.2176090626
   17      O       1.6986781476     1.6795560835    -0.8958337626
   18      C       0.7440854165    -1.9504355425     0.4520896183
   19      C       4.4117365758     0.7291422620    -1.5362888144
   20      C       5.9876646121     0.7854418185    -1.5778131926
   21      C       6.3516887420    -0.6089516949    -0.9440098727
   22      C       4.9143705288    -1.2285443804    -0.7183023369
   23      O       4.1143549300    -0.6897999212    -1.8383230721
   24      H       4.5839915712     1.6459965054     0.4944913592
   25      H       4.9533683075    -0.4949259216     1.4049318210
   26      H       3.8802489200     1.3924591007    -2.2459746886
   27      H       6.3424622617     0.8590799630    -2.6182823067
   28      H       6.3925512388     1.6350229129    -1.0052374240
   29      H       6.9346022387    -1.2322663849    -1.6406289824
   30      H       6.9124271123    -0.5156338569    -0.0001844680
   31      H       4.8766092758    -2.3353830810    -0.7078814674
   32      O      -1.2520879044     0.1319671760    -0.0126234228
   33      C      -3.3535232030    -3.8699137323    -0.2285905687
   34      C      -4.6769230614     0.0430528751    -1.3835398127
   35      C      -5.9049574021     1.0334804095    -1.4200766521
   36      C      -5.2269828993     2.3625464361    -0.9178766920
   37      C      -3.7171500697     1.9119612259    -0.7893893658
   38      O      -3.5529999152     0.8886200815    -1.8467050748
   39      H      -5.2802061347    -0.2920798099     0.7280328125
   40      H      -3.9389419831     1.5557758158     1.4364898910
   41      H      -3.5165488272    -4.2476425398     0.8015221734
   42      H      -4.7681133922    -0.8683941315    -2.0050101106
   43      H      -6.2811704237     1.1385905814    -2.4502927294
   44      H      -6.7322045226     0.7026237431    -0.7721158857
   45      H      -5.3254935154     3.1739769905    -1.6561994665
   46      H      -5.6348560114     2.7105070596     0.0448250976
   47      H      -2.9726004403     2.7218444576    -0.9151846183
   48      H      -2.2626700985    -3.7565973009    -0.3942245691
   49      H      -3.7668414414    -4.5911070607    -0.9574946254
   50      H      -0.1690615426    -1.3570649506     0.2307661029
   51      H       0.7393899630    -2.3162100963     1.4977212903
   52      H       0.8175759200    -2.8209388248    -0.2306591932
   53      H       0.4512787395     2.5589921445     0.5520507757
   54      H       0.8892866812     3.2117008680     2.1941405207
   55      H       0.1370654501     0.2327128913     1.8450978359
   56      H      -0.0770965937     1.2621258309     3.3203783587
 ----------------------------------------------------------------

    9   -1510.2848091518      3.41E-09 Convergence criterion met
 Total energy in the final basis set = -1510.28480915
 Final energy is   -1510.28480915176
 **  OPTIMIZATION CONVERGED  **

                    Orbital Energies (a.u.)
 --------------------------------------------------------------

 Alpha MOs
 -- Occupied --
-18.939 -18.935 -18.925 -18.922 -18.889 -18.883 -18.878 -18.877
-18.870 -18.862 -10.103 -10.103 -10.095 -10.089 -10.068 -10.066
-10.062 -10.062 -10.059 -10.056 -10.052 -10.040 -10.039 -10.035
-10.033 -10.032 -10.022 -10.020 -10.017 -10.015  -1.017  -1.011
 -1.005  -0.998  -0.971  -0.965  -0.942  -0.935  -0.929  -0.925
 -0.765  -0.758  -0.726  -0.720  -0.712  -0.703  -0.693  -0.663
 -0.645  -0.616  -0.595  -0.579  -0.546  -0.539  -0.538  -0.532
 -0.515  -0.504  -0.479  -0.472  -0.465  -0.459  -0.455  -0.438
 -0.435  -0.432  -0.426  -0.413  -0.411  -0.406  -0.401  -0.392
 -0.389  -0.378  -0.372  -0.366  -0.361  -0.358  -0.351  -0.350
 -0.334  -0.333  -0.332  -0.330  -0.326  -0.321  -0.317  -0.313
 -0.305  -0.303  -0.301  -0.297  -0.296  -0.288  -0.286  -0.275
 -0.264  -0.257  -0.252  -0.238  -0.234  -0.233  -0.229  -0.187
 -0.179  -0.165  -0.161  -0.160  -0.152  -0.151  -0.144  -0.142
 -0.139

          Ground-State Mulliken Net Atomic Charges

     Atom                 Charge (a.u.)
  ----------------------------------------
      1 O                    -0.215619
      2 C                     0.213154
      3 C                    -0.078999
      4 C                    -0.078851
      5 C                     0.221180
      6 O                    -0.172195
      7 C                    -0.053027
      8 C                    -0.056861
      9 O                    -0.179079
     10 C                     0.220481
     11 C                    -0.078461
     12 C                    -0.078036
     13 C                     0.207367
     14 O                    -0.219910
     15 O                    -0.169469
     16 O                    -0.167880
     17 O                    -0.208598
     18 C                    -0.146060
     19 C                     0.025317
     20 C                    -0.143914
     21 C                    -0.144214
     22 C                     0.025665
     23 O                    -0.186808
     24 H                     0.083137
     25 H                     0.084309
     26 H                     0.090014
     27 H                     0.077432
     28 H                     0.072359
     29 H                     0.077504
     30 H                     0.073348
     31 H                     0.082730
     32 O                    -0.209564
     33 C                    -0.127638
     34 C                     0.024615
     35 C                    -0.142857
     36 C                    -0.144752
     37 C                     0.026148
     38 O                    -0.185296
     39 H                     0.084614
     40 H                     0.087145
     41 H                     0.088918
     42 H                     0.092824
     43 H                     0.078765
     44 H                     0.073190
     45 H                     0.078925
     46 H                     0.073728
     47 H                     0.084158
     48 H                     0.092718
     49 H                     0.091649
     50 H                     0.116783
     51 H                     0.088291
     52 H                     0.078502
     53 H                     0.100089
     54 H                     0.083231
     55 H                     0.101187
     56 H                     0.088611
  ----------------------------------------
  Sum of atomic charges =    -0.000000

                    Cartesian Multipole Moments
 -----------------------------------------------------------------
    Charge (ESU x 10^10)
                -0.0000
    Dipole Moment (Debye)
         X      -1.6544      Y       1.1030      Z       1.2332
       Tot       2.3397
    Quadrupole Moments (Debye-Ang)
        XX    -132.3315     XY       4.8187     YY    -151.2652
        XZ      -2.3622     YZ       5.0392     ZZ    -167.4098

 Total job time:  69.60s(wall), 3314.94s(cpu)
        *  Thank you very much for using Q-Chem.  Have a nice day.  *
