 Q-Chem 5.0, Q-Chem, Inc., Pleasanton, CA (2017)
 Q-Chem 5.0.1 for Intel X86 EM64T Linux

User input:
--------------------------------------------------------------
$molecule
0  1
O 1.5595439374 -1.1961956313 -0.122392712
C 2.7674407124 -1.5354657218 -0.1006948025
C 4.0193699359 -0.6036414994 -0.2108901763
C 3.6613817142 0.8433539098 -0.7439405607
C 2.1209927225 1.1539434394 -0.5989230161
O 1.5408301936 1.0203269965 -1.9041951609
C 0.0659771947 1.1500409662 -1.8945506002
C -0.5954853123 2.4457563211 -1.267777377
O -1.9900902065 2.1229443794 -0.8749649582
C -2.0280605508 1.2745786189 0.2876700847
C -3.5438282004 1.0508801148 0.6220541944
C -4.2852083945 0.0863906445 -0.4012031517
C -3.3275525655 -0.709648762 -1.3597177314
O -3.5089364978 -0.9713692144 -2.5687322323
O 3.2117542739 -2.8813257919 0.0635582202
O -2.2014657856 -1.1501194093 -0.5927529675
O -1.0351092055 0.9193941767 0.9539610092
C -1.3050519281 -2.0332085563 -1.3760781158
C -3.786779243 0.2990320579 1.9959126698
C -5.2523722665 0.6387193314 2.4710650585
C -6.097294675 -0.1789981886 1.4234730922
C -4.9587222185 -0.9304665859 0.6225808739
O -3.8881972746 -1.1322094635 1.6234952507
H -4.0341665299 2.0412906073 0.6208790468
H -5.028998445 0.6205698891 -1.0180197136
H -2.9828283384 0.4471680325 2.7427284959
H -5.4178966854 0.2693646964 3.4957941242
H -5.4663464358 1.7190824237 2.44478699
H -6.7658910456 -0.9025902462 1.9160630579
H -6.700317753 0.4684728802 0.7669958038
H -5.2605106433 -1.8978430466 0.1757100861
O 1.5613203748 1.6248629596 0.4137313389
C 2.0497952617 -3.7922746929 0.1995703876
C 4.7489281751 -0.2617488435 1.1642731255
C 6.2321973812 0.1428224486 0.8037941203
C 5.9982539579 1.5444951807 0.126341789
C 4.4403508877 1.7279604668 0.3162858117
O 4.1476099258 1.020146329 1.5871547233
H 4.7314808063 -1.1087009367 -0.8888312582
H 3.9821936789 0.9969532069 -1.7884922705
H 1.4833953031 -3.8689537119 -0.7512126697
H 4.6398404513 -1.0294850999 1.9547934143
H 6.8350198579 0.2347463704 1.7215768887
H 6.7165620593 -0.5844376373 0.1330202724
H 6.5485389095 2.3438590734 0.6471449369
H 6.2865839775 1.5537480765 -0.9372113521
H 4.0907017464 2.776550624 0.3753916118
H 1.3573414631 -3.4559041552 0.9977763287
H 2.4675928987 -4.7823602418 0.4585878669
H -0.291416481 -1.9214108281 -0.9345625746
H -1.2971917626 -1.7495736267 -2.4472092337
H -1.6385660248 -3.0879408194 -1.2904957374
H 0.0074887663 2.7361416209 -0.3804498001
H -0.6608783624 3.2756603812 -1.9970732929
H -0.3507099248 0.2897010768 -1.3331353193
H -0.2327524526 1.0492082433 -2.9573196374
$end

$rem
JOBTYPE                   OPT
METHOD                    B3LYP
DFT_D                     d3_op
BASIS                     STO-3G
GEOM_OPT_MAX_CYCLES       100
GEOM_OPT_TOL_GRADIENT     300
GEOM_OPT_TOL_DISPLACEMENT 1200
GEOM_OPT_TOL_ENERGY       100
SYMMETRY                  False
THRESH                    12
SCF_CONVERGENCE           8
MAX_SUB_FILE_NUM          128
MEM_STATIC                400
MEM_TOTAL                 4000
$end
--------------------------------------------------------------

   16   -1510.2796853834      5.08E-09 Convergence criterion met
 Total energy in the final basis set = -1510.27968538
   15   -1510.2295899576      5.86E-09 Convergence criterion met
 Total energy in the final basis set = -1510.22958996
   15   -1510.2810137430      3.89E-09 Convergence criterion met
 Total energy in the final basis set = -1510.28101374
   15   -1510.2788757824      2.72E-09 Convergence criterion met
 Total energy in the final basis set = -1510.27887578
   14   -1510.2796478027      9.58E-09 Convergence criterion met
 Total energy in the final basis set = -1510.27964780
   15   -1510.2837586994      2.59E-09 Convergence criterion met
 Total energy in the final basis set = -1510.28375870
   14   -1510.2849388080      5.76E-09 Convergence criterion met
 Total energy in the final basis set = -1510.28493881
   13   -1510.2867702003      9.61E-09 Convergence criterion met
   10   -1510.2898795516      7.67E-09 Convergence criterion met
 Total energy in the final basis set = -1510.28987955
   13   -1510.2898660795      2.00E-09 Convergence criterion met
 Total energy in the final basis set = -1510.28986608
   12   -1510.2898859520      3.62E-09 Convergence criterion met
 Total energy in the final basis set = -1510.28988595
   10   -1510.2898878690      7.68E-09 Convergence criterion met
 Total energy in the final basis set = -1510.28988787
   11   -1510.2898872051      5.90E-09 Convergence criterion met
 Total energy in the final basis set = -1510.28988721
    9   -1510.2898887616      7.73E-09 Convergence criterion met
 Total energy in the final basis set = -1510.28988876

             Standard Nuclear Orientation (Angstroms)
    I     Atom           X                Y                Z
 ----------------------------------------------------------------
    1      O       1.6977083007    -1.2319890543     0.1704975534
    2      C       2.8412934272    -1.6025722522    -0.1848270042
    3      C       4.0864535774    -0.7058921593    -0.4950612765
    4      C       3.7702735109     0.8458079119    -0.5359686743
    5      C       2.2604930021     1.1924717572    -0.2694324358
    6      O       1.5387548754     0.9831206887    -1.4949122514
    7      C       0.0835975902     0.9714364955    -1.2271044177
    8      C      -0.5584878218     2.3867712923    -0.9808508451
    9      O      -2.0316592797     2.2212601014    -0.9062543977
   10      C      -2.4171180042     1.7157822673     0.3815625982
   11      C      -3.9408135739     1.3586350038     0.3031208972
   12      C      -4.2302960962     0.0261951316    -0.5195754333
   13      C      -2.9542433053    -0.6938407756    -1.0825325141
   14      O      -2.5871524192    -0.7272925672    -2.2797961068
   15      O       3.2322906860    -2.9665584271    -0.3332841251
   16      O      -2.2687835367    -1.3488350263    -0.0111640407
   17      O      -1.6500693916     1.5945609590     1.3591858979
   18      C      -1.1563964834    -2.1853900920    -0.5291481199
   19      C      -4.5368862719     0.9762681473     1.7204344111
   20      C      -6.1122687499     1.0445515316     1.6284264198
   21      C      -6.4220010825    -0.2556470822     0.7968442804
   22      C      -4.9678994833    -0.8411685560     0.5893015814
   23      O      -4.2624932160    -0.4742914792     1.8369974366
   24      H      -4.4744810244     2.2114764562    -0.1541115955
   25      H      -4.8858315942     0.2397858343    -1.3823238948
   26      H      -4.0781029810     1.5231015119     2.5668768840
   27      H      -6.5590832343     0.9967577684     2.6341843073
   28      H      -6.4614557506     1.9621738707     1.1286282936
   29      H      -7.0432652993    -0.9631650042     1.3686483168
   30      H      -6.9223954814    -0.0397824791    -0.1606457467
   31      H      -4.9181773065    -1.9345892326     0.4235795882
   32      O       1.7653834077     1.6500801614     0.7817650175
   33      C       2.1045877183    -3.8724450067    -0.0105154325
   34      C       5.1346748104    -0.7655506959     0.7041441077
   35      C       6.5094804554    -0.1837811428     0.1886150999
   36      C       6.1922715094     1.3573487077     0.1514712127
   37      C       4.6914926728     1.3712797494     0.6417789399
   38      O       4.6390774859     0.2709401874     1.6341740499
   39      H       4.5406413627    -1.0593623124    -1.4380479483
   40      H       4.0576120111     1.2731779872    -1.5132159922
   41      H       1.3242849345    -3.8399502306    -0.7981425412
   42      H       5.1945202716    -1.7509920865     1.2058979507
   43      H       7.3150699458    -0.4144310555     0.9036848037
   44      H       6.7861628201    -0.5875861705    -0.7983223403
   45      H       6.8323555777     1.9181534366     0.8509390767
   46      H       6.3049335006     1.7897515690    -0.8555037518
   47      H       4.3413462068     2.3161448605     1.1002486765
   48      H       1.6388191029    -3.6158636704     0.9622523036
   49      H       2.5346099993    -4.8898256722     0.0364267805
   50      H      -0.1864936931    -1.8396060013    -0.1078395132
   51      H      -1.1297955491    -2.1157545989    -1.6349765454
   52      H      -1.3431929564    -3.2322426759    -0.2192248890
   53      H      -0.1508379980     2.8129859121    -0.0397833446
   54      H      -0.3646710614     3.0699668687    -1.8311902208
   55      H      -0.1245538792     0.3497592689    -0.3328373647
   56      H      -0.3892631195     0.5024731043    -2.1144477922
 ----------------------------------------------------------------

    9   -1510.2898887456      7.05E-09 Convergence criterion met
 Total energy in the final basis set = -1510.28988875
 Final energy is   -1510.28988874557
 **  OPTIMIZATION CONVERGED  **

                    Orbital Energies (a.u.)
 --------------------------------------------------------------

 Alpha MOs
 -- Occupied --
-18.950 -18.927 -18.925 -18.919 -18.895 -18.889 -18.883 -18.873
-18.869 -18.867 -10.114 -10.094 -10.093 -10.092 -10.074 -10.063
-10.059 -10.058 -10.056 -10.055 -10.054 -10.044 -10.042 -10.035
-10.034 -10.033 -10.022 -10.020 -10.017 -10.016  -1.026  -1.008
 -1.002  -0.999  -0.972  -0.964  -0.950  -0.932  -0.929  -0.926
 -0.765  -0.759  -0.726  -0.720  -0.711  -0.703  -0.689  -0.672
 -0.651  -0.613  -0.595  -0.581  -0.547  -0.541  -0.537  -0.532
 -0.514  -0.506  -0.482  -0.474  -0.466  -0.456  -0.454  -0.439
 -0.434  -0.428  -0.421  -0.421  -0.418  -0.408  -0.406  -0.389
 -0.384  -0.381  -0.370  -0.364  -0.358  -0.354  -0.350  -0.348
 -0.342  -0.341  -0.337  -0.331  -0.327  -0.323  -0.321  -0.314
 -0.308  -0.304  -0.303  -0.302  -0.294  -0.282  -0.277  -0.276
 -0.270  -0.262  -0.253  -0.239  -0.235  -0.235  -0.229  -0.192
 -0.182  -0.171  -0.162  -0.157  -0.153  -0.146  -0.145  -0.142
 -0.138

          Ground-State Mulliken Net Atomic Charges

     Atom                 Charge (a.u.)
  ----------------------------------------
      1 O                    -0.208326
      2 C                     0.219900
      3 C                    -0.077551
      4 C                    -0.081223
      5 C                     0.215508
      6 O                    -0.179361
      7 C                    -0.057521
      8 C                    -0.056132
      9 O                    -0.175010
     10 C                     0.206658
     11 C                    -0.078083
     12 C                    -0.077785
     13 C                     0.205002
     14 O                    -0.219588
     15 O                    -0.166674
     16 O                    -0.165675
     17 O                    -0.200639
     18 C                    -0.149496
     19 C                     0.025195
     20 C                    -0.143956
     21 C                    -0.144428
     22 C                     0.026860
     23 O                    -0.183700
     24 H                     0.085069
     25 H                     0.084756
     26 H                     0.089030
     27 H                     0.077630
     28 H                     0.072565
     29 H                     0.077150
     30 H                     0.072655
     31 H                     0.083003
     32 O                    -0.208081
     33 C                    -0.129380
     34 C                     0.025638
     35 C                    -0.143505
     36 C                    -0.144249
     37 C                     0.025399
     38 O                    -0.187279
     39 H                     0.088247
     40 H                     0.084744
     41 H                     0.088998
     42 H                     0.085127
     43 H                     0.078788
     44 H                     0.073845
     45 H                     0.078702
     46 H                     0.073588
     47 H                     0.089810
     48 H                     0.095713
     49 H                     0.094056
     50 H                     0.104905
     51 H                     0.092577
     52 H                     0.077181
     53 H                     0.102724
     54 H                     0.085938
     55 H                     0.099249
     56 H                     0.091427
  ----------------------------------------
  Sum of atomic charges =    -0.000000

                    Cartesian Multipole Moments
 -----------------------------------------------------------------
    Charge (ESU x 10^10)
                -0.0000
    Dipole Moment (Debye)
         X       0.8963      Y      -1.2323      Z      -2.2118
       Tot       2.6858
    Quadrupole Moments (Debye-Ang)
        XX    -133.0368     XY      -4.0887     YY    -147.6470
        XZ      -5.6299     YZ      -1.4745     ZZ    -171.3239

 Total job time:  111.03s(wall), 5293.71s(cpu)
        *  Thank you very much for using Q-Chem.  Have a nice day.  *
