 Q-Chem 5.0, Q-Chem, Inc., Pleasanton, CA (2017)
 Q-Chem 5.0.1 for Intel X86 EM64T Linux

User input:
--------------------------------------------------------------
$molecule
0  1
O -3.94934 -3.66094 2.70899
C -3.26408 -4.56952 2.26188
C -3.36658 -6.02376 2.66595
C -4.14054 -6.34174 3.9558
C -4.87645 -5.18909 4.60228
O -4.18053 -4.74644 5.69094
C -4.74484 -3.56999 6.2798
C -6.20964 -3.80887 6.63112
O -6.90434 -2.5544 6.71222
C -7.13146 -1.93593 5.52687
C -7.90285 -0.64604 5.67454
C -7.10612 0.51904 6.27959
C -5.6012 0.3435 6.31302
O -4.86616 0.69907 7.22288
O -2.43399 -4.30554 1.21899
O -5.01326 -0.08127 5.16006
O -6.8744 -2.40944 4.43143
C -3.65041 -0.1567 4.95692
C -8.35103 -0.0107 4.33715
C -9.54531 0.91233 4.57975
C -8.87329 2.05666 5.30951
C -7.41018 1.60766 5.231
O -7.334 0.90238 4.01633
H -8.82012 -0.89081 6.25656
H -7.44198 0.8185 7.29686
H -8.60627 -0.75674 3.55346
H -9.88256 1.27734 3.58292
H -10.40672 0.45179 5.10956
H -9.03072 2.98827 4.72179
H -9.19976 2.20836 6.36117
H -6.7294 2.48278 5.32712
O -5.8034 -4.6266 4.03746
C -2.24802 -3.05285 0.67268
C -4.16034 -6.85717 1.646
C -3.78501 -8.33355 1.77394
C -4.47226 -8.68915 3.07707
C -5.15686 -7.35882 3.40566
O -5.47825 -6.8312 2.13966
H -2.3181 -6.38999 2.74802
H -3.47382 -6.80339 4.72053
H -1.84874 -2.3563 1.44084
H -4.02094 -6.51198 0.59806
H -4.28917 -8.88382 0.94759
H -2.69298 -8.53695 1.7407
H -5.24216 -9.46496 2.86742
H -3.79976 -9.03498 3.89159
H -6.01003 -7.52173 4.10088
H -3.20873 -2.66198 0.27442
H -1.51842 -3.12359 -0.15987
H -3.45622 -0.54971 3.93781
H -3.18604 -0.8396 5.69965
H -3.19551 0.85286 5.04481
H -6.82811 -4.47706 6.00471
H -6.22481 -4.3119 7.6209
H -4.6543 -2.77255 5.51534
H -4.16554 -3.22759 7.16313
$end

$opt
CONSTRAINT
tors           1           2           3           4     -15.308
tors           3           4           5           6    -103.303
tors           4           5           6           7    +174.143
tors           5           6           7           8     +55.238
tors           6           7           8           9    -157.311
tors           7           8           9          10     +72.274
tors           8           9          10          11    +178.163
tors           9          10          11          12     +72.618
tors          11          12          13          14    -141.399
ENDCONSTRAINT
$end

$rem
JOBTYPE                   OPT
METHOD                    B3LYP
DFT_D                     d3_op
BASIS                     STO-3G
GEOM_OPT_MAX_CYCLES       100
GEOM_OPT_TOL_GRADIENT     300
GEOM_OPT_TOL_DISPLACEMENT 1200
GEOM_OPT_TOL_ENERGY       100
SYMMETRY                  False
THRESH                    12
SCF_CONVERGENCE           8
MAX_SUB_FILE_NUM          128
MEM_STATIC                400
MEM_TOTAL                 4000
$end
--------------------------------------------------------------

   16   -1510.1332218917      1.74E-09 Convergence criterion met
 Total energy in the final basis set = -1510.13322189
   13   -1510.2058907496      8.70E-09 Convergence criterion met
 Total energy in the final basis set = -1510.20589075
   14   -1510.2447767381      4.81E-09 Convergence criterion met
 Total energy in the final basis set = -1510.24477674
   14   -1510.2657086236      7.37E-09 Convergence criterion met
 Total energy in the final basis set = -1510.26570862
    2   -1510.2657086236      2.35E-09 Convergence criterion met
 Total energy in the final basis set = -1510.26570862
   14   -1510.2733947249      5.63E-09 Convergence criterion met
 Total energy in the final basis set = -1510.27339472
   13   -1510.2765099725      7.52E-09 Convergence criterion met
 Total energy in the final basis set = -1510.27650997
   13   -1510.2779704267      7.97E-09 Convergence criterion met
   11   -1510.2796559343      6.74E-09 Convergence criterion met
 Total energy in the final basis set = -1510.27965593
   11   -1510.2796903961      8.90E-09 Convergence criterion met
 Total energy in the final basis set = -1510.27969040
   11   -1510.2796995827      2.43E-09 Convergence criterion met
 Total energy in the final basis set = -1510.27969958
   10   -1510.2797052945      8.73E-09 Convergence criterion met
 Total energy in the final basis set = -1510.27970529
    9   -1510.2797085142      7.82E-09 Convergence criterion met
 Total energy in the final basis set = -1510.27970851
    9   -1510.2797116766      9.02E-09 Convergence criterion met
 Total energy in the final basis set = -1510.27971168

             Standard Nuclear Orientation (Angstroms)
    I     Atom           X                Y                Z
 ----------------------------------------------------------------
    1      O       1.5595439374    -1.1961956313    -0.1223927120
    2      C       2.7674407124    -1.5354657218    -0.1006948025
    3      C       4.0193699359    -0.6036414994    -0.2108901763
    4      C       3.6613817142     0.8433539098    -0.7439405607
    5      C       2.1209927225     1.1539434394    -0.5989230161
    6      O       1.5408301936     1.0203269965    -1.9041951609
    7      C       0.0659771947     1.1500409662    -1.8945506002
    8      C      -0.5954853123     2.4457563211    -1.2677773770
    9      O      -1.9900902065     2.1229443794    -0.8749649582
   10      C      -2.0280605508     1.2745786189     0.2876700847
   11      C      -3.5438282004     1.0508801148     0.6220541944
   12      C      -4.2852083945     0.0863906445    -0.4012031517
   13      C      -3.3275525655    -0.7096487620    -1.3597177314
   14      O      -3.5089364978    -0.9713692144    -2.5687322323
   15      O       3.2117542739    -2.8813257919     0.0635582202
   16      O      -2.2014657856    -1.1501194093    -0.5927529675
   17      O      -1.0351092055     0.9193941767     0.9539610092
   18      C      -1.3050519281    -2.0332085563    -1.3760781158
   19      C      -3.7867792430     0.2990320579     1.9959126698
   20      C      -5.2523722665     0.6387193314     2.4710650585
   21      C      -6.0972946750    -0.1789981886     1.4234730922
   22      C      -4.9587222185    -0.9304665859     0.6225808739
   23      O      -3.8881972746    -1.1322094635     1.6234952507
   24      H      -4.0341665299     2.0412906073     0.6208790468
   25      H      -5.0289984450     0.6205698891    -1.0180197136
   26      H      -2.9828283384     0.4471680325     2.7427284959
   27      H      -5.4178966854     0.2693646964     3.4957941242
   28      H      -5.4663464358     1.7190824237     2.4447869900
   29      H      -6.7658910456    -0.9025902462     1.9160630579
   30      H      -6.7003177530     0.4684728802     0.7669958038
   31      H      -5.2605106433    -1.8978430466     0.1757100861
   32      O       1.5613203748     1.6248629596     0.4137313389
   33      C       2.0497952617    -3.7922746929     0.1995703876
   34      C       4.7489281751    -0.2617488435     1.1642731255
   35      C       6.2321973812     0.1428224486     0.8037941203
   36      C       5.9982539579     1.5444951807     0.1263417890
   37      C       4.4403508877     1.7279604668     0.3162858117
   38      O       4.1476099258     1.0201463290     1.5871547233
   39      H       4.7314808063    -1.1087009367    -0.8888312582
   40      H       3.9821936789     0.9969532069    -1.7884922705
   41      H       1.4833953031    -3.8689537119    -0.7512126697
   42      H       4.6398404513    -1.0294850999     1.9547934143
   43      H       6.8350198579     0.2347463704     1.7215768887
   44      H       6.7165620593    -0.5844376373     0.1330202724
   45      H       6.5485389095     2.3438590734     0.6471449369
   46      H       6.2865839775     1.5537480765    -0.9372113521
   47      H       4.0907017464     2.7765506240     0.3753916118
   48      H       1.3573414631    -3.4559041552     0.9977763287
   49      H       2.4675928987    -4.7823602418     0.4585878669
   50      H      -0.2914164810    -1.9214108281    -0.9345625746
   51      H      -1.2971917626    -1.7495736267    -2.4472092337
   52      H      -1.6385660248    -3.0879408194    -1.2904957374
   53      H       0.0074887663     2.7361416209    -0.3804498001
   54      H      -0.6608783624     3.2756603812    -1.9970732929
   55      H      -0.3507099248     0.2897010768    -1.3331353193
   56      H      -0.2327524526     1.0492082433    -2.9573196374
 ----------------------------------------------------------------

    9   -1510.2797118378      3.42E-09 Convergence criterion met
 Total energy in the final basis set = -1510.27971184
 Final energy is   -1510.27971183782
 **  OPTIMIZATION CONVERGED  **

                    Orbital Energies (a.u.)
 --------------------------------------------------------------

 Alpha MOs
 -- Occupied --
-18.947 -18.928 -18.918 -18.917 -18.891 -18.888 -18.882 -18.868
-18.866 -18.860 -10.110 -10.092 -10.089 -10.088 -10.072 -10.062
-10.057 -10.056 -10.055 -10.054 -10.051 -10.050 -10.040 -10.032
-10.032 -10.028 -10.021 -10.019 -10.016 -10.015  -1.022  -1.006
 -0.998  -0.992  -0.969  -0.964  -0.946  -0.930  -0.926  -0.922
 -0.763  -0.757  -0.724  -0.719  -0.708  -0.700  -0.687  -0.669
 -0.653  -0.612  -0.593  -0.580  -0.546  -0.539  -0.536  -0.531
 -0.511  -0.504  -0.477  -0.474  -0.463  -0.455  -0.450  -0.436
 -0.433  -0.428  -0.422  -0.419  -0.413  -0.408  -0.404  -0.386
 -0.379  -0.376  -0.369  -0.361  -0.360  -0.350  -0.349  -0.344
 -0.339  -0.336  -0.332  -0.328  -0.327  -0.324  -0.320  -0.314
 -0.304  -0.303  -0.303  -0.299  -0.291  -0.280  -0.277  -0.275
 -0.266  -0.260  -0.253  -0.237  -0.233  -0.228  -0.226  -0.189
 -0.179  -0.168  -0.162  -0.155  -0.149  -0.144  -0.139  -0.137
 -0.129

          Ground-State Mulliken Net Atomic Charges

     Atom                 Charge (a.u.)
  ----------------------------------------
      1 O                    -0.204018
      2 C                     0.215697
      3 C                    -0.079475
      4 C                    -0.081304
      5 C                     0.217604
      6 O                    -0.178509
      7 C                    -0.057353
      8 C                    -0.060261
      9 O                    -0.180367
     10 C                     0.211589
     11 C                    -0.078740
     12 C                    -0.077218
     13 C                     0.206352
     14 O                    -0.216850
     15 O                    -0.166510
     16 O                    -0.165500
     17 O                    -0.197076
     18 C                    -0.139095
     19 C                     0.025149
     20 C                    -0.142999
     21 C                    -0.144569
     22 C                     0.025055
     23 O                    -0.186210
     24 H                     0.083591
     25 H                     0.084792
     26 H                     0.090864
     27 H                     0.077236
     28 H                     0.072894
     29 H                     0.076965
     30 H                     0.073234
     31 H                     0.080600
     32 O                    -0.206029
     33 C                    -0.129234
     34 C                     0.026374
     35 C                    -0.142044
     36 C                    -0.145485
     37 C                     0.026519
     38 O                    -0.182793
     39 H                     0.085374
     40 H                     0.084826
     41 H                     0.087737
     42 H                     0.085595
     43 H                     0.078462
     44 H                     0.073600
     45 H                     0.078283
     46 H                     0.073277
     47 H                     0.085544
     48 H                     0.096780
     49 H                     0.093525
     50 H                     0.104982
     51 H                     0.090618
     52 H                     0.080189
     53 H                     0.107624
     54 H                     0.083564
     55 H                     0.095088
     56 H                     0.082055
  ----------------------------------------
  Sum of atomic charges =     0.000000

                    Cartesian Multipole Moments
 -----------------------------------------------------------------
    Charge (ESU x 10^10)
                 0.0000
    Dipole Moment (Debye)
         X       1.3507      Y      -0.8094      Z      -1.0846
       Tot       1.9120
    Quadrupole Moments (Debye-Ang)
        XX    -137.8859     XY      -5.4429     YY    -150.0166
        XZ      -9.3538     YZ      -2.0790     ZZ    -165.9246

 Total job time:  79.09s(wall), 3770.66s(cpu)
        *  Thank you very much for using Q-Chem.  Have a nice day.  *
