 Q-Chem 5.0, Q-Chem, Inc., Pleasanton, CA (2017)
 Q-Chem 5.0.1 for Intel X86 EM64T Linux

User input:
--------------------------------------------------------------
$molecule
0  1
O -3.94934 -3.66094 2.70899
C -3.26408 -4.56952 2.26188
C -3.36658 -6.02376 2.66595
C -4.35271 -6.37204 3.79294
C -5.25523 -5.25515 4.26844
O -5.372 -5.30012 5.6285
C -6.17615 -4.24175 6.15995
C -7.63452 -4.68043 6.2427
O -8.48905 -3.52809 6.31182
C -8.733 -2.91125 5.12897
C -9.67148 -1.73547 5.2611
C -9.2068 -0.64256 6.2347
C -7.75012 -0.70208 6.64851
O -7.20073 0.06954 7.42139
O -2.366 -4.28874 1.28136
O -6.90518 -1.15297 5.67834
O -8.24552 -3.24913 4.05838
C -5.55062 -0.86901 5.60444
C -9.87122 -0.90934 3.97371
C -11.19794 -0.15418 4.04828
C -10.87126 0.89085 5.09588
C -9.38648 0.5918 5.32926
O -8.93178 0.13109 4.0787
H -10.65063 -2.16234 5.57534
H -9.81426 -0.59277 7.16488
H -9.83186 -1.5168 3.04371
H -11.33817 0.35775 3.06915
H -12.09036 -0.78012 4.26434
H -11.00024 1.89726 4.63913
H -11.45762 0.82088 6.03764
H -8.86906 1.49005 5.73332
O -6.04496 -4.67522 3.53053
C -2.15362 -3.02986 0.75974
C -3.91926 -6.89184 1.52203
C -3.52242 -8.35281 1.73496
C -4.44034 -8.72998 2.87874
C -5.21345 -7.42059 3.05998
O -5.306 -6.90805 1.75236
H -2.33322 -6.33897 2.93451
H -3.84116 -6.82949 4.67127
H -1.81277 -2.33696 1.55854
H -3.59379 -6.54892 0.51546
H -3.83002 -8.92656 0.83165
H -2.43838 -8.51023 1.92235
H -5.13478 -9.52419 2.52408
H -3.93166 -9.06223 3.80937
H -6.17892 -7.61276 3.57902
H -3.08862 -2.64331 0.3006
H -1.36914 -3.08775 -0.02239
H -5.12135 -1.35507 4.70417
H -5.02785 -1.25218 6.50698
H -5.39328 0.22713 5.51606
H -7.92529 -5.30633 5.36795
H -7.76561 -5.32105 7.13991
H -6.08621 -3.36528 5.50489
H -5.80387 -3.91088 7.15227
$end

$opt
CONSTRAINT
tors           1           2           3           4      -4.012
tors           3           4           5           6    -139.562
tors           4           5           6           7    +177.927
tors           5           6           7           8     +90.642
tors           6           7           8           9    -159.716
tors           7           8           9          10     +79.640
tors           8           9          10          11    +178.163
tors           9          10          11          12     +57.566
tors          11          12          13          14    -179.298
ENDCONSTRAINT
$end

$rem
JOBTYPE                   OPT
METHOD                    B3LYP
DFT_D                     d3_op
BASIS                     STO-3G
GEOM_OPT_MAX_CYCLES       100
GEOM_OPT_TOL_GRADIENT     300
GEOM_OPT_TOL_DISPLACEMENT 1200
GEOM_OPT_TOL_ENERGY       100
SYMMETRY                  False
THRESH                    12
SCF_CONVERGENCE           8
MAX_SUB_FILE_NUM          128
MEM_STATIC                400
MEM_TOTAL                 4000
$end
--------------------------------------------------------------

   15   -1510.1321825436      6.71E-09 Convergence criterion met
 Total energy in the final basis set = -1510.13218254
   14   -1510.2049267597      6.78E-09 Convergence criterion met
 Total energy in the final basis set = -1510.20492676
   15   -1510.2439876957      1.24E-09 Convergence criterion met
 Total energy in the final basis set = -1510.24398770
   14   -1510.2622229228      9.36E-09 Convergence criterion met
 Total energy in the final basis set = -1510.26222292
   14   -1510.2682812430      6.47E-09 Convergence criterion met
 Total energy in the final basis set = -1510.26828124
   14   -1510.2701834606      5.94E-09 Convergence criterion met
 Total energy in the final basis set = -1510.27018346
   13   -1510.2726428500      3.58E-09 Convergence criterion met
 Total energy in the final basis set = -1510.27264285
   13   -1510.2736775683      3.56E-09 Convergence criterion met
   11   -1510.2747337002      7.27E-09 Convergence criterion met
 Total energy in the final basis set = -1510.27473370
   11   -1510.2747619596      9.65E-09 Convergence criterion met
 Total energy in the final basis set = -1510.27476196
   11   -1510.2747805735      5.62E-09 Convergence criterion met
 Total energy in the final basis set = -1510.27478057
   11   -1510.2747953202      2.90E-09 Convergence criterion met
 Total energy in the final basis set = -1510.27479532
   10   -1510.2748006801      8.26E-09 Convergence criterion met
 Total energy in the final basis set = -1510.27480068
    9   -1510.2748030213      4.21E-09 Convergence criterion met
 Total energy in the final basis set = -1510.27480302

             Standard Nuclear Orientation (Angstroms)
    I     Atom           X                Y                Z
 ----------------------------------------------------------------
    1      O       2.3327008832    -1.9533622060    -0.8046107773
    2      C       3.5068398046    -1.7491827902    -0.4306143819
    3      C       4.2839850361    -0.3984782671    -0.2520401315
    4      C       3.5194372367     0.9149803592    -0.6819283731
    5      C       1.9569580198     0.7814841183    -0.6594706864
    6      O       1.4337629745     1.4609311925    -1.8150774425
    7      C      -0.0383901855     1.3152161028    -1.8574207465
    8      C      -0.7962681195     2.4816386732    -1.1076408150
    9      O      -2.1735148238     2.0664834135    -0.7544929392
   10      C      -2.1723002741     1.2433559883     0.4290465109
   11      C      -3.6689024229     0.8985057431     0.7446706804
   12      C      -4.4754564441     0.1678760971    -0.4012058199
   13      C      -3.6194530230    -0.6751210019    -1.4186912350
   14      O      -4.0693868283    -1.3123704560    -2.3962216898
   15      O       4.4122991509    -2.7980519600    -0.0585150476
   16      O      -2.2712001667    -0.8011894760    -0.9523039829
   17      O      -1.1708099119     1.0136584999     1.1363942630
   18      C      -1.5478822007    -1.8292065177    -1.7394426632
   19      C      -3.8889115200    -0.0830117495     1.9721802968
   20      C      -5.2824388061     0.2867585259     2.6104901699
   21      C      -6.2554470298    -0.1978571856     1.4704058368
   22      C      -5.2502028256    -0.9126409692     0.4805520982
   23      O      -4.1607258525    -1.4043933315     1.3567026565
   24      H      -4.1618363796     1.8670710418     0.9516109156
   25      H      -5.1517322439     0.8449515908    -0.9521715575
   26      H      -3.0282698544    -0.1434542900     2.6667505241
   27      H      -5.4422060043    -0.2812597856     3.5412945563
   28      H      -5.3781926422     1.3623238754     2.8288523367
   29      H      -7.0022213137    -0.9146103936     1.8472285594
   30      H      -6.7849408848     0.6365846288     0.9822283163
   31      H      -5.6842948988    -1.7438662120    -0.1088202194
   32      O       1.2479256078     0.2451665737     0.2160486408
   33      C       3.7370671370    -4.1115320078    -0.1671767899
   34      C       4.7119067038    -0.0432413645     1.2445481047
   35      C       6.0341350890     0.8109310401     1.1487022586
   36      C       5.4716498619     2.1425204851     0.5243036780
   37      C       3.9150104052     1.8616324390     0.5365976289
   38      O       3.7157903624     0.9551472496     1.6920986125
   39      H       5.2000138941    -0.5001673015    -0.8634916270
   40      H       3.8477803800     1.3002958689    -1.6625742974
   41      H       3.4110355975    -4.3196992002    -1.2068514077
   42      H       4.7442256806    -0.9075565909     1.9356657184
   43      H       6.4492013253     0.9842471852     2.1546504387
   44      H       6.8046730620     0.3323662380     0.5237200251
   45      H       5.7125761766     3.0185208476     1.1469693064
   46      H       5.8460242359     2.3227477808    -0.4963174636
   47      H       3.2774466800     2.7613971776     0.6365797203
   48      H       2.8507196160    -4.1716657666     0.4970560979
   49      H       4.4839968836    -4.8651898655     0.1433412979
   50      H      -0.5488545584    -1.9251886365    -1.2730098164
   51      H      -1.4368688542    -1.5276855258    -2.8009516353
   52      H      -2.0754750855    -2.8034343642    -1.7015103987
   53      H      -0.2240971466     2.7450406419    -0.1913606629
   54      H      -0.8987402396     3.3765482874    -1.7523484177
   55      H      -0.3374542857     0.3661059452    -1.3700519654
   56      H      -0.3231724955     1.2956170362    -2.9279629390
 ----------------------------------------------------------------

    9   -1510.2748028104      6.39E-09 Convergence criterion met
 Total energy in the final basis set = -1510.27480281
 Final energy is   -1510.27480281043
 **  OPTIMIZATION CONVERGED  **

                    Orbital Energies (a.u.)
 --------------------------------------------------------------

 Alpha MOs
 -- Occupied --
-18.935 -18.931 -18.921 -18.918 -18.887 -18.882 -18.877 -18.869
-18.868 -18.866 -10.099 -10.096 -10.091 -10.088 -10.063 -10.062
-10.059 -10.059 -10.058 -10.056 -10.056 -10.052 -10.037 -10.035
-10.035 -10.030 -10.020 -10.019 -10.017 -10.015  -1.011  -1.010
 -1.002  -0.996  -0.969  -0.965  -0.936  -0.932  -0.928  -0.922
 -0.762  -0.759  -0.723  -0.720  -0.708  -0.701  -0.688  -0.661
 -0.656  -0.614  -0.594  -0.579  -0.543  -0.539  -0.536  -0.533
 -0.511  -0.505  -0.479  -0.469  -0.461  -0.457  -0.450  -0.437
 -0.433  -0.432  -0.421  -0.410  -0.408  -0.408  -0.405  -0.388
 -0.382  -0.373  -0.372  -0.363  -0.360  -0.352  -0.349  -0.347
 -0.337  -0.335  -0.329  -0.327  -0.323  -0.322  -0.315  -0.313
 -0.305  -0.303  -0.301  -0.296  -0.294  -0.287  -0.281  -0.270
 -0.265  -0.254  -0.249  -0.241  -0.235  -0.232  -0.230  -0.180
 -0.176  -0.175  -0.158  -0.154  -0.150  -0.144  -0.142  -0.140
 -0.134

          Ground-State Mulliken Net Atomic Charges

     Atom                 Charge (a.u.)
  ----------------------------------------
      1 O                    -0.210605
      2 C                     0.210664
      3 C                    -0.079439
      4 C                    -0.079515
      5 C                     0.210314
      6 O                    -0.178128
      7 C                    -0.058504
      8 C                    -0.051896
      9 O                    -0.180812
     10 C                     0.217722
     11 C                    -0.079690
     12 C                    -0.075492
     13 C                     0.212044
     14 O                    -0.216405
     15 O                    -0.173410
     16 O                    -0.166011
     17 O                    -0.203044
     18 C                    -0.129083
     19 C                     0.023995
     20 C                    -0.142020
     21 C                    -0.145253
     22 C                     0.023859
     23 O                    -0.191236
     24 H                     0.082064
     25 H                     0.086417
     26 H                     0.092473
     27 H                     0.077544
     28 H                     0.072817
     29 H                     0.077813
     30 H                     0.073197
     31 H                     0.084105
     32 O                    -0.194299
     33 C                    -0.128842
     34 C                     0.027120
     35 C                    -0.141734
     36 C                    -0.145417
     37 C                     0.025868
     38 O                    -0.184445
     39 H                     0.084205
     40 H                     0.085500
     41 H                     0.087500
     42 H                     0.087798
     43 H                     0.078214
     44 H                     0.073994
     45 H                     0.078080
     46 H                     0.073456
     47 H                     0.082312
     48 H                     0.090886
     49 H                     0.089877
     50 H                     0.104813
     51 H                     0.087080
     52 H                     0.091379
     53 H                     0.090585
     54 H                     0.084483
     55 H                     0.105225
     56 H                     0.081881
  ----------------------------------------
  Sum of atomic charges =    -0.000000

                    Cartesian Multipole Moments
 -----------------------------------------------------------------
    Charge (ESU x 10^10)
                -0.0000
    Dipole Moment (Debye)
         X       1.5173      Y       0.9932      Z      -0.8903
       Tot       2.0202
    Quadrupole Moments (Debye-Ang)
        XX    -138.2377     XY      -6.8405     YY    -149.9806
        XZ      -8.6980     YZ      -0.3900     ZZ    -163.3814

 Total job time:  59.11s(wall), 2813.43s(cpu)
        *  Thank you very much for using Q-Chem.  Have a nice day.  *
