 Q-Chem 5.0, Q-Chem, Inc., Pleasanton, CA (2017)
 Q-Chem 5.0.1 for Intel X86 EM64T Linux

User input:
--------------------------------------------------------------
$molecule
0  1
O 2.3327008832 -1.953362206 -0.8046107773
C 3.5068398046 -1.7491827902 -0.4306143819
C 4.2839850361 -0.3984782671 -0.2520401315
C 3.5194372367 0.9149803592 -0.6819283731
C 1.9569580198 0.7814841183 -0.6594706864
O 1.4337629745 1.4609311925 -1.8150774425
C -0.0383901855 1.3152161028 -1.8574207465
C -0.7962681195 2.4816386732 -1.107640815
O -2.1735148238 2.0664834135 -0.7544929392
C -2.1723002741 1.2433559883 0.4290465109
C -3.6689024229 0.8985057431 0.7446706804
C -4.4754564441 0.1678760971 -0.4012058199
C -3.619453023 -0.6751210019 -1.418691235
O -4.0693868283 -1.312370456 -2.3962216898
O 4.4122991509 -2.79805196 -0.0585150476
O -2.2712001667 -0.801189476 -0.9523039829
O -1.1708099119 1.0136584999 1.136394263
C -1.5478822007 -1.8292065177 -1.7394426632
C -3.88891152 -0.0830117495 1.9721802968
C -5.2824388061 0.2867585259 2.6104901699
C -6.2554470298 -0.1978571856 1.4704058368
C -5.2502028256 -0.9126409692 0.4805520982
O -4.1607258525 -1.4043933315 1.3567026565
H -4.1618363796 1.8670710418 0.9516109156
H -5.1517322439 0.8449515908 -0.9521715575
H -3.0282698544 -0.14345429 2.6667505241
H -5.4422060043 -0.2812597856 3.5412945563
H -5.3781926422 1.3623238754 2.8288523367
H -7.0022213137 -0.9146103936 1.8472285594
H -6.7849408848 0.6365846288 0.9822283163
H -5.6842948988 -1.743866212 -0.1088202194
O 1.2479256078 0.2451665737 0.2160486408
C 3.737067137 -4.1115320078 -0.1671767899
C 4.7119067038 -0.0432413645 1.2445481047
C 6.034135089 0.8109310401 1.1487022586
C 5.4716498619 2.1425204851 0.524303678
C 3.9150104052 1.861632439 0.5365976289
O 3.7157903624 0.9551472496 1.6920986125
H 5.2000138941 -0.5001673015 -0.863491627
H 3.84778038 1.3002958689 -1.6625742974
H 3.4110355975 -4.3196992002 -1.2068514077
H 4.7442256806 -0.9075565909 1.9356657184
H 6.4492013253 0.9842471852 2.1546504387
H 6.804673062 0.332366238 0.5237200251
H 5.7125761766 3.0185208476 1.1469693064
H 5.8460242359 2.3227477808 -0.4963174636
H 3.27744668 2.7613971776 0.6365797203
H 2.850719616 -4.1716657666 0.4970560979
H 4.4839968836 -4.8651898655 0.1433412979
H -0.5488545584 -1.9251886365 -1.2730098164
H -1.4368688542 -1.5276855258 -2.8009516353
H -2.0754750855 -2.8034343642 -1.7015103987
H -0.2240971466 2.7450406419 -0.1913606629
H -0.8987402396 3.3765482874 -1.7523484177
H -0.3374542857 0.3661059452 -1.3700519654
H -0.3231724955 1.2956170362 -2.927962939
$end

$rem
JOBTYPE                   OPT
METHOD                    B3LYP
DFT_D                     d3_op
BASIS                     STO-3G
GEOM_OPT_MAX_CYCLES       100
GEOM_OPT_TOL_GRADIENT     300
GEOM_OPT_TOL_DISPLACEMENT 1200
GEOM_OPT_TOL_ENERGY       100
SYMMETRY                  False
THRESH                    12
SCF_CONVERGENCE           8
MAX_SUB_FILE_NUM          128
MEM_STATIC                400
MEM_TOTAL                 4000
$end
--------------------------------------------------------------

   16   -1510.2749138701      4.91E-09 Convergence criterion met
 Total energy in the final basis set = -1510.27491387
   15   -1510.2782879772      3.55E-09 Convergence criterion met
 Total energy in the final basis set = -1510.27828798
   14   -1510.2793160753      8.40E-09 Convergence criterion met
 Total energy in the final basis set = -1510.27931608
   14   -1510.2730712756      7.72E-09 Convergence criterion met
 Total energy in the final basis set = -1510.27307128
   15   -1510.2809137070      3.03E-09 Convergence criterion met
 Total energy in the final basis set = -1510.28091371
   13   -1510.2821072121      7.10E-09 Convergence criterion met
 Total energy in the final basis set = -1510.28210721
   13   -1510.2835229615      7.34E-09 Convergence criterion met
 Total energy in the final basis set = -1510.28352296
   13   -1510.2846512284      4.77E-09 Convergence criterion met
   12   -1510.2941694664      8.80E-09 Convergence criterion met
 Total energy in the final basis set = -1510.29416947
   12   -1510.2941703530      4.66E-09 Convergence criterion met
 Total energy in the final basis set = -1510.29417035
   11   -1510.2941878703      7.50E-09 Convergence criterion met
 Total energy in the final basis set = -1510.29418787
   11   -1510.2941837138      4.81E-09 Convergence criterion met
 Total energy in the final basis set = -1510.29418371
    9   -1510.2941849500      9.69E-09 Convergence criterion met
 Total energy in the final basis set = -1510.29418495
   11   -1510.2941827942      3.03E-09 Convergence criterion met
 Total energy in the final basis set = -1510.29418279

             Standard Nuclear Orientation (Angstroms)
    I     Atom           X                Y                Z
 ----------------------------------------------------------------
    1      O       1.9994364203    -1.4276352429    -0.5186099093
    2      C       3.2301444590    -1.5645343864    -0.7118363814
    3      C       4.3166952691    -0.4397084205    -0.6770465067
    4      C       3.6914244906     0.9932358102    -0.4268601677
    5      C       2.1202376317     0.9926467789    -0.3365435357
    6      O       1.6183278963     1.0615110260    -1.6770152831
    7      C       0.1542400528     0.8371158597    -1.7309706930
    8      C      -0.7024143810     1.9829072665    -1.0751789699
    9      O      -2.1043986065     1.5124378564    -1.1584084105
   10      C      -2.8602597307     1.8720234291     0.0073441058
   11      C      -4.2299031529     1.1180938431    -0.1287086791
   12      C      -4.0386733761    -0.4556858086    -0.2423130376
   13      C      -2.5431343116    -0.9098660696    -0.0881316497
   14      O      -1.8694910876    -1.5936701637    -0.8928255607
   15      O       3.8588242266    -2.8136411564    -0.9883668792
   16      O      -2.0658837257    -0.4295869165     1.1676809907
   17      O      -2.4670152842     2.6395378521     0.9082563990
   18      C      -0.6754627949    -0.8816498965     1.4265202148
   19      C      -5.1351126736     1.2291738745     1.1657622095
   20      C      -6.6071093503     0.8197968702     0.7660529412
   21      C      -6.4519835159    -0.7388809225     0.6044339741
   22      C      -4.9294565331    -0.9382040079     0.9830098522
   23      O      -4.6856368887     0.0982729459     2.0103967043
   24      H      -4.7502850109     1.5097373036    -1.0218382649
   25      H      -4.4134621591    -0.8427837605    -1.2058284286
   26      H      -5.0294554122     2.1859046394     1.7133731416
   27      H      -7.3105771464     1.0729345319     1.5752197035
   28      H      -6.9410555489     1.3137970583    -0.1602673147
   29      H      -7.0991837531    -1.2853377819     1.3086816690
   30      H      -6.6715522550    -1.0844613627    -0.4183714226
   31      H      -4.6688604266    -1.9406582381     1.3743391330
   32      O       1.4353913185     1.0776477834     0.7096604970
   33      C       2.8475786115    -3.8984543190    -1.0020920723
   34      C       5.2512248972    -0.5855011620     0.6035529577
   35      C       6.5002482772     0.3629395921     0.4213031201
   36      C       5.8571622864     1.7723171642     0.7009576020
   37      C       4.3530335950     1.3722047296     0.9622828594
   38      O       4.4576775866     0.0711191077     1.6657440327
   39      H       4.9031689982    -0.4821177159    -1.6125415234
   40      H       3.9862055545     1.6909458254    -1.2306864215
   41      H       2.0570286857    -3.7077309831    -1.7560117597
   42      H       5.4855161825    -1.6332082921     0.8755854011
   43      H       7.2788317081     0.1178558997     1.1609788921
   44      H       6.9347225236     0.2851373784    -0.5881597397
   45      H       6.2922416033     2.2439182717     1.5964522855
   46      H       5.9609836922     2.4640837418    -0.1501057653
   47      H       3.7605540881     2.0865960086     1.5660112082
   48      H       2.3673426558    -4.0174953734    -0.0094140129
   49      H       3.3965795336    -4.8220988430    -1.2617853973
   50      H       0.0546565595    -0.0720749116     1.1861269389
   51      H      -0.4386562314    -1.7728205494     0.8126971282
   52      H      -0.6152015155    -1.1295884425     2.5025018256
   53      H      -0.4025998201     2.1365622901    -0.0175577382
   54      H      -0.5807445965     2.9379407969    -1.6305506322
   55      H      -0.1135275529    -0.1328936266    -1.2562989750
   56      H      -0.0849877881     0.7709848124    -2.8114349098
 ----------------------------------------------------------------

    9   -1510.2941818563      5.05E-09 Convergence criterion met
 Total energy in the final basis set = -1510.29418186
 Final energy is   -1510.29418185626
 **  OPTIMIZATION CONVERGED  **

                    Orbital Energies (a.u.)
 --------------------------------------------------------------

 Alpha MOs
 -- Occupied --
-18.948 -18.928 -18.923 -18.918 -18.891 -18.890 -18.881 -18.873
-18.872 -18.859 -10.111 -10.103 -10.094 -10.087 -10.072 -10.064
-10.061 -10.060 -10.059 -10.054 -10.052 -10.044 -10.037 -10.031
-10.029 -10.027 -10.023 -10.022 -10.015 -10.014  -1.024  -1.008
 -1.004  -0.994  -0.973  -0.963  -0.947  -0.936  -0.931  -0.921
 -0.767  -0.757  -0.727  -0.720  -0.711  -0.700  -0.691  -0.669
 -0.640  -0.613  -0.594  -0.579  -0.547  -0.540  -0.538  -0.531
 -0.515  -0.503  -0.483  -0.469  -0.463  -0.460  -0.457  -0.437
 -0.434  -0.429  -0.424  -0.418  -0.413  -0.400  -0.397  -0.394
 -0.383  -0.381  -0.371  -0.368  -0.356  -0.352  -0.350  -0.347
 -0.340  -0.338  -0.335  -0.330  -0.324  -0.324  -0.316  -0.316
 -0.309  -0.304  -0.302  -0.299  -0.291  -0.280  -0.278  -0.275
 -0.271  -0.262  -0.252  -0.240  -0.237  -0.232  -0.227  -0.190
 -0.178  -0.169  -0.164  -0.157  -0.151  -0.148  -0.146  -0.140
 -0.136

          Ground-State Mulliken Net Atomic Charges

     Atom                 Charge (a.u.)
  ----------------------------------------
      1 O                    -0.205855
      2 C                     0.216503
      3 C                    -0.077933
      4 C                    -0.081360
      5 C                     0.224824
      6 O                    -0.175556
      7 C                    -0.052912
      8 C                    -0.057821
      9 O                    -0.180639
     10 C                     0.216992
     11 C                    -0.077548
     12 C                    -0.077585
     13 C                     0.208933
     14 O                    -0.223754
     15 O                    -0.166984
     16 O                    -0.170267
     17 O                    -0.206146
     18 C                    -0.149980
     19 C                     0.024781
     20 C                    -0.143743
     21 C                    -0.144326
     22 C                     0.025988
     23 O                    -0.184396
     24 H                     0.083355
     25 H                     0.082939
     26 H                     0.089044
     27 H                     0.077216
     28 H                     0.072029
     29 H                     0.076910
     30 H                     0.072613
     31 H                     0.081949
     32 O                    -0.219160
     33 C                    -0.128216
     34 C                     0.025062
     35 C                    -0.143706
     36 C                    -0.143875
     37 C                     0.025034
     38 O                    -0.188468
     39 H                     0.088223
     40 H                     0.085604
     41 H                     0.094336
     42 H                     0.086096
     43 H                     0.079022
     44 H                     0.074047
     45 H                     0.079032
     46 H                     0.073833
     47 H                     0.089825
     48 H                     0.092289
     49 H                     0.093176
     50 H                     0.109089
     51 H                     0.089652
     52 H                     0.082243
     53 H                     0.107265
     54 H                     0.079507
     55 H                     0.104743
     56 H                     0.088075
  ----------------------------------------
  Sum of atomic charges =    -0.000000

                    Cartesian Multipole Moments
 -----------------------------------------------------------------
    Charge (ESU x 10^10)
                 0.0000
    Dipole Moment (Debye)
         X       1.7501      Y      -0.9243      Z      -2.8448
       Tot       3.4656
    Quadrupole Moments (Debye-Ang)
        XX    -133.1165     XY       0.9689     YY    -152.3146
        XZ       1.0965     YZ      -4.2956     ZZ    -166.8475

 Total job time:  105.42s(wall), 5021.14s(cpu)
        *  Thank you very much for using Q-Chem.  Have a nice day.  *
