 Q-Chem 5.0, Q-Chem, Inc., Pleasanton, CA (2017)
 Q-Chem 5.0.1 for Intel X86 EM64T Linux

User input:
--------------------------------------------------------------
$molecule
0  1
O -3.94934 -3.66094 2.70899
C -3.26408 -4.56952 2.26188
C -3.36658 -6.02376 2.66595
C -4.72561 -6.51235 3.19336
C -5.87841 -5.53833 3.09118
O -6.64075 -5.60131 4.22268
C -7.74856 -4.69481 4.20648
C -9.00668 -5.41085 3.72631
O -10.06274 -4.45948 3.52014
C -10.15317 -3.95131 2.26606
C -11.30801 -2.99213 2.10175
C -11.13882 -1.64602 2.82123
C -9.73413 -1.31657 3.28491
O -9.45097 -0.63819 4.26173
O -2.1943 -4.24178 1.48884
O -8.73016 -1.57331 2.4
O -9.42305 -4.27672 1.33639
C -7.4264 -1.14268 2.54324
C -11.52741 -2.50858 0.6498
C -12.97001 -2.03329 0.47723
C -12.94072 -0.74875 1.27868
C -11.45492 -0.69357 1.65003
O -10.80779 -1.30659 0.56206
H -12.22321 -3.54075 2.41988
H -11.83312 -1.49127 3.67629
H -11.29086 -3.2795 -0.11553
H -13.10246 -1.77684 -0.59853
H -13.75292 -2.76256 0.77733
H -13.20768 0.09314 0.60185
H -13.5902 -0.73477 2.18064
H -11.14865 0.35399 1.86795
O -6.215 -4.9878 2.04671
C -1.89467 -2.96055 1.0751
C -3.23288 -6.94673 1.42755
C -2.80188 -8.34848 1.8602
C -4.08165 -8.85339 2.48736
C -5.00748 -7.66509 2.21356
O -4.55082 -7.15248 0.98898
H -2.51129 -6.23439 3.34582
H -4.65819 -6.89339 4.23829
H -1.71737 -2.30497 1.95433
H -2.52386 -6.5678 0.6599
H -2.60673 -8.93844 0.9359
H -1.90379 -8.38256 2.51374
H -4.42588 -9.74473 1.91675
H -4.0181 -9.0976 3.56982
H -6.07123 -7.99185 2.23935
H -2.72765 -2.55231 0.46355
H -0.9747 -2.98414 0.45579
H -6.82474 -1.5148 1.6888
H -6.98935 -1.5307 3.48732
H -7.3914 -0.03245 2.54927
H -8.78957 -5.9955 2.8037
H -9.31895 -6.15648 4.48744
H -7.5606 -3.81435 3.55618
H -7.91028 -4.27977 5.22356
$end

$opt
CONSTRAINT
tors           1           2           3           4     +26.509
tors           3           4           5           6    -139.562
tors           4           5           6           7    +179.417
tors           5           6           7           8     +95.698
tors           6           7           8           9    -171.409
tors           7           8           9          10     +91.601
tors           8           9          10          11    +178.163
tors           9          10          11          12     +70.676
tors          11          12          13          14    -149.762
ENDCONSTRAINT
$end

$rem
JOBTYPE                   OPT
METHOD                    B3LYP
DFT_D                     d3_op
BASIS                     STO-3G
GEOM_OPT_MAX_CYCLES       100
GEOM_OPT_TOL_GRADIENT     300
GEOM_OPT_TOL_DISPLACEMENT 1200
GEOM_OPT_TOL_ENERGY       100
SYMMETRY                  False
THRESH                    12
SCF_CONVERGENCE           8
MAX_SUB_FILE_NUM          128
MEM_STATIC                400
MEM_TOTAL                 4000
$end
--------------------------------------------------------------

   15   -1510.1530308536      7.96E-09 Convergence criterion met
 Total energy in the final basis set = -1510.15303085
   14   -1510.2225134002      5.56E-09 Convergence criterion met
 Total energy in the final basis set = -1510.22251340
   14   -1510.2596585400      8.96E-09 Convergence criterion met
 Total energy in the final basis set = -1510.25965854
   14   -1510.2756075152      8.21E-09 Convergence criterion met
 Total energy in the final basis set = -1510.27560752
   14   -1510.2805552830      5.69E-09 Convergence criterion met
 Total energy in the final basis set = -1510.28055528
    2   -1510.2805552829      1.54E-09 Convergence criterion met
 Total energy in the final basis set = -1510.28055528
   13   -1510.2814120291      5.95E-09 Convergence criterion met
 Total energy in the final basis set = -1510.28141203
   13   -1510.2824986774      4.37E-09 Convergence criterion met
   11   -1510.2831239398      4.09E-09 Convergence criterion met
 Total energy in the final basis set = -1510.28312394
   11   -1510.2831264292      2.65E-09 Convergence criterion met
 Total energy in the final basis set = -1510.28312643
    9   -1510.2831298742      8.43E-09 Convergence criterion met
 Total energy in the final basis set = -1510.28312987
    9   -1510.2831319351      5.47E-09 Convergence criterion met
 Total energy in the final basis set = -1510.28313194
    9   -1510.2831337013      4.09E-09 Convergence criterion met
 Total energy in the final basis set = -1510.28313370
    9   -1510.2831320553      3.04E-09 Convergence criterion met
 Total energy in the final basis set = -1510.28313206

             Standard Nuclear Orientation (Angstroms)
    I     Atom           X                Y                Z
 ----------------------------------------------------------------
    1      O       2.5670959479    -1.9822115290    -0.8599926045
    2      C       3.5725604924    -1.6724031518    -0.1841612723
    3      C       4.3964090956    -0.3368679526    -0.2573305205
    4      C       3.5699817818     0.9153305675    -0.7628018174
    5      C       2.0198814984     0.7016808869    -0.7278159282
    6      O       1.4529955598     1.2815353785    -1.9153695435
    7      C      -0.0130197969     1.0742203200    -1.9024972761
    8      C      -0.8053348125     2.3073831758    -1.3306141950
    9      O      -2.2220030577     1.8979465796    -1.1765692385
   10      C      -2.4379255006     1.3779649914     0.1509120014
   11      C      -3.9574225982     1.0110785239     0.2592200905
   12      C      -4.3950590387    -0.2550055816    -0.5929137966
   13      C      -3.2258718288    -1.1123936629    -1.1947391385
   14      O      -3.2565979689    -1.7746229103    -2.2550504371
   15      O       4.1815627504    -2.5378218309     0.7786836787
   16      O      -2.1271909822    -1.1020021463    -0.2777096654
   17      O      -1.5803081967     1.3850475188     1.0582183138
   18      C      -1.0803905981    -2.0742957021    -0.6772151957
   19      C      -4.3786820728     0.5664136661     1.7220682365
   20      C      -5.9366383011     0.7757034634     1.8560933910
   21      C      -6.4697918689    -0.3925808613     0.9452438053
   22      C      -5.1209793427    -1.1106772369     0.5387796013
   23      O      -4.2390666516    -0.9086237293     1.7086975233
   24      H      -4.5343843318     1.8952746282    -0.0673206862
   25      H      -5.0825603792     0.0152635752    -1.4133454597
   26      H      -3.7547798454     1.0056825892     2.5244897523
   27      H      -6.2536981965     0.6457215159     2.9032084495
   28      H      -6.2582794678     1.7706033777     1.5085598842
   29      H      -7.1197338371    -1.0819670615     1.5071424833
   30      H      -7.0222431965    -0.0261675213     0.0650336944
   31      H      -5.2169774804    -2.1887649524     0.3040972265
   32      O       1.3439545066     0.1754641062     0.1831128153
   33      C       3.4260698890    -3.8091904936     0.8624183613
   34      C       4.9533564412     0.1925153918     1.1347623748
   35      C       6.1926311180     1.1209011252     0.8261428873
   36      C       5.4748508120     2.3751365206     0.2024884877
   37      C       3.9547657196     1.9737904808     0.3627696102
   38      O       3.9236783792     1.1525368242     1.5938685733
   39      H       5.2401083630    -0.5284499771    -0.9475280551
   40      H       3.8693204038     1.2415640335    -1.7738055518
   41      H       3.4324745773    -4.3529741305    -0.1044637296
   42      H       5.1182096947    -0.6010801613     1.8884539789
   43      H       6.7173002407     1.3815250374     1.7592317727
   44      H       6.9098807764     0.6495658491     0.1355706654
   45      H       5.6946793144     3.2940309248     0.7688779941
   46      H       5.7457617126     2.5382054791    -0.8529975282
   47      H       3.2503328135     2.8240422805     0.4457783586
   48      H       2.3724996041    -3.6363918355     1.1627487348
   49      H       3.9364237693    -4.4167141453     1.6322017015
   50      H      -0.1255938366    -1.7131978103    -0.2461033360
   51      H      -1.0012673388    -2.1485874367    -1.7799718698
   52      H      -1.3177144243    -3.0778059580    -0.2685131576
   53      H      -0.3838496524     2.5956436090    -0.3436787593
   54      H      -0.7858148477     3.1672506507    -2.0289475978
   55      H      -0.2564999355     0.2019868476    -1.2667664812
   56      H      -0.3193321097     0.8784225283    -2.9496388863
 ----------------------------------------------------------------

    9   -1510.2831322464      3.09E-09 Convergence criterion met
 Total energy in the final basis set = -1510.28313225
 Final energy is   -1510.28313224636
 **  OPTIMIZATION CONVERGED  **

                    Orbital Energies (a.u.)
 --------------------------------------------------------------

 Alpha MOs
 -- Occupied --
-18.936 -18.930 -18.928 -18.922 -18.888 -18.884 -18.875 -18.871
-18.870 -18.869 -10.101 -10.094 -10.094 -10.094 -10.065 -10.063
-10.061 -10.059 -10.058 -10.058 -10.054 -10.051 -10.038 -10.037
-10.035 -10.033 -10.021 -10.019 -10.018 -10.017  -1.014  -1.009
 -1.005  -1.000  -0.970  -0.966  -0.938  -0.932  -0.930  -0.927
 -0.763  -0.760  -0.724  -0.721  -0.710  -0.703  -0.691  -0.662
 -0.653  -0.615  -0.595  -0.579  -0.545  -0.540  -0.537  -0.534
 -0.512  -0.506  -0.477  -0.475  -0.465  -0.459  -0.451  -0.439
 -0.434  -0.431  -0.424  -0.411  -0.410  -0.407  -0.404  -0.389
 -0.386  -0.376  -0.370  -0.366  -0.359  -0.356  -0.352  -0.349
 -0.339  -0.336  -0.331  -0.330  -0.327  -0.320  -0.320  -0.312
 -0.306  -0.304  -0.302  -0.295  -0.294  -0.290  -0.284  -0.274
 -0.267  -0.255  -0.252  -0.239  -0.239  -0.233  -0.230  -0.184
 -0.177  -0.171  -0.159  -0.157  -0.152  -0.146  -0.145  -0.143
 -0.140

          Ground-State Mulliken Net Atomic Charges

     Atom                 Charge (a.u.)
  ----------------------------------------
      1 O                    -0.215503
      2 C                     0.213595
      3 C                    -0.078799
      4 C                    -0.079224
      5 C                     0.212918
      6 O                    -0.173796
      7 C                    -0.058489
      8 C                    -0.054763
      9 O                    -0.178990
     10 C                     0.215511
     11 C                    -0.078789
     12 C                    -0.077337
     13 C                     0.207908
     14 O                    -0.215960
     15 O                    -0.170164
     16 O                    -0.166142
     17 O                    -0.205630
     18 C                    -0.134738
     19 C                     0.025260
     20 C                    -0.143277
     21 C                    -0.144398
     22 C                     0.025276
     23 O                    -0.186235
     24 H                     0.083979
     25 H                     0.085225
     26 H                     0.090709
     27 H                     0.077799
     28 H                     0.072722
     29 H                     0.077761
     30 H                     0.073559
     31 H                     0.082063
     32 O                    -0.208019
     33 C                    -0.127752
     34 C                     0.024581
     35 C                    -0.142921
     36 C                    -0.144773
     37 C                     0.026173
     38 O                    -0.186207
     39 H                     0.084033
     40 H                     0.086567
     41 H                     0.088203
     42 H                     0.092573
     43 H                     0.078307
     44 H                     0.073101
     45 H                     0.078330
     46 H                     0.073677
     47 H                     0.082911
     48 H                     0.092722
     49 H                     0.091111
     50 H                     0.106596
     51 H                     0.094161
     52 H                     0.084595
     53 H                     0.096493
     54 H                     0.085035
     55 H                     0.103084
     56 H                     0.085366
  ----------------------------------------
  Sum of atomic charges =     0.000000

                    Cartesian Multipole Moments
 -----------------------------------------------------------------
    Charge (ESU x 10^10)
                 0.0000
    Dipole Moment (Debye)
         X       1.1547      Y       0.7663      Z      -1.0053
       Tot       1.7121
    Quadrupole Moments (Debye-Ang)
        XX    -132.6273     XY      -5.2996     YY    -149.6462
        XZ      -5.4216     YZ      -4.5458     ZZ    -168.3608

 Total job time:  68.61s(wall), 3263.22s(cpu)
        *  Thank you very much for using Q-Chem.  Have a nice day.  *
