 Q-Chem 5.0, Q-Chem, Inc., Pleasanton, CA (2017)
 Q-Chem 5.0.1 for Intel X86 EM64T Linux

User input:
--------------------------------------------------------------
$molecule
0  1
O 2.5670959479 -1.982211529 -0.8599926045
C 3.5725604924 -1.6724031518 -0.1841612723
C 4.3964090956 -0.3368679526 -0.2573305205
C 3.5699817818 0.9153305675 -0.7628018174
C 2.0198814984 0.7016808869 -0.7278159282
O 1.4529955598 1.2815353785 -1.9153695435
C -0.0130197969 1.07422032 -1.9024972761
C -0.8053348125 2.3073831758 -1.330614195
O -2.2220030577 1.8979465796 -1.1765692385
C -2.4379255006 1.3779649914 0.1509120014
C -3.9574225982 1.0110785239 0.2592200905
C -4.3950590387 -0.2550055816 -0.5929137966
C -3.2258718288 -1.1123936629 -1.1947391385
O -3.2565979689 -1.7746229103 -2.2550504371
O 4.1815627504 -2.5378218309 0.7786836787
O -2.1271909822 -1.1020021463 -0.2777096654
O -1.5803081967 1.3850475188 1.0582183138
C -1.0803905981 -2.0742957021 -0.6772151957
C -4.3786820728 0.5664136661 1.7220682365
C -5.9366383011 0.7757034634 1.856093391
C -6.4697918689 -0.3925808613 0.9452438053
C -5.1209793427 -1.1106772369 0.5387796013
O -4.2390666516 -0.9086237293 1.7086975233
H -4.5343843318 1.8952746282 -0.0673206862
H -5.0825603792 0.0152635752 -1.4133454597
H -3.7547798454 1.0056825892 2.5244897523
H -6.2536981965 0.6457215159 2.9032084495
H -6.2582794678 1.7706033777 1.5085598842
H -7.1197338371 -1.0819670615 1.5071424833
H -7.0222431965 -0.0261675213 0.0650336944
H -5.2169774804 -2.1887649524 0.3040972265
O 1.3439545066 0.1754641062 0.1831128153
C 3.426069889 -3.8091904936 0.8624183613
C 4.9533564412 0.1925153918 1.1347623748
C 6.192631118 1.1209011252 0.8261428873
C 5.474850812 2.3751365206 0.2024884877
C 3.9547657196 1.9737904808 0.3627696102
O 3.9236783792 1.1525368242 1.5938685733
H 5.240108363 -0.5284499771 -0.9475280551
H 3.8693204038 1.2415640335 -1.7738055518
H 3.4324745773 -4.3529741305 -0.1044637296
H 5.1182096947 -0.6010801613 1.8884539789
H 6.7173002407 1.3815250374 1.7592317727
H 6.9098807764 0.6495658491 0.1355706654
H 5.6946793144 3.2940309248 0.7688779941
H 5.7457617126 2.5382054791 -0.8529975282
H 3.2503328135 2.8240422805 0.4457783586
H 2.3724996041 -3.6363918355 1.1627487348
H 3.9364237693 -4.4167141453 1.6322017015
H -0.1255938366 -1.7131978103 -0.246103336
H -1.0012673388 -2.1485874367 -1.7799718698
H -1.3177144243 -3.077805958 -0.2685131576
H -0.3838496524 2.595643609 -0.3436787593
H -0.7858148477 3.1672506507 -2.0289475978
H -0.2564999355 0.2019868476 -1.2667664812
H -0.3193321097 0.8784225283 -2.9496388863
$end

$rem
JOBTYPE                   OPT
METHOD                    B3LYP
DFT_D                     d3_op
BASIS                     STO-3G
GEOM_OPT_MAX_CYCLES       100
GEOM_OPT_TOL_GRADIENT     300
GEOM_OPT_TOL_DISPLACEMENT 1200
GEOM_OPT_TOL_ENERGY       100
SYMMETRY                  False
THRESH                    12
SCF_CONVERGENCE           8
MAX_SUB_FILE_NUM          128
MEM_STATIC                400
MEM_TOTAL                 4000
$end
--------------------------------------------------------------

   16   -1510.2831111964      5.44E-09 Convergence criterion met
 Total energy in the final basis set = -1510.28311120
   14   -1510.2700102009      6.41E-09 Convergence criterion met
 Total energy in the final basis set = -1510.27001020
   14   -1510.2836508702      3.20E-09 Convergence criterion met
 Total energy in the final basis set = -1510.28365087
   14   -1510.2824155278      7.63E-09 Convergence criterion met
 Total energy in the final basis set = -1510.28241553
   13   -1510.2848545079      9.77E-09 Convergence criterion met
 Total energy in the final basis set = -1510.28485451
   14   -1510.2855123864      4.89E-09 Convergence criterion met
 Total energy in the final basis set = -1510.28551239
   14   -1510.2861957830      1.87E-09 Convergence criterion met
 Total energy in the final basis set = -1510.28619578
   13   -1510.2872540098      5.71E-09 Convergence criterion met
   12   -1510.2942401474      7.26E-09 Convergence criterion met
 Total energy in the final basis set = -1510.29424015
   11   -1510.2942286822      8.36E-09 Convergence criterion met
 Total energy in the final basis set = -1510.29422868
   11   -1510.2942369385      4.49E-09 Convergence criterion met
 Total energy in the final basis set = -1510.29423694
    9   -1510.2942348392      7.45E-09 Convergence criterion met
 Total energy in the final basis set = -1510.29423484
    9   -1510.2942338115      9.23E-09 Convergence criterion met
 Total energy in the final basis set = -1510.29423381
    9   -1510.2942322999      6.93E-09 Convergence criterion met
 Total energy in the final basis set = -1510.29423230

             Standard Nuclear Orientation (Angstroms)
    I     Atom           X                Y                Z
 ----------------------------------------------------------------
    1      O      -1.9981361218    -1.3909481667     0.5089852629
    2      C      -3.2351971975    -1.5033982875     0.6753021267
    3      C      -4.2988005281    -0.3571101250     0.6210369068
    4      C      -3.6405165563     1.0632273204     0.3824867546
    5      C      -2.0673720089     1.0341387911     0.3353169703
    6      O      -1.5969095105     1.0812916751     1.6875453807
    7      C      -0.1392416817     0.8240237106     1.7728541516
    8      C       0.7546020572     1.9571622187     1.1455586182
    9      O       2.1446638546     1.4531922158     1.2376198706
   10      C       2.9178124161     1.8070418418     0.0814520040
   11      C       4.2682148855     1.0197354924     0.2135706279
   12      C       4.0416754751    -0.5509008693     0.3045711579
   13      C       2.5374732588    -0.9707948429     0.1399353083
   14      O       1.8419665044    -1.6369866357     0.9408908024
   15      O      -3.8958713054    -2.7402814686     0.9310090540
   16      O       2.0818207734    -0.4842186021    -1.1212470637
   17      O       2.5464353541     2.5905185478    -0.8152011555
   18      C       0.6847435100    -0.9078518124    -1.3930150380
   19      C       5.1773300700     1.1290106908    -1.0783351729
   20      C       6.6391251287     0.6817567859    -0.6832044995
   21      C       6.4495009371    -0.8751867935    -0.5437627593
   22      C       4.9234561660    -1.0356544734    -0.9263571463
   23      O       4.7035897357     0.0204385995    -1.9391849505
   24      H       4.7945450268     1.3875031668     1.1132351189
   25      H       4.4050263551    -0.9595605072     1.2635014766
   26      H       5.0926436746     2.0954617043    -1.6122982683
   27      H       7.3490595348     0.9306123106    -1.4880185314
   28      H       6.9828274771     1.1550270130     0.2503601292
   29      H       7.0853362142    -1.4258327287    -1.2550546061
   30      H       6.6602416489    -1.2397684014     0.4742590118
   31      H       4.6408681774    -2.0263020176    -1.3322398807
   32      O      -1.3566686284     1.1152890009    -0.6939485487
   33      C      -2.9095093319    -3.8473640442     0.9577758973
   34      C      -5.2086041060    -0.4865716628    -0.6790333174
   35      C      -6.4389720908     0.4919214908    -0.5309759025
   36      C      -5.7578739644     1.8839467345    -0.8075203153
   37      C      -4.2571648667     1.4477068604    -1.0263659978
   38      O      -4.3747501351     0.1453074555    -1.7252538083
   39      H      -4.9048650062    -0.3882459849     1.5444548978
   40      H      -3.9463657674     1.7698459798     1.1743726740
   41      H      -2.1265315449    -3.6761174661     1.7241132555
   42      H      -5.4615884090    -1.5298035735    -0.9517321052
   43      H      -7.2067843140     0.2583709744    -1.2854610014
   44      H      -6.8967782910     0.4323139182     0.4693662265
   45      H      -6.1591268704     2.3546376386    -1.7191378676
   46      H      -5.8687644296     2.5874875156     0.0329249528
   47      H      -3.6327175457     2.1440010970    -1.6189784964
   48      H      -2.4170212157    -3.9750368311    -0.0278475469
   49      H      -3.4829607457    -4.7590997496     1.2065472624
   50      H      -0.0289479995    -0.0807510835    -1.1627412340
   51      H       0.4217291943    -1.7914624815    -0.7791093937
   52      H       0.6302918516    -1.1580407577    -2.4688429757
   53      H       0.4713362164     2.1317573452     0.0864622220
   54      H       0.6483068229     2.9071290277     1.7125066559
   55      H       0.1169398424    -0.1471896908     1.2941815411
   56      H       0.0732035063     0.7423980266     2.8577596574
 ----------------------------------------------------------------

    9   -1510.2942318782      2.31E-09 Convergence criterion met
 Total energy in the final basis set = -1510.29423188
 Final energy is   -1510.29423187818
 **  OPTIMIZATION CONVERGED  **

                    Orbital Energies (a.u.)
 --------------------------------------------------------------

 Alpha MOs
 -- Occupied --
-18.948 -18.928 -18.923 -18.918 -18.891 -18.890 -18.881 -18.873
-18.873 -18.859 -10.111 -10.103 -10.094 -10.087 -10.072 -10.064
-10.061 -10.060 -10.059 -10.054 -10.052 -10.044 -10.037 -10.031
-10.029 -10.026 -10.023 -10.022 -10.015 -10.014  -1.024  -1.008
 -1.004  -0.994  -0.973  -0.963  -0.948  -0.936  -0.931  -0.921
 -0.766  -0.757  -0.727  -0.720  -0.711  -0.700  -0.691  -0.669
 -0.639  -0.613  -0.594  -0.579  -0.547  -0.540  -0.538  -0.531
 -0.515  -0.503  -0.483  -0.468  -0.463  -0.459  -0.457  -0.437
 -0.434  -0.429  -0.424  -0.418  -0.413  -0.400  -0.397  -0.394
 -0.383  -0.381  -0.371  -0.368  -0.356  -0.352  -0.350  -0.347
 -0.340  -0.338  -0.335  -0.330  -0.324  -0.324  -0.316  -0.315
 -0.309  -0.304  -0.302  -0.299  -0.291  -0.279  -0.278  -0.275
 -0.271  -0.262  -0.252  -0.240  -0.237  -0.231  -0.227  -0.190
 -0.178  -0.169  -0.165  -0.156  -0.151  -0.148  -0.146  -0.140
 -0.136

          Ground-State Mulliken Net Atomic Charges

     Atom                 Charge (a.u.)
  ----------------------------------------
      1 O                    -0.205895
      2 C                     0.216638
      3 C                    -0.077850
      4 C                    -0.081404
      5 C                     0.225011
      6 O                    -0.175303
      7 C                    -0.052985
      8 C                    -0.058075
      9 O                    -0.180267
     10 C                     0.216579
     11 C                    -0.077582
     12 C                    -0.077611
     13 C                     0.208693
     14 O                    -0.223931
     15 O                    -0.167026
     16 O                    -0.170189
     17 O                    -0.206057
     18 C                    -0.150278
     19 C                     0.024778
     20 C                    -0.143757
     21 C                    -0.144367
     22 C                     0.026069
     23 O                    -0.184235
     24 H                     0.083427
     25 H                     0.082939
     26 H                     0.089107
     27 H                     0.077205
     28 H                     0.072017
     29 H                     0.076893
     30 H                     0.072589
     31 H                     0.081993
     32 O                    -0.219220
     33 C                    -0.128213
     34 C                     0.025026
     35 C                    -0.143785
     36 C                    -0.143852
     37 C                     0.025009
     38 O                    -0.188690
     39 H                     0.088215
     40 H                     0.085503
     41 H                     0.094433
     42 H                     0.086091
     43 H                     0.079012
     44 H                     0.074035
     45 H                     0.079043
     46 H                     0.073833
     47 H                     0.089976
     48 H                     0.092180
     49 H                     0.093184
     50 H                     0.109424
     51 H                     0.089498
     52 H                     0.081906
     53 H                     0.107592
     54 H                     0.079459
     55 H                     0.105135
     56 H                     0.088076
  ----------------------------------------
  Sum of atomic charges =     0.000000

                    Cartesian Multipole Moments
 -----------------------------------------------------------------
    Charge (ESU x 10^10)
                 0.0000
    Dipole Moment (Debye)
         X      -1.8132      Y      -0.9109      Z       2.7714
       Tot       3.4348
    Quadrupole Moments (Debye-Ang)
        XX    -133.1965     XY      -1.4807     YY    -152.2977
        XZ       1.6763     YZ       4.2653     ZZ    -166.6374

 Total job time:  92.18s(wall), 4394.20s(cpu)
        *  Thank you very much for using Q-Chem.  Have a nice day.  *
