 Q-Chem 5.0, Q-Chem, Inc., Pleasanton, CA (2017)
 Q-Chem 5.0.1 for Intel X86 EM64T Linux

User input:
--------------------------------------------------------------
$molecule
0  1
O -3.442734281 -1.3401124604 2.0735818014
C -4.2635666391 -1.308008925 1.1315893099
C -4.8689228456 -0.0290493063 0.4473247885
C -3.8542472284 1.1753176325 0.2904518615
C -2.350874034 0.7391187153 0.3820758262
O -1.5879817418 1.862970114 0.8492198909
C -0.1805598066 1.4636943911 1.0880900592
C 0.7149720343 1.8000151189 -0.1676403972
O 2.072230374 1.2127459469 -0.0464185683
C 2.0727611339 -0.1582769515 -0.4702560174
C 3.5092031728 -0.6519113912 -0.8709245202
C 4.7166650362 0.3623723671 -0.8364953105
C 4.6495568184 1.4887596554 0.2598198676
O 5.2243324797 2.5988893643 0.2128155681
O -4.8338802233 -2.4743215596 0.5291274795
O 4.0572511632 0.9512031667 1.4485466857
O 1.0332058011 -0.8426337825 -0.59453844
C 4.0433156442 1.9752676262 2.5146440527
C 4.1059644022 -1.9039011945 -0.0783547774
C 4.9082512941 -2.7535890163 -1.1382430284
C 6.0981120117 -1.7676156715 -1.4473046677
C 5.8641881024 -0.6402499406 -0.3605614434
O 5.194058912 -1.3473837536 0.7565541025
H 3.3729511708 -0.9691195368 -1.922943576
H 4.9181160721 0.8218786689 -1.8193209358
H 3.3759492613 -2.4609292373 0.5403144976
H 5.2720917741 -3.6883046053 -0.6818409065
H 4.308944908 -3.0008457727 -2.0291253141
H 7.0773144958 -2.250113144 -1.3013796297
H 6.0553016941 -1.36261412 -2.4714393718
H 6.7844660875 -0.137726261 -0.0042267329
O -1.8568142208 -0.3656160737 0.0735898449
C -4.2707458017 -3.6922014912 1.1556384253
C -5.3753356263 -0.2145751598 -1.0486434815
C -6.4878719906 0.87311506 -1.3065552074
C -5.6162548238 2.1839626712 -1.3237525013
C -4.1550782753 1.5884110911 -1.2178176937
O -4.2492962508 0.2677673759 -1.8823609478
H -5.7137302282 0.2938889531 1.0851903522
H -4.045448982 1.9948720496 1.0042930117
H -4.5055228643 -3.7419570505 2.238655438
H -5.641004694 -1.2566767596 -1.3096805073
H -6.9714070374 0.7013752411 -2.2816579796
H -7.2627987665 0.8821674768 -0.5232225309
H -5.7395557018 2.7445760048 -2.2639113293
H -5.8455782083 2.8555881724 -0.4807707695
H -3.3628881958 2.2042917878 -1.6864367319
H -3.1696744996 -3.739595599 1.0309316222
H -4.7406092628 -4.5472188754 0.635435087
H 3.6687773226 1.4657243186 3.4214626102
H 3.366858931 2.8165958803 2.2583608344
H 5.0566293966 2.3834634721 2.7062169797
H 0.2025517748 1.4170539181 -1.076305599
H 0.8662326012 2.8942889558 -0.2591767594
H -0.1272520919 0.3695453061 1.2707912743
H 0.169879079 2.0232787114 1.9782400583
$end

$rem
JOBTYPE                   OPT
METHOD                    B3LYP
DFT_D                     d3_op
BASIS                     STO-3G
GEOM_OPT_MAX_CYCLES       100
GEOM_OPT_TOL_GRADIENT     300
GEOM_OPT_TOL_DISPLACEMENT 1200
GEOM_OPT_TOL_ENERGY       100
SYMMETRY                  False
THRESH                    12
SCF_CONVERGENCE           8
MAX_SUB_FILE_NUM          128
MEM_STATIC                400
MEM_TOTAL                 4000
$end
--------------------------------------------------------------

   16   -1510.2669079128      5.89E-09 Convergence criterion met
 Total energy in the final basis set = -1510.26690791
   14   -1510.2707844829      5.90E-09 Convergence criterion met
 Total energy in the final basis set = -1510.27078448
   15   -1510.2738180277      3.07E-09 Convergence criterion met
 Total energy in the final basis set = -1510.27381803
   14   -1510.2757435153      3.90E-09 Convergence criterion met
 Total energy in the final basis set = -1510.27574352
   13   -1510.2774021973      6.58E-09 Convergence criterion met
 Total energy in the final basis set = -1510.27740220
   13   -1510.2787954118      8.21E-09 Convergence criterion met
 Total energy in the final basis set = -1510.27879541
   14   -1510.2799348287      5.24E-09 Convergence criterion met
 Total energy in the final basis set = -1510.27993483
   13   -1510.2809643610      5.66E-09 Convergence criterion met
   13   -1510.2932889209      2.98E-09 Convergence criterion met
 Total energy in the final basis set = -1510.29328892
   13   -1510.2934169036      4.78E-09 Convergence criterion met
 Total energy in the final basis set = -1510.29341690
   12   -1510.2933882576      8.77E-09 Convergence criterion met
 Total energy in the final basis set = -1510.29338826
   12   -1510.2934298157      4.54E-09 Convergence criterion met
 Total energy in the final basis set = -1510.29342982
   11   -1510.2934316190      9.24E-09 Convergence criterion met
 Total energy in the final basis set = -1510.29343162
   10   -1510.2934369686      4.79E-09 Convergence criterion met
 Total energy in the final basis set = -1510.29343697

             Standard Nuclear Orientation (Angstroms)
    I     Atom           X                Y                Z
 ----------------------------------------------------------------
    1      O      -3.1275237311    -0.6274806396     3.0312240935
    2      C      -3.4996342018    -0.6225573060     1.8375067589
    3      C      -4.4226472799     0.4553494898     1.1516515164
    4      C      -3.6407154615     1.5611991359     0.3290662157
    5      C      -2.0928896666     1.3415951764     0.3115486443
    6      O      -1.4936320949     2.3623878731    -0.4813836410
    7      C      -0.0209945362     2.1829367777    -0.5562262233
    8      C       0.3746841959     1.0119724504    -1.5251979136
    9      O       1.8520192949     0.9261418725    -1.4828210186
   10      C       2.2968616625    -0.4280689072    -1.6637580293
   11      C       3.8545864092    -0.4128306062    -1.4916849112
   12      C       4.3123425304     0.1489426003    -0.0784634937
   13      C       3.1160111541     0.4999602562     0.8736463685
   14      O       2.9024455732     1.5863084616     1.4566869169
   15      O      -3.2505013268    -1.6810533635     0.9041676898
   16      O       2.3036122505    -0.6679610554     1.0100310399
   17      O       1.5485102699    -1.3913050179    -1.9249100015
   18      C       1.2018798174    -0.4409600233     1.9777181747
   19      C       4.4665317694    -1.8723668820    -1.4631881838
   20      C       6.0190808485    -1.7553095297    -1.7211279735
   21      C       6.5076981094    -1.1668103298    -0.3450721707
   22      C       5.1487849031    -1.0936001820     0.4598797671
   23      O       4.3844098139    -2.2595824778    -0.0355125536
   24      H       4.2862615687     0.1934364036    -2.3090824314
   25      H       4.9377616467     1.0525164712    -0.1840365054
   26      H       3.9217940387    -2.6020613979    -2.0933791246
   27      H       6.4547234581    -2.7490172014    -1.9114529747
   28      H       6.2516617773    -1.0971539792    -2.5735112195
   29      H       7.2156889095    -1.8452119269     0.1568195775
   30      H       6.9805302718    -0.1771514130    -0.4493095751
   31      H       5.2508637333    -1.1362590213     1.5615874935
   32      O      -1.4607377954     0.4247627267     0.8872850993
   33      C      -2.3378689771    -2.6771225129     1.5062024452
   34      C      -5.3495374575    -0.1560804496     0.0141347270
   35      C      -6.5096422233     0.8721938751    -0.2902767604
   36      C      -5.7333429899     1.9783228400    -1.0959094604
   37      C      -4.2760027612     1.3704106375    -1.1184280256
   38      O      -4.5015429261    -0.0885616136    -1.1998275847
   39      H      -5.0209761587     0.9272404978     1.9509365791
   40      H      -3.8411070472     2.5772958330     0.7149910563
   41      H      -2.7338989383    -3.0718846958     2.4642030589
   42      H      -5.6748663685    -1.1973578801     0.2000329702
   43      H      -7.2905867934     0.3987199824    -0.9062465982
   44      H      -6.9731426727     1.2604941487     0.6306628173
   45      H      -6.1232911218     2.0818112920    -2.1210294048
   46      H      -5.7618520048     2.9638807165    -0.6047049778
   47      H      -3.6278328954     1.7174397831    -1.9464977229
   48      H      -1.3352410157    -2.2405082531     1.6907493568
   49      H      -2.2523868814    -3.4983750267     0.7711007607
   50      H       0.2677325104    -0.1203756521     1.4605889288
   51      H       1.4883492365     0.3312122389     2.7181775325
   52      H       1.0265759945    -1.4064456609     2.4874850942
   53      H      -0.0771263685     0.0513730485    -1.1978713290
   54      H       0.0269717666     1.2310362553    -2.5583784644
   55      H       0.4159280009     1.9932613426     0.4475368706
   56      H       0.3722936841     3.1440132762    -0.9429842972
 ----------------------------------------------------------------

   10   -1510.2934369557      2.81E-09 Convergence criterion met
 Total energy in the final basis set = -1510.29343696
 Final energy is   -1510.29343695573
 **  OPTIMIZATION CONVERGED  **

                    Orbital Energies (a.u.)
 --------------------------------------------------------------

 Alpha MOs
 -- Occupied --
-18.954 -18.933 -18.924 -18.920 -18.900 -18.890 -18.885 -18.880
-18.865 -18.858 -10.120 -10.102 -10.093 -10.090 -10.081 -10.074
-10.064 -10.060 -10.058 -10.056 -10.052 -10.045 -10.038 -10.037
-10.035 -10.034 -10.023 -10.021 -10.019 -10.018  -1.031  -1.014
 -1.001  -0.997  -0.972  -0.967  -0.956  -0.940  -0.927  -0.923
 -0.767  -0.762  -0.731  -0.723  -0.714  -0.705  -0.698  -0.651
 -0.648  -0.621  -0.597  -0.584  -0.548  -0.545  -0.539  -0.536
 -0.516  -0.509  -0.488  -0.476  -0.469  -0.465  -0.454  -0.438
 -0.435  -0.432  -0.428  -0.412  -0.408  -0.406  -0.403  -0.399
 -0.394  -0.380  -0.375  -0.366  -0.363  -0.359  -0.351  -0.346
 -0.340  -0.337  -0.333  -0.333  -0.329  -0.328  -0.322  -0.318
 -0.309  -0.307  -0.304  -0.303  -0.292  -0.286  -0.282  -0.278
 -0.275  -0.264  -0.252  -0.243  -0.240  -0.236  -0.232  -0.197
 -0.178  -0.175  -0.163  -0.161  -0.158  -0.147  -0.146  -0.141
 -0.139

          Ground-State Mulliken Net Atomic Charges

     Atom                 Charge (a.u.)
  ----------------------------------------
      1 O                    -0.221581
      2 C                     0.213343
      3 C                    -0.081607
      4 C                    -0.077990
      5 C                     0.222238
      6 O                    -0.167215
      7 C                    -0.049550
      8 C                    -0.054009
      9 O                    -0.178430
     10 C                     0.217576
     11 C                    -0.077804
     12 C                    -0.078062
     13 C                     0.208358
     14 O                    -0.221555
     15 O                    -0.170229
     16 O                    -0.171049
     17 O                    -0.206049
     18 C                    -0.148886
     19 C                     0.024814
     20 C                    -0.143801
     21 C                    -0.144184
     22 C                     0.026166
     23 O                    -0.184573
     24 H                     0.084412
     25 H                     0.084043
     26 H                     0.089718
     27 H                     0.078014
     28 H                     0.072535
     29 H                     0.077769
     30 H                     0.073299
     31 H                     0.082820
     32 O                    -0.206774
     33 C                    -0.127819
     34 C                     0.026652
     35 C                    -0.144357
     36 C                    -0.143612
     37 C                     0.025342
     38 O                    -0.186493
     39 H                     0.083440
     40 H                     0.088603
     41 H                     0.086367
     42 H                     0.088406
     43 H                     0.078391
     44 H                     0.074021
     45 H                     0.078698
     46 H                     0.073923
     47 H                     0.085483
     48 H                     0.090573
     49 H                     0.089490
     50 H                     0.104597
     51 H                     0.088512
     52 H                     0.084065
     53 H                     0.102650
     54 H                     0.084120
     55 H                     0.101203
     56 H                     0.095986
  ----------------------------------------
  Sum of atomic charges =    -0.000000

                    Cartesian Multipole Moments
 -----------------------------------------------------------------
    Charge (ESU x 10^10)
                 0.0000
    Dipole Moment (Debye)
         X      -0.2439      Y       2.0730      Z      -1.5339
       Tot       2.5903
    Quadrupole Moments (Debye-Ang)
        XX    -135.9944     XY      -5.8874     YY    -161.0395
        XZ      -4.8079     YZ      -4.5066     ZZ    -163.6134

 Total job time:  134.15s(wall), 6399.47s(cpu)
        *  Thank you very much for using Q-Chem.  Have a nice day.  *
