 Q-Chem 5.0, Q-Chem, Inc., Pleasanton, CA (2017)
 Q-Chem 5.0.1 for Intel X86 EM64T Linux

User input:
--------------------------------------------------------------
$molecule
0  1
O -3.94934 -3.66094 2.70899
C -3.26408 -4.56952 2.26188
C -3.36658 -6.02376 2.66595
C -4.77316 -6.57765 2.94627
C -5.93469 -5.66543 2.61948
O -7.00531 -5.97662 3.40837
C -8.10222 -5.07017 3.25223
C -9.10782 -5.6294 2.25115
O -10.08884 -4.62988 1.93263
C -9.72742 -3.74333 0.97214
C -10.91022 -3.0689 0.31885
C -12.28299 -3.5534 0.80774
C -12.28141 -4.35366 2.0947
O -13.1381 -5.1589 2.42971
O -2.41396 -4.27518 1.2413
O -11.76185 -3.65728 3.16495
O -8.57167 -3.51732 0.63783
C -11.85004 -4.04162 4.48875
C -11.02208 -1.55567 0.57607
C -11.82787 -0.90886 -0.55008
C -13.21648 -1.44344 -0.24989
C -12.94819 -2.18552 1.06536
O -11.90817 -1.44498 1.66246
H -10.79502 -3.25159 -0.77375
H -12.81251 -4.16392 0.04321
H -10.03622 -1.05488 0.69105
H -11.82174 0.18889 -0.36225
H -11.45736 -1.10418 -1.57941
H -13.89648 -0.57849 -0.0849
H -13.64146 -2.12295 -1.02018
H -13.88241 -2.28305 1.66132
O -6.02772 -5.0467 1.56417
C -2.23169 -3.01364 0.71402
C -2.89386 -7.00404 1.56972
C -2.54245 -8.36016 2.18629
C -3.9236 -8.90729 2.46862
C -4.78898 -7.75734 1.95244
O -4.0664 -7.2751 0.84563
H -2.72407 -6.11807 3.56923
H -4.89301 -6.9528 3.98886
H -1.85884 -2.3213 1.49888
H -2.02578 -6.63988 0.98016
H -2.06702 -8.99372 1.40379
H -1.86848 -8.28894 3.06708
H -4.08842 -9.79771 1.82105
H -4.12527 -9.17274 3.5288
H -5.81861 -8.12257 1.73981
H -3.18805 -2.63079 0.29792
H -1.48232 -3.06553 -0.10218
H -11.32667 -3.29406 5.11897
H -11.36593 -5.03167 4.6304
H -12.91351 -4.09316 4.80567
H -8.60082 -5.97891 1.32242
H -9.60451 -6.51498 2.70059
H -7.75256 -4.05918 2.9409
H -8.59848 -4.91059 4.23278
$end

$opt
CONSTRAINT
tors           1           2           3           4     +37.417
tors           3           4           5           6    -153.446
tors           4           5           6           7    +174.143
tors           5           6           7           8     +95.698
tors           6           7           8           9    -170.632
tors           7           8           9          10     +83.434
tors           8           9          10          11    +158.597
tors           9          10          11          12      -2.775
tors          11          12          13          14    -155.776
ENDCONSTRAINT
$end

$rem
JOBTYPE                   OPT
METHOD                    B3LYP
DFT_D                     d3_op
BASIS                     STO-3G
GEOM_OPT_MAX_CYCLES       100
GEOM_OPT_TOL_GRADIENT     300
GEOM_OPT_TOL_DISPLACEMENT 1200
GEOM_OPT_TOL_ENERGY       100
SYMMETRY                  False
THRESH                    12
SCF_CONVERGENCE           8
MAX_SUB_FILE_NUM          128
MEM_STATIC                400
MEM_TOTAL                 4000
$end
--------------------------------------------------------------

   15   -1510.1254991391      6.64E-09 Convergence criterion met
 Total energy in the final basis set = -1510.12549914
   14   -1510.1959225757      8.34E-09 Convergence criterion met
 Total energy in the final basis set = -1510.19592258
   14   -1510.2319039382      9.70E-09 Convergence criterion met
 Total energy in the final basis set = -1510.23190394
   15   -1510.2520146140      2.25E-09 Convergence criterion met
 Total energy in the final basis set = -1510.25201461
   13   -1510.2597384968      7.30E-09 Convergence criterion met
 Total energy in the final basis set = -1510.25973850
   14   -1510.2633396627      3.26E-09 Convergence criterion met
 Total energy in the final basis set = -1510.26333966
   13   -1510.2651796141      4.44E-09 Convergence criterion met
 Total energy in the final basis set = -1510.26517961
   12   -1510.2658954380      7.47E-09 Convergence criterion met
   11   -1510.2668017679      4.15E-09 Convergence criterion met
 Total energy in the final basis set = -1510.26680177
   10   -1510.2668284417      7.91E-09 Convergence criterion met
 Total energy in the final basis set = -1510.26682844
   11   -1510.2668468734      2.89E-09 Convergence criterion met
 Total energy in the final basis set = -1510.26684687
   10   -1510.2668577351      8.93E-09 Convergence criterion met
 Total energy in the final basis set = -1510.26685774
   10   -1510.2668609961      8.74E-09 Convergence criterion met
 Total energy in the final basis set = -1510.26686100
    9   -1510.2668638528      6.16E-09 Convergence criterion met
 Total energy in the final basis set = -1510.26686385

             Standard Nuclear Orientation (Angstroms)
    I     Atom           X                Y                Z
 ----------------------------------------------------------------
    1      O      -3.4427342810    -1.3401124604     2.0735818014
    2      C      -4.2635666391    -1.3080089250     1.1315893099
    3      C      -4.8689228456    -0.0290493063     0.4473247885
    4      C      -3.8542472284     1.1753176325     0.2904518615
    5      C      -2.3508740340     0.7391187153     0.3820758262
    6      O      -1.5879817418     1.8629701140     0.8492198909
    7      C      -0.1805598066     1.4636943911     1.0880900592
    8      C       0.7149720343     1.8000151189    -0.1676403972
    9      O       2.0722303740     1.2127459469    -0.0464185683
   10      C       2.0727611339    -0.1582769515    -0.4702560174
   11      C       3.5092031728    -0.6519113912    -0.8709245202
   12      C       4.7166650362     0.3623723671    -0.8364953105
   13      C       4.6495568184     1.4887596554     0.2598198676
   14      O       5.2243324797     2.5988893643     0.2128155681
   15      O      -4.8338802233    -2.4743215596     0.5291274795
   16      O       4.0572511632     0.9512031667     1.4485466857
   17      O       1.0332058011    -0.8426337825    -0.5945384400
   18      C       4.0433156442     1.9752676262     2.5146440527
   19      C       4.1059644022    -1.9039011945    -0.0783547774
   20      C       4.9082512941    -2.7535890163    -1.1382430284
   21      C       6.0981120117    -1.7676156715    -1.4473046677
   22      C       5.8641881024    -0.6402499406    -0.3605614434
   23      O       5.1940589120    -1.3473837536     0.7565541025
   24      H       3.3729511708    -0.9691195368    -1.9229435760
   25      H       4.9181160721     0.8218786689    -1.8193209358
   26      H       3.3759492613    -2.4609292373     0.5403144976
   27      H       5.2720917741    -3.6883046053    -0.6818409065
   28      H       4.3089449080    -3.0008457727    -2.0291253141
   29      H       7.0773144958    -2.2501131440    -1.3013796297
   30      H       6.0553016941    -1.3626141200    -2.4714393718
   31      H       6.7844660875    -0.1377262610    -0.0042267329
   32      O      -1.8568142208    -0.3656160737     0.0735898449
   33      C      -4.2707458017    -3.6922014912     1.1556384253
   34      C      -5.3753356263    -0.2145751598    -1.0486434815
   35      C      -6.4878719906     0.8731150600    -1.3065552074
   36      C      -5.6162548238     2.1839626712    -1.3237525013
   37      C      -4.1550782753     1.5884110911    -1.2178176937
   38      O      -4.2492962508     0.2677673759    -1.8823609478
   39      H      -5.7137302282     0.2938889531     1.0851903522
   40      H      -4.0454489820     1.9948720496     1.0042930117
   41      H      -4.5055228643    -3.7419570505     2.2386554380
   42      H      -5.6410046940    -1.2566767596    -1.3096805073
   43      H      -6.9714070374     0.7013752411    -2.2816579796
   44      H      -7.2627987665     0.8821674768    -0.5232225309
   45      H      -5.7395557018     2.7445760048    -2.2639113293
   46      H      -5.8455782083     2.8555881724    -0.4807707695
   47      H      -3.3628881958     2.2042917878    -1.6864367319
   48      H      -3.1696744996    -3.7395955990     1.0309316222
   49      H      -4.7406092628    -4.5472188754     0.6354350870
   50      H       3.6687773226     1.4657243186     3.4214626102
   51      H       3.3668589310     2.8165958803     2.2583608344
   52      H       5.0566293966     2.3834634721     2.7062169797
   53      H       0.2025517748     1.4170539181    -1.0763055990
   54      H       0.8662326012     2.8942889558    -0.2591767594
   55      H      -0.1272520919     0.3695453061     1.2707912743
   56      H       0.1698790790     2.0232787114     1.9782400583
 ----------------------------------------------------------------

    9   -1510.2668646256      4.73E-09 Convergence criterion met
 Total energy in the final basis set = -1510.26686463
 Final energy is   -1510.26686462565
 **  OPTIMIZATION CONVERGED  **

                    Orbital Energies (a.u.)
 --------------------------------------------------------------

 Alpha MOs
 -- Occupied --
-18.933 -18.930 -18.928 -18.924 -18.887 -18.886 -18.874 -18.874
-18.868 -18.861 -10.099 -10.096 -10.094 -10.091 -10.071 -10.064
-10.060 -10.060 -10.059 -10.058 -10.056 -10.056 -10.036 -10.036
-10.035 -10.035 -10.020 -10.020 -10.019 -10.018  -1.013  -1.009
 -1.003  -0.999  -0.969  -0.969  -0.937  -0.933  -0.928  -0.924
 -0.762  -0.761  -0.725  -0.721  -0.710  -0.703  -0.693  -0.657
 -0.653  -0.615  -0.596  -0.582  -0.543  -0.543  -0.536  -0.536
 -0.511  -0.509  -0.482  -0.475  -0.467  -0.460  -0.450  -0.435
 -0.433  -0.432  -0.420  -0.407  -0.407  -0.406  -0.405  -0.391
 -0.388  -0.373  -0.373  -0.365  -0.362  -0.359  -0.349  -0.344
 -0.341  -0.334  -0.331  -0.329  -0.327  -0.320  -0.318  -0.313
 -0.310  -0.306  -0.301  -0.297  -0.292  -0.288  -0.285  -0.275
 -0.272  -0.253  -0.248  -0.242  -0.236  -0.232  -0.231  -0.189
 -0.173  -0.167  -0.159  -0.155  -0.151  -0.145  -0.142  -0.141
 -0.139

          Ground-State Mulliken Net Atomic Charges

     Atom                 Charge (a.u.)
  ----------------------------------------
      1 O                    -0.214646
      2 C                     0.214135
      3 C                    -0.079536
      4 C                    -0.077788
      5 C                     0.212026
      6 O                    -0.176781
      7 C                    -0.054580
      8 C                    -0.049733
      9 O                    -0.170738
     10 C                     0.209983
     11 C                    -0.079411
     12 C                    -0.077635
     13 C                     0.215127
     14 O                    -0.221687
     15 O                    -0.170868
     16 O                    -0.162498
     17 O                    -0.205824
     18 C                    -0.126241
     19 C                     0.027315
     20 C                    -0.141170
     21 C                    -0.145543
     22 C                     0.024511
     23 O                    -0.185900
     24 H                     0.084082
     25 H                     0.084695
     26 H                     0.087960
     27 H                     0.077932
     28 H                     0.074560
     29 H                     0.078185
     30 H                     0.073504
     31 H                     0.082715
     32 O                    -0.200365
     33 C                    -0.127610
     34 C                     0.023765
     35 C                    -0.142650
     36 C                    -0.144927
     37 C                     0.024959
     38 O                    -0.188980
     39 H                     0.082609
     40 H                     0.086665
     41 H                     0.087286
     42 H                     0.094029
     43 H                     0.077735
     44 H                     0.072909
     45 H                     0.077738
     46 H                     0.073529
     47 H                     0.081415
     48 H                     0.094395
     49 H                     0.089401
     50 H                     0.088926
     51 H                     0.084025
     52 H                     0.088833
     53 H                     0.090874
     54 H                     0.088000
     55 H                     0.105517
     56 H                     0.085770
  ----------------------------------------
  Sum of atomic charges =    -0.000000

                    Cartesian Multipole Moments
 -----------------------------------------------------------------
    Charge (ESU x 10^10)
                -0.0000
    Dipole Moment (Debye)
         X      -1.5291      Y       0.4571      Z      -0.4619
       Tot       1.6615
    Quadrupole Moments (Debye-Ang)
        XX    -145.6463     XY      -9.0789     YY    -154.7832
        XZ      -7.4161     YZ       1.4829     ZZ    -158.2823

 Total job time:  58.81s(wall), 2789.75s(cpu)
        *  Thank you very much for using Q-Chem.  Have a nice day.  *
