 Q-Chem 5.0, Q-Chem, Inc., Pleasanton, CA (2017)
 Q-Chem 5.0.1 for Intel X86 EM64T Linux

User input:
--------------------------------------------------------------
$molecule
0  1
O -3.94934 -3.66094 2.70899
C -3.26408 -4.56952 2.26188
C -3.36658 -6.02376 2.66595
C -4.72561 -6.51235 3.19336
C -5.87841 -5.53833 3.09118
O -6.64075 -5.60131 4.22268
C -7.67624 -4.61356 4.25973
C -8.82782 -5.02484 3.34822
O -9.21498 -3.91788 2.51899
C -8.97177 -4.06922 1.19343
C -9.4517 -2.89799 0.36971
C -8.40137 -1.80459 0.12566
C -6.96539 -2.19064 0.41826
O -6.06446 -1.41207 0.69523
O -2.16555 -4.2405 1.52926
O -6.60011 -3.38718 -0.1204
O -8.68747 -5.14143 0.67073
C -5.33544 -3.70429 -0.56626
C -9.8199 -3.24968 -1.09319
C -10.79416 -2.20787 -1.64383
C -9.87861 -1.00777 -1.77544
C -8.53675 -1.64771 -1.40176
O -8.6596 -2.9796 -1.83693
H -10.38194 -2.5173 0.8505
H -8.61379 -0.8602 0.67333
H -10.25092 -4.26801 -1.20898
H -11.08388 -2.54634 -2.66476
H -11.71379 -2.03953 -1.04323
H -9.88141 -0.67915 -2.8384
H -10.11821 -0.15107 -1.10886
H -7.69194 -1.07003 -1.83854
O -6.19414 -4.94907 2.06847
C -1.793 -2.95185 1.20498
C -3.23263 -6.9398 1.4236
C -2.80588 -8.34474 1.84935
C -4.08879 -8.85034 2.46928
C -5.00989 -7.65666 2.20356
O -4.55066 -7.13786 0.98252
H -2.51363 -6.23461 3.3487
H -4.66248 -6.90447 4.23439
H -1.60181 -2.36576 2.12911
H -2.52195 -6.55703 0.65925
H -2.60813 -8.9305 0.92297
H -1.9105 -8.38259 2.50638
H -4.43567 -9.73455 1.88921
H -4.02836 -9.10567 3.54933
H -6.07459 -7.98083 2.2253
H -2.5842 -2.45544 0.60581
H -0.861 -2.98401 0.60445
H -5.32718 -4.75329 -0.92655
H -4.60458 -3.59692 0.24691
H -5.05081 -3.03285 -1.40386
H -8.543 -5.94191 2.78732
H -9.69726 -5.35333 3.95689
H -7.26598 -3.60999 3.9972
H -8.0627 -4.52336 5.29724
$end

$opt
CONSTRAINT
tors           1           2           3           4     +26.509
tors           3           4           5           6    -139.562
tors           4           5           6           7    +174.143
tors           5           6           7           8     +76.818
tors           6           7           8           9    -132.338
tors           7           8           9          10    +113.049
tors           8           9          10          11    +177.641
tors           9          10          11          12     +92.355
tors          11          12          13          14    -155.776
ENDCONSTRAINT
$end

$rem
JOBTYPE                   OPT
METHOD                    B3LYP
DFT_D                     d3_op
BASIS                     STO-3G
GEOM_OPT_MAX_CYCLES       100
GEOM_OPT_TOL_GRADIENT     300
GEOM_OPT_TOL_DISPLACEMENT 1200
GEOM_OPT_TOL_ENERGY       100
SYMMETRY                  False
THRESH                    12
SCF_CONVERGENCE           8
MAX_SUB_FILE_NUM          128
MEM_STATIC                400
MEM_TOTAL                 4000
$end
--------------------------------------------------------------

   15   -1510.1396761747      7.05E-09 Convergence criterion met
 Total energy in the final basis set = -1510.13967617
   14   -1510.2106815647      5.57E-09 Convergence criterion met
 Total energy in the final basis set = -1510.21068156
   14   -1510.2470200152      8.91E-09 Convergence criterion met
 Total energy in the final basis set = -1510.24702002
   15   -1510.2635474910      1.83E-09 Convergence criterion met
 Total energy in the final basis set = -1510.26354749
   14   -1510.2730667534      5.57E-09 Convergence criterion met
 Total energy in the final basis set = -1510.27306675
    2   -1510.2730667534      2.02E-09 Convergence criterion met
 Total energy in the final basis set = -1510.27306675
   14   -1510.2779363750      6.70E-09 Convergence criterion met
 Total energy in the final basis set = -1510.27793638
   13   -1510.2810902912      8.29E-09 Convergence criterion met
   11   -1510.2870955911      3.63E-09 Convergence criterion met
 Total energy in the final basis set = -1510.28709559
   11   -1510.2871069038      6.21E-09 Convergence criterion met
 Total energy in the final basis set = -1510.28710690
    9   -1510.2871125172      8.71E-09 Convergence criterion met
 Total energy in the final basis set = -1510.28711252
   10   -1510.2871181192      4.98E-09 Convergence criterion met
 Total energy in the final basis set = -1510.28711812
    9   -1510.2871203390      4.93E-09 Convergence criterion met
 Total energy in the final basis set = -1510.28712034
    9   -1510.2871216126      2.76E-09 Convergence criterion met
 Total energy in the final basis set = -1510.28712161

             Standard Nuclear Orientation (Angstroms)
    I     Atom           X                Y                Z
 ----------------------------------------------------------------
    1      O      -2.0750560462    -0.9257494406     2.1773416606
    2      C      -2.7038691027    -1.2862707533     1.1575486753
    3      C      -3.6119014272    -0.3732538856     0.2512572317
    4      C      -3.1993744117     1.1578362290     0.2870109041
    5      C      -1.7456800818     1.3739749357     0.8245656678
    6      O      -1.6853936321     2.5199670612     1.6924770841
    7      C      -0.3164297359     2.5589694614     2.2606029673
    8      C       0.7865511701     3.1000717300     1.2593048931
    9      O       1.9400683602     2.1728002051     1.2938257734
   10      C       2.0498032773     1.5058408936     0.0148568905
   11      C       3.3127836760     0.5898768641     0.0862575790
   12      C       3.0327298964    -0.9028806942     0.5556683782
   13      C       1.5816548330    -1.4576331766     0.2798860105
   14      O       1.0252201911    -2.3872965815     0.9147956187
   15      O      -2.6905230700    -2.6120711875     0.6350003890
   16      O       1.1171286920    -0.8860280962    -0.9286726310
   17      O       1.3274077838     1.7769351375    -0.9681299233
   18      C      -0.1594116972    -1.4747252979    -1.4003585497
   19      C       4.1022413950     0.3534145894    -1.2743354410
   20      C       5.6114162119     0.1258152582    -0.8747290031
   21      C       5.5086112707    -1.2760729479    -0.1630880397
   22      C       4.0025277216    -1.6680104752    -0.4532561224
   23      O       3.6940633118    -0.9930514456    -1.7349970300
   24      H       3.9806605835     1.0636668595     0.8281072902
   25      H       3.2907070924    -1.0677475061     1.6161506541
   26      H       3.9114558071     1.1076334817    -2.0620021530
   27      H       6.2415474834     0.0714749465    -1.7771521266
   28      H       6.0026737592     0.9159224852    -0.2142671664
   29      H       6.1935297652    -2.0128950199    -0.6114782012
   30      H       5.7150914465    -1.2164353139     0.9177083905
   31      H       3.8093539386    -2.7557830304    -0.5317500404
   32      O      -0.7386617343     0.6969536273     0.5247453673
   33      C      -1.7558200322    -3.4545427443     1.4274928196
   34      C      -3.5785216501    -0.6852402596    -1.3029721389
   35      C      -4.9065527157    -0.1226225931    -1.9368986735
   36      C      -4.6454909075     1.4280175420    -1.8495497061
   37      C      -3.1746925642     1.4667868895    -1.2755602221
   38      O      -2.5480073283     0.2409030582    -1.8311852025
   39      H      -4.6478820183    -0.4831960937     0.6243462026
   40      H      -3.9141864137     1.7876977901     0.8430824971
   41      H      -2.0409674031    -3.4740124013     2.4982189215
   42      H      -3.3268568152    -1.7345620469    -1.5486678505
   43      H      -5.0016097857    -0.4549786133    -2.9830361837
   44      H      -5.8034560280    -0.4383333801    -1.3807530105
   45      H      -4.6865153452     1.9037912094    -2.8421189688
   46      H      -5.3571074401     1.9407802500    -1.1826344303
   47      H      -2.5827491955     2.3598374785    -1.5555240183
   48      H      -0.7063377557    -3.0835392679     1.3253527984
   49      H      -1.8411148596    -4.4714404140     1.0032443079
   50      H      -0.9270252311    -0.6678719577    -1.4771775172
   51      H      -0.5059207840    -2.2638040394    -0.7087290595
   52      H       0.0258388305    -1.9138049563    -2.4003753717
   53      H       0.3974078445     3.1339612585     0.2174925831
   54      H       1.1425887112     4.1038752526     1.5677454704
   55      H      -0.0066798806     1.5447631740     2.5921049879
   56      H      -0.3926223259     3.2236054176     3.1438926875
 ----------------------------------------------------------------

    9   -1510.2871221794      4.28E-09 Convergence criterion met
 Total energy in the final basis set = -1510.28712218
 Final energy is   -1510.28712217940
 **  OPTIMIZATION CONVERGED  **

                    Orbital Energies (a.u.)
 --------------------------------------------------------------

 Alpha MOs
 -- Occupied --
-18.930 -18.927 -18.922 -18.921 -18.901 -18.883 -18.872 -18.868
-18.867 -18.859 -10.094 -10.094 -10.091 -10.089 -10.066 -10.063
-10.063 -10.058 -10.055 -10.055 -10.039 -10.039 -10.038 -10.031
-10.030 -10.025 -10.024 -10.023 -10.017 -10.016  -1.012  -1.003
 -1.000  -0.994  -0.978  -0.964  -0.934  -0.928  -0.924  -0.920
 -0.765  -0.757  -0.726  -0.719  -0.711  -0.702  -0.689  -0.649
 -0.639  -0.613  -0.592  -0.576  -0.548  -0.541  -0.538  -0.532
 -0.510  -0.503  -0.474  -0.469  -0.460  -0.455  -0.452  -0.439
 -0.434  -0.427  -0.425  -0.416  -0.406  -0.397  -0.390  -0.387
 -0.383  -0.372  -0.367  -0.360  -0.359  -0.355  -0.346  -0.340
 -0.336  -0.334  -0.331  -0.326  -0.324  -0.322  -0.318  -0.313
 -0.306  -0.302  -0.300  -0.295  -0.288  -0.283  -0.276  -0.272
 -0.265  -0.258  -0.245  -0.240  -0.239  -0.229  -0.226  -0.180
 -0.168  -0.163  -0.160  -0.152  -0.148  -0.146  -0.142  -0.141
 -0.136

          Ground-State Mulliken Net Atomic Charges

     Atom                 Charge (a.u.)
  ----------------------------------------
      1 O                    -0.214880
      2 C                     0.211069
      3 C                    -0.079319
      4 C                    -0.079707
      5 C                     0.212196
      6 O                    -0.171100
      7 C                    -0.052152
      8 C                    -0.059501
      9 O                    -0.176184
     10 C                     0.217592
     11 C                    -0.078695
     12 C                    -0.074901
     13 C                     0.216982
     14 O                    -0.228865
     15 O                    -0.175104
     16 O                    -0.156036
     17 O                    -0.201182
     18 C                    -0.145261
     19 C                     0.026888
     20 C                    -0.141919
     21 C                    -0.145203
     22 C                     0.024417
     23 O                    -0.184832
     24 H                     0.084193
     25 H                     0.084711
     26 H                     0.087743
     27 H                     0.077142
     28 H                     0.072738
     29 H                     0.077395
     30 H                     0.073496
     31 H                     0.082178
     32 O                    -0.212633
     33 C                    -0.144742
     34 C                     0.024617
     35 C                    -0.142324
     36 C                    -0.144194
     37 C                     0.027371
     38 O                    -0.184845
     39 H                     0.083758
     40 H                     0.087657
     41 H                     0.083000
     42 H                     0.094797
     43 H                     0.079680
     44 H                     0.075081
     45 H                     0.079964
     46 H                     0.075320
     47 H                     0.086931
     48 H                     0.116046
     49 H                     0.082285
     50 H                     0.115796
     51 H                     0.086534
     52 H                     0.077584
     53 H                     0.102672
     54 H                     0.080954
     55 H                     0.099713
     56 H                     0.085083
  ----------------------------------------
  Sum of atomic charges =    -0.000000

                    Cartesian Multipole Moments
 -----------------------------------------------------------------
    Charge (ESU x 10^10)
                 0.0000
    Dipole Moment (Debye)
         X      -0.9272      Y       1.1334      Z       0.5100
       Tot       1.5506
    Quadrupole Moments (Debye-Ang)
        XX    -135.7575     XY      -0.1959     YY    -153.3782
        XZ       6.3207     YZ       1.4998     ZZ    -164.7577

 Total job time:  113.99s(wall), 5437.56s(cpu)
        *  Thank you very much for using Q-Chem.  Have a nice day.  *
