 Q-Chem 5.0, Q-Chem, Inc., Pleasanton, CA (2017)
 Q-Chem 5.0.1 for Intel X86 EM64T Linux

User input:
--------------------------------------------------------------
$molecule
0  1
O -2.0750560462 -0.9257494406 2.1773416606
C -2.7038691027 -1.2862707533 1.1575486753
C -3.6119014272 -0.3732538856 0.2512572317
C -3.1993744117 1.157836229 0.2870109041
C -1.7456800818 1.3739749357 0.8245656678
O -1.6853936321 2.5199670612 1.6924770841
C -0.3164297359 2.5589694614 2.2606029673
C 0.7865511701 3.10007173 1.2593048931
O 1.9400683602 2.1728002051 1.2938257734
C 2.0498032773 1.5058408936 0.0148568905
C 3.312783676 0.5898768641 0.086257579
C 3.0327298964 -0.9028806942 0.5556683782
C 1.581654833 -1.4576331766 0.2798860105
O 1.0252201911 -2.3872965815 0.9147956187
O -2.69052307 -2.6120711875 0.635000389
O 1.117128692 -0.8860280962 -0.928672631
O 1.3274077838 1.7769351375 -0.9681299233
C -0.1594116972 -1.4747252979 -1.4003585497
C 4.102241395 0.3534145894 -1.274335441
C 5.6114162119 0.1258152582 -0.8747290031
C 5.5086112707 -1.2760729479 -0.1630880397
C 4.0025277216 -1.6680104752 -0.4532561224
O 3.6940633118 -0.9930514456 -1.73499703
H 3.9806605835 1.0636668595 0.8281072902
H 3.2907070924 -1.0677475061 1.6161506541
H 3.9114558071 1.1076334817 -2.062002153
H 6.2415474834 0.0714749465 -1.7771521266
H 6.0026737592 0.9159224852 -0.2142671664
H 6.1935297652 -2.0128950199 -0.6114782012
H 5.7150914465 -1.2164353139 0.9177083905
H 3.8093539386 -2.7557830304 -0.5317500404
O -0.7386617343 0.6969536273 0.5247453673
C -1.7558200322 -3.4545427443 1.4274928196
C -3.5785216501 -0.6852402596 -1.3029721389
C -4.9065527157 -0.1226225931 -1.9368986735
C -4.6454909075 1.428017542 -1.8495497061
C -3.1746925642 1.4667868895 -1.2755602221
O -2.5480073283 0.2409030582 -1.8311852025
H -4.6478820183 -0.4831960937 0.6243462026
H -3.9141864137 1.7876977901 0.8430824971
H -2.0409674031 -3.4740124013 2.4982189215
H -3.3268568152 -1.7345620469 -1.5486678505
H -5.0016097857 -0.4549786133 -2.9830361837
H -5.803456028 -0.4383333801 -1.3807530105
H -4.6865153452 1.9037912094 -2.8421189688
H -5.3571074401 1.94078025 -1.1826344303
H -2.5827491955 2.3598374785 -1.5555240183
H -0.7063377557 -3.0835392679 1.3253527984
H -1.8411148596 -4.471440414 1.0032443079
H -0.9270252311 -0.6678719577 -1.4771775172
H -0.505920784 -2.2638040394 -0.7087290595
H 0.0258388305 -1.9138049563 -2.4003753717
H 0.3974078445 3.1339612585 0.2174925831
H 1.1425887112 4.1038752526 1.5677454704
H -0.0066798806 1.544763174 2.5921049879
H -0.3926223259 3.2236054176 3.1438926875
$end

$rem
JOBTYPE                   OPT
METHOD                    B3LYP
DFT_D                     d3_op
BASIS                     STO-3G
GEOM_OPT_MAX_CYCLES       100
GEOM_OPT_TOL_GRADIENT     300
GEOM_OPT_TOL_DISPLACEMENT 1200
GEOM_OPT_TOL_ENERGY       100
SYMMETRY                  False
THRESH                    12
SCF_CONVERGENCE           8
MAX_SUB_FILE_NUM          128
MEM_STATIC                400
MEM_TOTAL                 4000
$end
--------------------------------------------------------------

   16   -1510.2871771771      5.95E-09 Convergence criterion met
 Total energy in the final basis set = -1510.28717718
   14   -1510.2502209264      6.63E-09 Convergence criterion met
 Total energy in the final basis set = -1510.25022093
   15   -1510.2748203949      5.67E-09 Convergence criterion met
 Total energy in the final basis set = -1510.27482039
   14   -1510.2775518797      6.86E-09 Convergence criterion met
 Total energy in the final basis set = -1510.27755188
   15   -1510.2672070355      4.41E-09 Convergence criterion met
 Total energy in the final basis set = -1510.26720704
   14   -1510.2800687194      7.31E-09 Convergence criterion met
 Total energy in the final basis set = -1510.28006872
   14   -1510.2869523921      3.64E-09 Convergence criterion met
 Total energy in the final basis set = -1510.28695239
   15   -1510.2816280314      5.80E-09 Convergence criterion met
   10   -1510.2946736162      8.82E-09 Convergence criterion met
 Total energy in the final basis set = -1510.29467362
    9   -1510.2946722646      6.90E-09 Convergence criterion met
 Total energy in the final basis set = -1510.29467226
    9   -1510.2946719873      3.71E-09 Convergence criterion met
 Total energy in the final basis set = -1510.29467199
    9   -1510.2946704990      3.81E-09 Convergence criterion met
 Total energy in the final basis set = -1510.29467050
    9   -1510.2946690575      6.28E-09 Convergence criterion met
 Total energy in the final basis set = -1510.29466906
    9   -1510.2946659306      4.84E-09 Convergence criterion met
 Total energy in the final basis set = -1510.29466593

             Standard Nuclear Orientation (Angstroms)
    I     Atom           X                Y                Z
 ----------------------------------------------------------------
    1      O       2.4304178671     0.8152674042     2.5898224690
    2      C       2.8043396465     1.2555479320     1.4795863413
    3      C       3.6984928314     0.4736823161     0.4440272048
    4      C       3.1195762221    -0.9681215685     0.1117042517
    5      C       1.7243807337    -1.2487163339     0.7624309634
    6      O       1.7846910861    -2.5246651571     1.4120270972
    7      C       0.4709367684    -2.8584277766     2.0087194701
    8      C      -0.5942128758    -3.3039497275     0.9255845938
    9      O      -1.8226187923    -2.4915496147     1.0585364526
   10      C      -1.9695187082    -1.5973818108    -0.0605719750
   11      C      -3.2897597166    -0.7948861336     0.1758614286
   12      C      -3.1243474986     0.7712880092     0.3930860503
   13      C      -1.6643246924     1.3454832303     0.3026971175
   14      O      -1.0314029061     1.8448807489     1.2642201788
   15      O       2.4965705717     2.5530944141     0.9823126887
   16      O      -1.2420727937     1.2977991955    -1.0473634236
   17      O      -1.1892817408    -1.5648570787    -1.0357058302
   18      C       0.0677676168     1.9643299052    -1.2537368201
   19      C      -4.2405352083    -0.8211328542    -1.1012944251
   20      C      -5.7013958033    -0.4501463005    -0.6266977498
   21      C      -5.5556473032     1.0989770780    -0.3890496795
   22      C      -4.0417308884     1.3267996647    -0.7826495353
   23      O      -3.8179156379     0.3611750321    -1.8806834737
   24      H      -3.7867498738    -1.2483566233     1.0513756366
   25      H      -3.5179242661     1.0572570581     1.3845024986
   26      H      -4.1594420171    -1.7385076494    -1.7158856858
   27      H      -6.4317947175    -0.6703124836    -1.4214986914
   28      H      -5.9939584174    -0.9964304217     0.2840053669
   29      H      -6.2175412820     1.6744382055    -1.0557330385
   30      H      -5.7615686168     1.3922675890     0.6526864989
   31      H      -3.7897349540     2.3526888347    -1.1133584906
   32      O       0.7011314925    -0.5325916020     0.7105634962
   33      C       1.5295558964     3.2235071286     1.8901122264
   34      C       3.7471379518     1.1225232771    -0.9991410706
   35      C       4.9626255983     0.5001437071    -1.7892516474
   36      C       4.4142140306    -0.9404913048    -2.1125182881
   37      C       2.9758876998    -0.8739033043    -1.4683941428
   38      O       2.5695135639     0.5334910053    -1.6832502614
   39      H       4.7132645031     0.3842974980     0.8740671956
   40      H       3.8140874595    -1.7710654419     0.4131616713
   41      H       1.8622262284     3.1677083671     2.9452621257
   42      H       3.6800073136     2.2268067761    -1.0022614503
   43      H       5.1577233160     1.0726539386    -2.7100995973
   44      H       5.8830881982     0.4793419174    -1.1841494738
   45      H       4.3417635557    -1.1111647530    -3.1984135387
   46      H       5.0281178360    -1.7401653958    -1.6683704445
   47      H       2.2247393334    -1.5608391851    -1.9049173124
   48      H       0.5254001090     2.7459811850     1.7796324825
   49      H       1.4920828453     4.2788125836     1.5640432046
   50      H       0.9148337638     1.2337012560    -1.2400460597
   51      H       0.2407333220     2.7433239693    -0.4889648403
   52      H       0.0142578402     2.4323264919    -2.2548043844
   53      H      -0.1823923426    -3.1631067138    -0.0986956575
   54      H      -0.8776561721    -4.3660730509     1.0719950010
   55      H       0.0585581355    -1.9883359655     2.5646892186
   56      H       0.6755438728    -3.6841371903     2.7179330417
 ----------------------------------------------------------------

    8   -1510.2946656392      9.01E-09 Convergence criterion met
 Total energy in the final basis set = -1510.29466564
 Final energy is   -1510.29466563918
 **  OPTIMIZATION CONVERGED  **

                    Orbital Energies (a.u.)
 --------------------------------------------------------------

 Alpha MOs
 -- Occupied --
-18.932 -18.926 -18.923 -18.922 -18.901 -18.884 -18.874 -18.872
-18.861 -18.860 -10.097 -10.094 -10.090 -10.090 -10.069 -10.065
-10.064 -10.061 -10.056 -10.054 -10.037 -10.036 -10.034 -10.033
-10.030 -10.024 -10.024 -10.022 -10.017 -10.016  -1.013  -1.004
 -0.999  -0.995  -0.977  -0.965  -0.937  -0.930  -0.924  -0.921
 -0.764  -0.757  -0.726  -0.719  -0.711  -0.704  -0.692  -0.646
 -0.639  -0.617  -0.592  -0.577  -0.547  -0.540  -0.538  -0.533
 -0.509  -0.506  -0.477  -0.467  -0.462  -0.454  -0.448  -0.439
 -0.435  -0.429  -0.427  -0.413  -0.406  -0.397  -0.392  -0.387
 -0.384  -0.374  -0.367  -0.359  -0.358  -0.354  -0.344  -0.341
 -0.336  -0.336  -0.331  -0.327  -0.325  -0.322  -0.320  -0.311
 -0.305  -0.302  -0.300  -0.296  -0.291  -0.283  -0.274  -0.272
 -0.269  -0.257  -0.243  -0.242  -0.236  -0.231  -0.229  -0.180
 -0.166  -0.165  -0.163  -0.153  -0.150  -0.146  -0.141  -0.139
 -0.137

          Ground-State Mulliken Net Atomic Charges

     Atom                 Charge (a.u.)
  ----------------------------------------
      1 O                    -0.218319
      2 C                     0.210600
      3 C                    -0.079499
      4 C                    -0.079896
      5 C                     0.211908
      6 O                    -0.171591
      7 C                    -0.051937
      8 C                    -0.057671
      9 O                    -0.175164
     10 C                     0.213335
     11 C                    -0.078336
     12 C                    -0.077734
     13 C                     0.218407
     14 O                    -0.221449
     15 O                    -0.173899
     16 O                    -0.159286
     17 O                    -0.203540
     18 C                    -0.145657
     19 C                     0.026784
     20 C                    -0.143881
     21 C                    -0.144523
     22 C                     0.027514
     23 O                    -0.182169
     24 H                     0.085906
     25 H                     0.083154
     26 H                     0.082842
     27 H                     0.077099
     28 H                     0.073077
     29 H                     0.077035
     30 H                     0.073222
     31 H                     0.083707
     32 O                    -0.210879
     33 C                    -0.147040
     34 C                     0.024598
     35 C                    -0.143450
     36 C                    -0.143412
     37 C                     0.027202
     38 O                    -0.184861
     39 H                     0.083991
     40 H                     0.087148
     41 H                     0.084620
     42 H                     0.095916
     43 H                     0.079155
     44 H                     0.074583
     45 H                     0.079822
     46 H                     0.075314
     47 H                     0.089283
     48 H                     0.118713
     49 H                     0.079060
     50 H                     0.116668
     51 H                     0.083254
     52 H                     0.078574
     53 H                     0.099378
     54 H                     0.083527
     55 H                     0.100047
     56 H                     0.088750
  ----------------------------------------
  Sum of atomic charges =    -0.000000

                    Cartesian Multipole Moments
 -----------------------------------------------------------------
    Charge (ESU x 10^10)
                -0.0000
    Dipole Moment (Debye)
         X       0.5878      Y      -1.2089      Z       0.1287
       Tot       1.3503
    Quadrupole Moments (Debye-Ang)
        XX    -137.4291     XY      -0.1707     YY    -149.0950
        XZ      -8.0462     YZ      -1.1086     ZZ    -167.6216

 Total job time:  121.61s(wall), 5802.95s(cpu)
        *  Thank you very much for using Q-Chem.  Have a nice day.  *
