 Q-Chem 5.0, Q-Chem, Inc., Pleasanton, CA (2017)
 Q-Chem 5.0.1 for Intel X86 EM64T Linux

User input:
--------------------------------------------------------------
$molecule
0  1
O -3.1821602404 -0.9359819506 2.1919279704
C -3.7060593901 -1.0838101131 1.0666386708
C -4.0693396249 0.041497837 0.0330667207
C -3.1822406227 1.3447756443 0.1560191565
C -1.8390948795 1.0985139439 0.9189538593
O -1.5638083975 2.2066818588 1.7870583181
C -0.2873533468 1.9359925372 2.494100334
C 0.9130173981 2.5778367514 1.6997423354
O 2.0467538276 1.6243695525 1.6820101465
C 2.5119009167 1.4378002753 0.3312268204
C 3.7216214999 0.4490390039 0.3975984388
C 3.3966229581 -1.1052841814 0.383030833
C 1.976340855 -1.5943375463 -0.0862201369
O 1.5578179277 -2.7660229978 0.0675432028
O -4.0988804568 -2.3474724458 0.5245342407
O 1.3186493503 -0.5997964256 -0.8636532067
O 2.0639351319 2.0652772005 -0.6521460392
C 0.1545754982 -1.1852619067 -1.5800072223
C 4.7026648384 0.5767205631 -0.8482840891
C 6.1348218269 0.1220602668 -0.3671429191
C 5.9089793162 -1.4273383215 -0.2064752546
C 4.4277176826 -1.5829598738 -0.7374463646
O 4.2946119264 -0.5181851988 -1.75638794
H 4.2569983906 0.6854296461 1.3350681084
H 3.6118792683 -1.5693668839 1.3618164679
H 4.6529024451 1.5511710801 -1.3716576676
H 6.8875744145 0.3406317064 -1.1414459657
H 6.4387990212 0.6118000806 0.571426668
H 6.6058496799 -2.0075585693 -0.8318391917
H 6.007870191 -1.7645594542 0.8378660469
H 4.1886203639 -2.5725291677 -1.1734056689
O -1.0706291305 0.1224680366 0.7750535257
C -3.7563887001 -3.433838201 1.4715875124
C -3.8498261274 -0.3464185837 -1.4946528617
C -4.8075634587 0.5635503668 -2.355003561
C -4.1122074877 1.9666969347 -2.1874607571
C -2.8150811937 1.5777598532 -1.374638138
O -2.5107907223 0.1988286785 -1.8237938164
H -5.1327241171 0.2976235584 0.19886571
H -3.7237031422 2.1942113265 0.6065032736
H -4.3283275706 -3.3455079892 2.4179907304
H -3.8938385685 -1.4333110592 -1.699184662
H -4.8018024858 0.2363775941 -3.4071843742
H -5.845132864 0.5505689028 -1.984776496
H -3.8419532214 2.4061990544 -3.1605028619
H -4.738110018 2.6868844637 -1.6362635676
H -1.9403603127 2.2371373868 -1.5377516181
H -2.673683411 -3.4362661272 1.7116351671
H -4.0266771324 -4.377415264 0.962817135
H 0.3955151386 -1.2109447935 -2.6614568636
H -0.7533809009 -0.5625024873 -1.4131679511
H -0.0133547877 -2.2160190829 -1.2107866254
H 0.6214778185 2.7931395479 0.647446431
H 1.2462636735 3.5220786742 2.1790975223
H -0.1220401167 0.8396712616 2.5627070817
H -0.3850310885 2.3777415949 3.5050627292
$end

$rem
JOBTYPE                   OPT
METHOD                    B3LYP
DFT_D                     d3_op
BASIS                     STO-3G
GEOM_OPT_MAX_CYCLES       100
GEOM_OPT_TOL_GRADIENT     300
GEOM_OPT_TOL_DISPLACEMENT 1200
GEOM_OPT_TOL_ENERGY       100
SYMMETRY                  False
THRESH                    12
SCF_CONVERGENCE           8
MAX_SUB_FILE_NUM          128
MEM_STATIC                400
MEM_TOTAL                 4000
$end
--------------------------------------------------------------

   16   -1510.2818217509      7.80E-09 Convergence criterion met
 Total energy in the final basis set = -1510.28182175
   14   -1510.2697342955      4.21E-09 Convergence criterion met
 Total energy in the final basis set = -1510.26973430
   14   -1510.2795640712      2.78E-09 Convergence criterion met
 Total energy in the final basis set = -1510.27956407
   15   -1510.2802696135      7.61E-09 Convergence criterion met
 Total energy in the final basis set = -1510.28026961
   13   -1510.2832722857      9.75E-09 Convergence criterion met
 Total energy in the final basis set = -1510.28327229
   14   -1510.2842510463      2.67E-09 Convergence criterion met
 Total energy in the final basis set = -1510.28425105
   14   -1510.2858112897      4.79E-09 Convergence criterion met
 Total energy in the final basis set = -1510.28581129
   14   -1510.2877391576      6.08E-09 Convergence criterion met
    9   -1510.2947893436      8.58E-09 Convergence criterion met
 Total energy in the final basis set = -1510.29478934
    9   -1510.2947903813      7.50E-09 Convergence criterion met
 Total energy in the final basis set = -1510.29479038
    9   -1510.2947917253      7.75E-09 Convergence criterion met
 Total energy in the final basis set = -1510.29479173
    9   -1510.2947928276      5.89E-09 Convergence criterion met
 Total energy in the final basis set = -1510.29479283
   10   -1510.2947968020      7.76E-09 Convergence criterion met
 Total energy in the final basis set = -1510.29479680
   10   -1510.2947987896      8.79E-09 Convergence criterion met
 Total energy in the final basis set = -1510.29479879

             Standard Nuclear Orientation (Angstroms)
    I     Atom           X                Y                Z
 ----------------------------------------------------------------
    1      O      -2.4916708741    -0.6108188021     2.1434172091
    2      C      -2.9731980591    -0.9722595089     1.0455675039
    3      C      -3.7170243070    -0.0277988140     0.0285581480
    4      C      -2.9578706531     1.3565865113    -0.1501972992
    5      C      -1.6012303806     1.4083939617     0.6310049522
    6      O      -1.6739978640     2.4645281070     1.5948657619
    7      C      -0.4308854043     2.5000923720     2.3997500151
    8      C       0.8267326880     3.0148818726     1.5881865361
    9      O       1.9102543930     2.0092998478     1.6478592077
   10      C       2.1782034911     1.4578044883     0.3467563908
   11      C       3.3471432126     0.4344404189     0.5254407053
   12      C       2.9457460788    -1.1041294500     0.5806838998
   13      C       1.4385174113    -1.4595841410     0.3029320036
   14      O       0.6409012150    -1.9250953215     1.1527308120
   15      O      -2.9246553745    -2.3027033346     0.5447906510
   16      O       1.1754948978    -1.2764988340    -1.0767937668
   17      O       1.6093015269     1.8225074494    -0.7039898178
   18      C      -0.1643676668    -1.7825992190    -1.4663236371
   19      C       4.3522400611     0.4426173017    -0.7078977741
   20      C       5.7336651659    -0.1335448973    -0.2038328576
   21      C       5.3822187757    -1.6607728763    -0.0597292997
   22      C       3.8840780534    -1.6825528243    -0.5657499357
   23      O       3.8440124704    -0.6231801123    -1.5975822656
   24      H       3.8663521907     0.7096945065     1.4604558505
   25      H       3.1958725037    -1.5256288595     1.5703598376
   26      H       4.4038386833     1.4061836946    -1.2505036320
   27      H       6.5172391728     0.0301286873    -0.9607183561
   28      H       6.0566903360     0.3226181500     0.7453569690
   29      H       6.0173978311    -2.2860521778    -0.7072055408
   30      H       5.4735130525    -2.0207058371     0.9776146186
   31      H       3.5448299196    -2.6474038410    -0.9892722616
   32      O      -0.5961894034     0.6875435567     0.4520893005
   33      C      -2.0794608353    -3.1390066167     1.4371338939
   34      C      -3.7365996552    -0.5615202926    -1.4617252151
   35      C      -4.8115322830     0.2580402083    -2.2751497429
   36      C      -4.0774273512     1.6402800910    -2.4489520358
   37      C      -2.7079033805     1.3567694509    -1.7178546060
   38      O      -2.4526353285    -0.0709566106    -2.0200710672
   39      H      -4.7435296600     0.1400246881     0.4042339200
   40      H      -3.5803075398     2.2093824951     0.1709804054
   41      H      -2.4737126554    -3.1491783670     2.4728021399
   42      H      -3.7987710505    -1.6630567010    -1.5473494846
   43      H      -5.0040027338    -0.2208444613    -3.2483357547
   44      H      -5.7646523731     0.3471113066    -1.7297458068
   45      H      -3.9041665375     1.8744911723    -3.5113544039
   46      H      -4.6266070007     2.4763515521    -1.9872417547
   47      H      -1.8520501654     1.9765692903    -2.0488131816
   48      H      -1.0304041367    -2.7539360089     1.4343363944
   49      H      -2.1195014801    -4.1596833681     1.0151040199
   50      H      -0.0476189043    -2.1887993842    -2.4888486083
   51      H      -0.9314996738    -0.9683748463    -1.4851879014
   52      H      -0.4970046404    -2.5870364983    -0.7848315186
   53      H       0.5604534314     3.1925228273     0.5226141489
   54      H       1.2161425528     3.9531716324     2.0343167673
   55      H      -0.1967004644     1.4891071591     2.8000274090
   56      H      -0.6567668570     3.1820259789     3.2428244511
 ----------------------------------------------------------------

    9   -1510.2947986952      4.16E-09 Convergence criterion met
 Total energy in the final basis set = -1510.29479870
 Final energy is   -1510.29479869521
 **  OPTIMIZATION CONVERGED  **

                    Orbital Energies (a.u.)
 --------------------------------------------------------------

 Alpha MOs
 -- Occupied --
-18.930 -18.928 -18.924 -18.921 -18.901 -18.882 -18.872 -18.868
-18.865 -18.860 -10.095 -10.093 -10.093 -10.090 -10.066 -10.064
-10.063 -10.062 -10.054 -10.053 -10.038 -10.038 -10.036 -10.031
-10.029 -10.024 -10.024 -10.022 -10.015 -10.014  -1.011  -1.004
 -1.000  -0.994  -0.978  -0.963  -0.935  -0.929  -0.926  -0.921
 -0.765  -0.756  -0.725  -0.718  -0.711  -0.703  -0.691  -0.649
 -0.639  -0.615  -0.592  -0.576  -0.547  -0.540  -0.537  -0.532
 -0.509  -0.505  -0.476  -0.467  -0.462  -0.452  -0.449  -0.438
 -0.434  -0.428  -0.426  -0.414  -0.407  -0.396  -0.392  -0.386
 -0.385  -0.373  -0.367  -0.361  -0.357  -0.352  -0.344  -0.343
 -0.336  -0.335  -0.332  -0.326  -0.324  -0.322  -0.318  -0.312
 -0.305  -0.301  -0.298  -0.296  -0.290  -0.282  -0.274  -0.272
 -0.268  -0.255  -0.246  -0.241  -0.237  -0.230  -0.227  -0.178
 -0.168  -0.165  -0.162  -0.152  -0.149  -0.147  -0.142  -0.138
 -0.136

          Ground-State Mulliken Net Atomic Charges

     Atom                 Charge (a.u.)
  ----------------------------------------
      1 O                    -0.215578
      2 C                     0.210909
      3 C                    -0.079225
      4 C                    -0.080537
      5 C                     0.212747
      6 O                    -0.171047
      7 C                    -0.050923
      8 C                    -0.056833
      9 O                    -0.174885
     10 C                     0.215971
     11 C                    -0.078476
     12 C                    -0.076893
     13 C                     0.218837
     14 O                    -0.222973
     15 O                    -0.173047
     16 O                    -0.159517
     17 O                    -0.205545
     18 C                    -0.146187
     19 C                     0.026318
     20 C                    -0.143675
     21 C                    -0.144960
     22 C                     0.027376
     23 O                    -0.182113
     24 H                     0.085019
     25 H                     0.083080
     26 H                     0.084346
     27 H                     0.076848
     28 H                     0.072468
     29 H                     0.076724
     30 H                     0.072719
     31 H                     0.083024
     32 O                    -0.214486
     33 C                    -0.145403
     34 C                     0.024425
     35 C                    -0.143429
     36 C                    -0.143402
     37 C                     0.026942
     38 O                    -0.185065
     39 H                     0.084620
     40 H                     0.086699
     41 H                     0.083113
     42 H                     0.095441
     43 H                     0.079300
     44 H                     0.074617
     45 H                     0.079862
     46 H                     0.075242
     47 H                     0.090252
     48 H                     0.118966
     49 H                     0.080518
     50 H                     0.078480
     51 H                     0.116584
     52 H                     0.081049
     53 H                     0.100155
     54 H                     0.082336
     55 H                     0.101051
     56 H                     0.088164
  ----------------------------------------
  Sum of atomic charges =    -0.000000

                    Cartesian Multipole Moments
 -----------------------------------------------------------------
    Charge (ESU x 10^10)
                -0.0000
    Dipole Moment (Debye)
         X      -0.8157      Y       0.8328      Z       0.5404
       Tot       1.2849
    Quadrupole Moments (Debye-Ang)
        XX    -139.0119     XY      -2.5209     YY    -149.5844
        XZ      10.0165     YZ       1.6379     ZZ    -164.5018

 Total job time:  119.97s(wall), 5719.25s(cpu)
        *  Thank you very much for using Q-Chem.  Have a nice day.  *
