 Q-Chem 5.0, Q-Chem, Inc., Pleasanton, CA (2017)
 Q-Chem 5.0.1 for Intel X86 EM64T Linux

User input:
--------------------------------------------------------------
$molecule
0  1
O -3.94934 -3.66094 2.70899
C -3.26408 -4.56952 2.26188
C -3.36658 -6.02376 2.66595
C -4.72561 -6.51235 3.19336
C -5.87841 -5.53833 3.09118
O -6.64075 -5.60131 4.22268
C -7.75441 -4.70208 4.20214
C -8.99314 -5.4117 3.66537
O -9.70166 -4.54564 2.76492
C -9.99963 -5.0805 1.55484
C -10.76872 -4.13247 0.6658
C -9.90141 -3.16206 -0.14927
C -8.42795 -3.50581 -0.2356
O -7.55087 -2.76546 -0.65655
O -2.19556 -4.24194 1.48703
O -8.13429 -4.83623 -0.29371
O -9.91003 -6.27624 1.29647
C -6.99814 -5.37724 -0.86597
C -11.537 -4.82702 -0.48715
C -12.6871 -3.93346 -0.95181
C -11.92087 -2.82337 -1.64071
C -10.49616 -3.38117 -1.55116
O -10.66757 -4.77624 -1.58967
H -11.53042 -3.62755 1.30274
H -9.9778 -2.11125 0.20628
H -11.92922 -5.83206 -0.2185
H -13.24838 -4.5082 -1.7235
H -13.39408 -3.60235 -0.16104
H -12.26199 -2.76495 -2.69811
H -11.994 -1.82451 -1.1583
H -9.85585 -2.94823 -2.35169
O -6.20831 -4.96983 2.05823
C -1.89849 -2.96132 1.0697
C -3.23414 -6.94444 1.42565
C -2.80643 -8.34815 1.85515
C -4.08825 -8.85242 2.47843
C -5.01038 -7.66062 2.2087
O -4.55212 -7.14561 0.9859
H -2.5109 -6.23546 3.34493
H -4.66011 -6.89844 4.23652
H -1.72154 -2.3031 1.94701
H -2.52394 -6.56553 0.65912
H -2.61033 -8.93638 0.92996
H -1.90981 -8.38477 2.51054
H -4.43471 -9.73967 1.90281
H -4.02666 -9.10245 3.55966
H -6.0751 -7.98475 2.23228
H -2.73274 -2.5563 0.4577
H -0.97904 -2.985 0.44962
H -7.01083 -6.47802 -0.72969
H -6.08016 -4.96335 -0.4015
H -6.98224 -5.15263 -1.95357
H -8.65671 -6.35796 3.18554
H -9.64187 -5.71511 4.51451
H -7.53749 -3.79222 3.59357
H -7.94884 -4.29432 5.21672
$end

$opt
CONSTRAINT
tors           1           2           3           4     +26.509
tors           3           4           5           6    -139.562
tors           4           5           6           7    +179.865
tors           5           6           7           8     +93.165
tors           6           7           8           9    -137.830
tors           7           8           9          10    +128.593
tors           8           9          10          11    +178.790
tors           9          10          11          12     +85.609
tors          11          12          13          14    -168.231
ENDCONSTRAINT
$end

$rem
JOBTYPE                   OPT
METHOD                    B3LYP
DFT_D                     d3_op
BASIS                     STO-3G
GEOM_OPT_MAX_CYCLES       100
GEOM_OPT_TOL_GRADIENT     300
GEOM_OPT_TOL_DISPLACEMENT 1200
GEOM_OPT_TOL_ENERGY       100
SYMMETRY                  False
THRESH                    12
SCF_CONVERGENCE           8
MAX_SUB_FILE_NUM          128
MEM_STATIC                400
MEM_TOTAL                 4000
$end
--------------------------------------------------------------

   16   -1510.1428571707      1.81E-09 Convergence criterion met
 Total energy in the final basis set = -1510.14285717
   14   -1510.2135387953      2.02E-09 Convergence criterion met
 Total energy in the final basis set = -1510.21353880
   14   -1510.2520298479      2.15E-09 Convergence criterion met
 Total energy in the final basis set = -1510.25202985
   14   -1510.2690575921      1.83E-09 Convergence criterion met
 Total energy in the final basis set = -1510.26905759
   14   -1510.2720310028      2.82E-09 Convergence criterion met
 Total energy in the final basis set = -1510.27203100
   14   -1510.2762335482      3.21E-09 Convergence criterion met
 Total energy in the final basis set = -1510.27623355
   13   -1510.2778834210      4.30E-09 Convergence criterion met
 Total energy in the final basis set = -1510.27788342
   13   -1510.2793967613      2.88E-09 Convergence criterion met
   10   -1510.2819395789      9.13E-09 Convergence criterion met
 Total energy in the final basis set = -1510.28193958
   11   -1510.2819605065      7.07E-09 Convergence criterion met
 Total energy in the final basis set = -1510.28196051
   10   -1510.2819672227      7.57E-09 Convergence criterion met
 Total energy in the final basis set = -1510.28196722
    9   -1510.2819701048      3.87E-09 Convergence criterion met
 Total energy in the final basis set = -1510.28197010
    9   -1510.2819719948      2.99E-09 Convergence criterion met
 Total energy in the final basis set = -1510.28197199
    9   -1510.2819738761      3.25E-09 Convergence criterion met
 Total energy in the final basis set = -1510.28197388

             Standard Nuclear Orientation (Angstroms)
    I     Atom           X                Y                Z
 ----------------------------------------------------------------
    1      O      -3.1821602404    -0.9359819506     2.1919279704
    2      C      -3.7060593901    -1.0838101131     1.0666386708
    3      C      -4.0693396249     0.0414978370     0.0330667207
    4      C      -3.1822406227     1.3447756443     0.1560191565
    5      C      -1.8390948795     1.0985139439     0.9189538593
    6      O      -1.5638083975     2.2066818588     1.7870583181
    7      C      -0.2873533468     1.9359925372     2.4941003340
    8      C       0.9130173981     2.5778367514     1.6997423354
    9      O       2.0467538276     1.6243695525     1.6820101465
   10      C       2.5119009167     1.4378002753     0.3312268204
   11      C       3.7216214999     0.4490390039     0.3975984388
   12      C       3.3966229581    -1.1052841814     0.3830308330
   13      C       1.9763408550    -1.5943375463    -0.0862201369
   14      O       1.5578179277    -2.7660229978     0.0675432028
   15      O      -4.0988804568    -2.3474724458     0.5245342407
   16      O       1.3186493503    -0.5997964256    -0.8636532067
   17      O       2.0639351319     2.0652772005    -0.6521460392
   18      C       0.1545754982    -1.1852619067    -1.5800072223
   19      C       4.7026648384     0.5767205631    -0.8482840891
   20      C       6.1348218269     0.1220602668    -0.3671429191
   21      C       5.9089793162    -1.4273383215    -0.2064752546
   22      C       4.4277176826    -1.5829598738    -0.7374463646
   23      O       4.2946119264    -0.5181851988    -1.7563879400
   24      H       4.2569983906     0.6854296461     1.3350681084
   25      H       3.6118792683    -1.5693668839     1.3618164679
   26      H       4.6529024451     1.5511710801    -1.3716576676
   27      H       6.8875744145     0.3406317064    -1.1414459657
   28      H       6.4387990212     0.6118000806     0.5714266680
   29      H       6.6058496799    -2.0075585693    -0.8318391917
   30      H       6.0078701910    -1.7645594542     0.8378660469
   31      H       4.1886203639    -2.5725291677    -1.1734056689
   32      O      -1.0706291305     0.1224680366     0.7750535257
   33      C      -3.7563887001    -3.4338382010     1.4715875124
   34      C      -3.8498261274    -0.3464185837    -1.4946528617
   35      C      -4.8075634587     0.5635503668    -2.3550035610
   36      C      -4.1122074877     1.9666969347    -2.1874607571
   37      C      -2.8150811937     1.5777598532    -1.3746381380
   38      O      -2.5107907223     0.1988286785    -1.8237938164
   39      H      -5.1327241171     0.2976235584     0.1988657100
   40      H      -3.7237031422     2.1942113265     0.6065032736
   41      H      -4.3283275706    -3.3455079892     2.4179907304
   42      H      -3.8938385685    -1.4333110592    -1.6991846620
   43      H      -4.8018024858     0.2363775941    -3.4071843742
   44      H      -5.8451328640     0.5505689028    -1.9847764960
   45      H      -3.8419532214     2.4061990544    -3.1605028619
   46      H      -4.7381100180     2.6868844637    -1.6362635676
   47      H      -1.9403603127     2.2371373868    -1.5377516181
   48      H      -2.6736834110    -3.4362661272     1.7116351671
   49      H      -4.0266771324    -4.3774152640     0.9628171350
   50      H       0.3955151386    -1.2109447935    -2.6614568636
   51      H      -0.7533809009    -0.5625024873    -1.4131679511
   52      H      -0.0133547877    -2.2160190829    -1.2107866254
   53      H       0.6214778185     2.7931395479     0.6474464310
   54      H       1.2462636735     3.5220786742     2.1790975223
   55      H      -0.1220401167     0.8396712616     2.5627070817
   56      H      -0.3850310885     2.3777415949     3.5050627292
 ----------------------------------------------------------------

    9   -1510.2819742191      1.89E-09 Convergence criterion met
 Total energy in the final basis set = -1510.28197422
 Final energy is   -1510.28197421907
 **  OPTIMIZATION CONVERGED  **

                    Orbital Energies (a.u.)
 --------------------------------------------------------------

 Alpha MOs
 -- Occupied --
-18.937 -18.931 -18.922 -18.915 -18.900 -18.882 -18.877 -18.871
-18.870 -18.852 -10.102 -10.096 -10.093 -10.083 -10.067 -10.064
-10.064 -10.064 -10.059 -10.054 -10.053 -10.042 -10.041 -10.031
-10.030 -10.026 -10.024 -10.021 -10.016 -10.015  -1.015  -1.009
 -1.002  -0.991  -0.979  -0.964  -0.939  -0.932  -0.927  -0.915
 -0.768  -0.756  -0.728  -0.718  -0.713  -0.702  -0.691  -0.662
 -0.634  -0.615  -0.594  -0.575  -0.549  -0.542  -0.537  -0.531
 -0.515  -0.503  -0.478  -0.466  -0.462  -0.457  -0.452  -0.440
 -0.436  -0.429  -0.425  -0.412  -0.411  -0.400  -0.396  -0.393
 -0.384  -0.378  -0.368  -0.362  -0.359  -0.355  -0.349  -0.344
 -0.337  -0.334  -0.332  -0.326  -0.325  -0.323  -0.317  -0.316
 -0.308  -0.301  -0.301  -0.296  -0.291  -0.288  -0.281  -0.274
 -0.261  -0.257  -0.252  -0.239  -0.239  -0.228  -0.222  -0.183
 -0.176  -0.163  -0.161  -0.154  -0.150  -0.149  -0.147  -0.138
 -0.137

          Ground-State Mulliken Net Atomic Charges

     Atom                 Charge (a.u.)
  ----------------------------------------
      1 O                    -0.211648
      2 C                     0.213022
      3 C                    -0.079265
      4 C                    -0.079182
      5 C                     0.212694
      6 O                    -0.171663
      7 C                    -0.054591
      8 C                    -0.058121
      9 O                    -0.176773
     10 C                     0.218779
     11 C                    -0.079543
     12 C                    -0.076111
     13 C                     0.209340
     14 O                    -0.224593
     15 O                    -0.170962
     16 O                    -0.166437
     17 O                    -0.208909
     18 C                    -0.145851
     19 C                     0.025730
     20 C                    -0.143139
     21 C                    -0.144952
     22 C                     0.024999
     23 O                    -0.188135
     24 H                     0.083921
     25 H                     0.084229
     26 H                     0.086926
     27 H                     0.076959
     28 H                     0.072420
     29 H                     0.077443
     30 H                     0.073572
     31 H                     0.084088
     32 O                    -0.211166
     33 C                    -0.128037
     34 C                     0.025630
     35 C                    -0.142011
     36 C                    -0.144530
     37 C                     0.026496
     38 O                    -0.186554
     39 H                     0.085230
     40 H                     0.088023
     41 H                     0.087974
     42 H                     0.094929
     43 H                     0.079827
     44 H                     0.074740
     45 H                     0.080590
     46 H                     0.075327
     47 H                     0.087762
     48 H                     0.095780
     49 H                     0.091291
     50 H                     0.076099
     51 H                     0.111697
     52 H                     0.091734
     53 H                     0.101082
     54 H                     0.080131
     55 H                     0.106742
     56 H                     0.086965
  ----------------------------------------
  Sum of atomic charges =    -0.000000

                    Cartesian Multipole Moments
 -----------------------------------------------------------------
    Charge (ESU x 10^10)
                 0.0000
    Dipole Moment (Debye)
         X      -1.8185      Y       1.0776      Z       0.9968
       Tot       2.3371
    Quadrupole Moments (Debye-Ang)
        XX    -134.5013     XY       0.1348     YY    -155.3743
        XZ       8.7825     YZ       0.5924     ZZ    -161.9287

 Total job time:  98.22s(wall), 4683.89s(cpu)
        *  Thank you very much for using Q-Chem.  Have a nice day.  *
