 Q-Chem 5.0, Q-Chem, Inc., Pleasanton, CA (2017)
 Q-Chem 5.0.1 for Intel X86 EM64T Linux

User input:
--------------------------------------------------------------
$molecule
0  1
O -3.94934 -3.66094 2.70899
C -3.26408 -4.56952 2.26188
C -3.36658 -6.02376 2.66595
C -4.77087 -6.57154 2.96885
C -5.93343 -5.65362 2.66232
O -7.06672 -6.12399 3.26218
C -8.18334 -5.2381 3.12942
C -8.77131 -5.3402 1.72586
O -8.97481 -4.02584 1.18369
C -8.1899 -3.7035 0.12579
C -8.45642 -2.31421 -0.40287
C -7.7395 -1.1856 0.35247
C -6.61047 -1.61592 1.26725
O -6.07233 -0.91116 2.10885
O -2.02674 -4.27312 1.76853
O -5.78837 -2.5119 0.6692
O -7.53038 -4.51515 -0.51361
C -4.50057 -2.1964 0.29058
C -7.95735 -2.03617 -1.84191
C -8.7731 -0.89715 -2.4551
C -8.26464 0.28168 -1.64773
C -7.15595 -0.40103 -0.83784
O -6.70202 -1.42888 -1.68516
H -9.56389 -2.19382 -0.42321
H -8.43997 -0.58336 0.97167
H -7.99238 -2.92751 -2.50516
H -8.42387 -0.78362 -3.50678
H -9.87604 -1.03245 -2.45339
H -7.84266 1.03285 -2.3516
H -9.01437 0.76006 -0.98083
H -6.39189 0.33954 -0.51388
O -5.95994 -4.94228 1.67165
C -1.44537 -3.03142 1.62558
C -2.97395 -6.9619 1.49707
C -2.56317 -8.33151 2.03803
C -3.90931 -8.88776 2.44537
C -4.82658 -7.75259 1.98363
O -4.18611 -7.23976 0.84365
H -2.65142 -6.17653 3.50526
H -4.87009 -6.90845 4.02566
H -1.48039 -2.473 2.585
H -2.1605 -6.56381 0.85285
H -2.18084 -8.92965 1.17986
H -1.79426 -8.30629 2.83988
H -4.10724 -9.80469 1.84649
H -4.02571 -9.10948 3.5283
H -5.86137 -8.1324 1.831
H -1.91268 -2.45877 0.80888
H -0.38315 -3.1715 1.33897
H -4.50138 -1.4138 -0.49406
H -4.01124 -3.10186 -0.12218
H -3.94036 -1.78974 1.15373
H -8.14206 -6.00741 1.09719
H -9.74418 -5.87539 1.76317
H -7.87965 -4.195 3.38278
H -8.96749 -5.51906 3.86436
$end

$opt
CONSTRAINT
tors           1           2           3           4     +36.432
tors           3           4           5           6    -165.660
tors           4           5           6           7    +174.143
tors           5           6           7           8     +76.818
tors           6           7           8           9    -132.338
tors           7           8           9          10    +113.049
tors           8           9          10          11    +179.677
tors           9          10          11          12     +82.914
tors          11          12          13          14    -167.185
ENDCONSTRAINT
$end

$rem
JOBTYPE                   OPT
METHOD                    B3LYP
DFT_D                     d3_op
BASIS                     STO-3G
GEOM_OPT_MAX_CYCLES       100
GEOM_OPT_TOL_GRADIENT     300
GEOM_OPT_TOL_DISPLACEMENT 1200
GEOM_OPT_TOL_ENERGY       100
SYMMETRY                  False
THRESH                    12
SCF_CONVERGENCE           8
MAX_SUB_FILE_NUM          128
MEM_STATIC                400
MEM_TOTAL                 4000
$end
--------------------------------------------------------------

   16   -1510.1014107756      2.04E-09 Convergence criterion met
 Total energy in the final basis set = -1510.10141078
   14   -1510.1688545332      8.92E-09 Convergence criterion met
 Total energy in the final basis set = -1510.16885453
   15   -1510.2135025788      2.48E-09 Convergence criterion met
 Total energy in the final basis set = -1510.21350258
   14   -1510.2373805085      7.03E-09 Convergence criterion met
 Total energy in the final basis set = -1510.23738051
   14   -1510.2511377212      4.56E-09 Convergence criterion met
 Total energy in the final basis set = -1510.25113772
   14   -1510.2599156492      3.48E-09 Convergence criterion met
 Total energy in the final basis set = -1510.25991565
   12   -1510.2657503629      9.75E-09 Convergence criterion met
 Total energy in the final basis set = -1510.26575036
   13   -1510.2690687723      6.26E-09 Convergence criterion met
   11   -1510.2737903932      5.85E-09 Convergence criterion met
 Total energy in the final basis set = -1510.27379039
   11   -1510.2738287002      7.60E-09 Convergence criterion met
 Total energy in the final basis set = -1510.27382870
   11   -1510.2738480968      6.29E-09 Convergence criterion met
 Total energy in the final basis set = -1510.27384810
   11   -1510.2738599279      4.05E-09 Convergence criterion met
 Total energy in the final basis set = -1510.27385993
   11   -1510.2738607959      3.79E-09 Convergence criterion met
 Total energy in the final basis set = -1510.27386080
    9   -1510.2738627484      6.62E-09 Convergence criterion met
 Total energy in the final basis set = -1510.27386275

             Standard Nuclear Orientation (Angstroms)
    I     Atom           X                Y                Z
 ----------------------------------------------------------------
    1      O      -1.9649147576    -1.8523662472     1.7302098031
    2      C      -2.7503612697    -1.8587533506     0.7549448293
    3      C      -3.7779874002    -0.7478241306     0.3448250286
    4      C      -3.3385893178     0.7531161125     0.5703475426
    5      C      -1.8037505954     1.0367743023     0.7693342114
    6      O      -1.7403468895     2.3730488824     1.2821540067
    7      C      -0.3689165797     2.7732745514     1.6650867868
    8      C       0.5530260961     3.1386402207     0.4284784985
    9      O       1.8761167546     2.4841159619     0.5011157644
   10      C       2.0582093209     1.5037327793    -0.5372895014
   11      C       3.5003407931     0.9231464118    -0.3159633623
   12      C       3.7057878255    -0.2269615413     0.7522024933
   13      C       2.4708409669    -1.1456600532     1.0579266667
   14      O       2.3687116948    -1.9464969080     2.0146937810
   15      O      -2.9373112633    -2.9790424965    -0.1178293110
   16      O       1.5908000499    -1.1086354611    -0.0585773846
   17      O       1.2454371651     1.3038589706    -1.4628806936
   18      C       0.5787267888    -2.1817198557     0.0500240886
   19      C       4.1615326589     0.2748004161    -1.6117930741
   20      C       5.7123698299     0.5463854671    -1.5136972721
   21      C       6.0878790454    -0.3889837087    -0.3031682380
   22      C       4.7227078067    -1.1508151180    -0.0603833140
   23      O       4.0834292094    -1.1878458390    -1.3953871643
   24      H       4.1064096479     1.7901871821     0.0052376457
   25      H       4.1309923908     0.1514591764     1.6982242752
   26      H       3.6745330726     0.5526570519    -2.5665791798
   27      H       6.2167232068     0.2258723166    -2.4395046329
   28      H       5.9484735133     1.6062361081    -1.3277419199
   29      H       6.8866951950    -1.1000107190    -0.5669381134
   30      H       6.4024344759     0.1785844162     0.5873293748
   31      H       4.8247538721    -2.1739085105     0.3514822483
   32      O      -0.8078140822     0.3298617342     0.5204048827
   33      C      -2.1324655605    -4.1418324555     0.3224461408
   34      C      -4.1711634980    -0.7348001342    -1.1988362782
   35      C      -5.6213911861    -0.1275015506    -1.3142243072
   36      C      -5.3346791786     1.3813496359    -0.9692831247
   37      C      -3.7591210101     1.3752774802    -0.8365732932
   38      O      -3.3189423107     0.3250721619    -1.7828175818
   39      H      -4.6830652248    -0.9469474226     0.9507775258
   40      H      -3.8837343189     1.2218547522     1.4079894644
   41      H      -1.6299291745    -3.9110684275     1.2825976142
   42      H      -4.0047423159    -1.7022559409    -1.7098432115
   43      H      -6.0019735755    -0.2398597243    -2.3420008702
   44      H      -6.3331066349    -0.5998575688    -0.6186522879
   45      H      -5.6500678455     2.0525681941    -1.7837119331
   46      H      -5.8244955036     1.7047180254    -0.0367897852
   47      H      -3.2658172598     2.3399993881    -1.0651052432
   48      H      -1.3748897483    -4.3785253143    -0.4500342214
   49      H      -2.8118696793    -5.0081823318     0.4429912524
   50      H       1.0630248139    -3.1760653923     0.1349106074
   51      H      -0.0088590667    -2.1301558376    -0.8846132458
   52      H      -0.1024252704    -2.0271192299     0.9134318321
   53      H       0.0567673308     2.8195248535    -0.5158258120
   54      H       0.7266515045     4.2339605988     0.3956502142
   55      H       0.1275751230     1.9602391197     2.2401797599
   56      H      -0.5007252933     3.6542217920     2.3235815261
 ----------------------------------------------------------------

    9   -1510.2738635941      1.81E-09 Convergence criterion met
 Total energy in the final basis set = -1510.27386359
 Final energy is   -1510.27386359408
 **  OPTIMIZATION CONVERGED  **

                    Orbital Energies (a.u.)
 --------------------------------------------------------------

 Alpha MOs
 -- Occupied --
-18.937 -18.928 -18.921 -18.919 -18.888 -18.881 -18.880 -18.879
-18.873 -18.853 -10.105 -10.099 -10.094 -10.082 -10.071 -10.063
-10.061 -10.060 -10.058 -10.054 -10.052 -10.041 -10.038 -10.037
-10.030 -10.029 -10.021 -10.020 -10.016 -10.014  -1.015  -1.010
 -1.002  -0.994  -0.971  -0.963  -0.941  -0.936  -0.928  -0.917
 -0.764  -0.756  -0.725  -0.718  -0.713  -0.701  -0.690  -0.662
 -0.642  -0.618  -0.595  -0.578  -0.544  -0.538  -0.537  -0.531
 -0.515  -0.503  -0.476  -0.471  -0.462  -0.454  -0.451  -0.435
 -0.435  -0.428  -0.426  -0.414  -0.411  -0.400  -0.399  -0.393
 -0.387  -0.378  -0.372  -0.360  -0.360  -0.355  -0.348  -0.345
 -0.336  -0.331  -0.329  -0.326  -0.324  -0.320  -0.317  -0.311
 -0.305  -0.302  -0.301  -0.299  -0.293  -0.288  -0.279  -0.273
 -0.261  -0.256  -0.248  -0.237  -0.234  -0.230  -0.227  -0.183
 -0.178  -0.165  -0.161  -0.157  -0.151  -0.147  -0.144  -0.136
 -0.134

          Ground-State Mulliken Net Atomic Charges

     Atom                 Charge (a.u.)
  ----------------------------------------
      1 O                    -0.212318
      2 C                     0.218948
      3 C                    -0.079423
      4 C                    -0.077406
      5 C                     0.213994
      6 O                    -0.179724
      7 C                    -0.050784
      8 C                    -0.057082
      9 O                    -0.180177
     10 C                     0.220651
     11 C                    -0.078336
     12 C                    -0.076525
     13 C                     0.207326
     14 O                    -0.222040
     15 O                    -0.171037
     16 O                    -0.159543
     17 O                    -0.201145
     18 C                    -0.130507
     19 C                     0.025551
     20 C                    -0.142245
     21 C                    -0.145409
     22 C                     0.024465
     23 O                    -0.188139
     24 H                     0.082873
     25 H                     0.083857
     26 H                     0.087921
     27 H                     0.076823
     28 H                     0.072152
     29 H                     0.077248
     30 H                     0.073221
     31 H                     0.082908
     32 O                    -0.200669
     33 C                    -0.135492
     34 C                     0.023906
     35 C                    -0.143018
     36 C                    -0.144945
     37 C                     0.025644
     38 O                    -0.188525
     39 H                     0.084955
     40 H                     0.087204
     41 H                     0.103236
     42 H                     0.094395
     43 H                     0.078472
     44 H                     0.072912
     45 H                     0.078479
     46 H                     0.073653
     47 H                     0.084361
     48 H                     0.088387
     49 H                     0.086435
     50 H                     0.077653
     51 H                     0.088719
     52 H                     0.103225
     53 H                     0.100339
     54 H                     0.081759
     55 H                     0.094266
     56 H                     0.088553
  ----------------------------------------
  Sum of atomic charges =    -0.000000

                    Cartesian Multipole Moments
 -----------------------------------------------------------------
    Charge (ESU x 10^10)
                 0.0000
    Dipole Moment (Debye)
         X      -1.6140      Y       1.4273      Z       0.6931
       Tot       2.2633
    Quadrupole Moments (Debye-Ang)
        XX    -135.6588     XY       6.3778     YY    -148.3187
        XZ      -2.3548     YZ       3.0819     ZZ    -167.9722

 Total job time:  88.14s(wall), 4206.37s(cpu)
        *  Thank you very much for using Q-Chem.  Have a nice day.  *
