 Q-Chem 5.0, Q-Chem, Inc., Pleasanton, CA (2017)
 Q-Chem 5.0.1 for Intel X86 EM64T Linux

User input:
--------------------------------------------------------------
$molecule
0  1
O -1.9649147576 -1.8523662472 1.7302098031
C -2.7503612697 -1.8587533506 0.7549448293
C -3.7779874002 -0.7478241306 0.3448250286
C -3.3385893178 0.7531161125 0.5703475426
C -1.8037505954 1.0367743023 0.7693342114
O -1.7403468895 2.3730488824 1.2821540067
C -0.3689165797 2.7732745514 1.6650867868
C 0.5530260961 3.1386402207 0.4284784985
O 1.8761167546 2.4841159619 0.5011157644
C 2.0582093209 1.5037327793 -0.5372895014
C 3.5003407931 0.9231464118 -0.3159633623
C 3.7057878255 -0.2269615413 0.7522024933
C 2.4708409669 -1.1456600532 1.0579266667
O 2.3687116948 -1.946496908 2.014693781
O -2.9373112633 -2.9790424965 -0.117829311
O 1.5908000499 -1.1086354611 -0.0585773846
O 1.2454371651 1.3038589706 -1.4628806936
C 0.5787267888 -2.1817198557 0.0500240886
C 4.1615326589 0.2748004161 -1.6117930741
C 5.7123698299 0.5463854671 -1.5136972721
C 6.0878790454 -0.3889837087 -0.303168238
C 4.7227078067 -1.150815118 -0.060383314
O 4.0834292094 -1.187845839 -1.3953871643
H 4.1064096479 1.7901871821 0.0052376457
H 4.1309923908 0.1514591764 1.6982242752
H 3.6745330726 0.5526570519 -2.5665791798
H 6.2167232068 0.2258723166 -2.4395046329
H 5.9484735133 1.6062361081 -1.3277419199
H 6.886695195 -1.100010719 -0.5669381134
H 6.4024344759 0.1785844162 0.5873293748
H 4.8247538721 -2.1739085105 0.3514822483
O -0.8078140822 0.3298617342 0.5204048827
C -2.1324655605 -4.1418324555 0.3224461408
C -4.171163498 -0.7348001342 -1.1988362782
C -5.6213911861 -0.1275015506 -1.3142243072
C -5.3346791786 1.3813496359 -0.9692831247
C -3.7591210101 1.3752774802 -0.8365732932
O -3.3189423107 0.3250721619 -1.7828175818
H -4.6830652248 -0.9469474226 0.9507775258
H -3.8837343189 1.2218547522 1.4079894644
H -1.6299291745 -3.9110684275 1.2825976142
H -4.0047423159 -1.7022559409 -1.7098432115
H -6.0019735755 -0.2398597243 -2.3420008702
H -6.3331066349 -0.5998575688 -0.6186522879
H -5.6500678455 2.0525681941 -1.7837119331
H -5.8244955036 1.7047180254 -0.0367897852
H -3.2658172598 2.3399993881 -1.0651052432
H -1.3748897483 -4.3785253143 -0.4500342214
H -2.8118696793 -5.0081823318 0.4429912524
H 1.0630248139 -3.1760653923 0.1349106074
H -0.0088590667 -2.1301558376 -0.8846132458
H -0.1024252704 -2.0271192299 0.9134318321
H 0.0567673308 2.8195248535 -0.515825812
H 0.7266515045 4.2339605988 0.3956502142
H 0.127575123 1.9602391197 2.2401797599
H -0.5007252933 3.654221792 2.3235815261
$end

$rem
JOBTYPE                   OPT
METHOD                    B3LYP
DFT_D                     d3_op
BASIS                     STO-3G
GEOM_OPT_MAX_CYCLES       100
GEOM_OPT_TOL_GRADIENT     300
GEOM_OPT_TOL_DISPLACEMENT 1200
GEOM_OPT_TOL_ENERGY       100
SYMMETRY                  False
THRESH                    12
SCF_CONVERGENCE           8
MAX_SUB_FILE_NUM          128
MEM_STATIC                400
MEM_TOTAL                 4000
$end
--------------------------------------------------------------

   16   -1510.2738051237      5.89E-09 Convergence criterion met
 Total energy in the final basis set = -1510.27380512
   14   -1510.2713822207      3.15E-09 Convergence criterion met
 Total energy in the final basis set = -1510.27138222
   13   -1510.2749807363      9.92E-09 Convergence criterion met
 Total energy in the final basis set = -1510.27498074
   14   -1510.2756734936      2.76E-09 Convergence criterion met
 Total energy in the final basis set = -1510.27567349
   14   -1510.2794224962      3.06E-09 Convergence criterion met
 Total energy in the final basis set = -1510.27942250
   14   -1510.2794146215      6.05E-09 Convergence criterion met
 Total energy in the final basis set = -1510.27941462
   13   -1510.2813167563      6.83E-09 Convergence criterion met
 Total energy in the final basis set = -1510.28131676
   14   -1510.2779880755      2.86E-09 Convergence criterion met
   11   -1510.2998197833      3.81E-09 Convergence criterion met
 Total energy in the final basis set = -1510.29981978
   10   -1510.2998302012      8.95E-09 Convergence criterion met
 Total energy in the final basis set = -1510.29983020
   10   -1510.2998335862      5.98E-09 Convergence criterion met
 Total energy in the final basis set = -1510.29983359
   11   -1510.2998400368      3.26E-09 Convergence criterion met
 Total energy in the final basis set = -1510.29984004
   10   -1510.2998440305      6.53E-09 Convergence criterion met
 Total energy in the final basis set = -1510.29984403
   11   -1510.2998464435      2.96E-09 Convergence criterion met
 Total energy in the final basis set = -1510.29984644

             Standard Nuclear Orientation (Angstroms)
    I     Atom           X                Y                Z
 ----------------------------------------------------------------
    1      O      -4.8315999800    -1.5627866574     1.8749546580
    2      C      -3.9279159235    -1.5091471121     1.0116698995
    3      C      -3.8381284619    -0.4853136562    -0.1797291942
    4      C      -2.8984739173     0.7586396205     0.1018153608
    5      C      -2.1798670298     0.6896177382     1.4902873391
    6      O      -1.2802384831     1.7906760815     1.5616263416
    7      C      -0.4208884444     1.7093960267     2.7646112621
    8      C       0.8721653559     2.5450542000     2.4649192934
    9      O       1.9393037531     1.7906905527     1.7680274824
   10      C       1.7382096519     1.7613278020     0.3467500090
   11      C       3.0784261141     1.2644227491    -0.3046746891
   12      C       3.5244974409    -0.2043103779     0.0855433634
   13      C       2.4544427471    -1.0083830026     0.8999603923
   14      O       2.6553583130    -1.7931611111     1.8525903889
   15      O      -2.8741509895    -2.4738023708     0.8746265952
   16      O       1.1852710408    -0.7527781747     0.3050029789
   17      O       0.7176897624     2.1835997827    -0.2388367972
   18      C       0.1374846838    -1.6486857210     0.8500849899
   19      C       2.9629563308     1.1512520352    -1.8816063274
   20      C       4.4227971843     1.1973203318    -2.4776497871
   21      C       4.9563848420    -0.2258355747    -2.0653891383
   22      C       3.6801884705    -0.8436640282    -1.3658715453
   23      O       2.5469879343    -0.2519155305    -2.1102531156
   24      H       3.8637063277     1.9872967079    -0.0151811645
   25      H       4.4748862073    -0.2120950634     0.6466587796
   26      H       2.2302295990     1.8501046698    -2.3299268613
   27      H       4.3887182594     1.3129074447    -3.5727299033
   28      H       5.0229545672     2.0178731886    -2.0532098901
   29      H       5.2387993202    -0.8238936533    -2.9463307305
   30      H       5.8193275714    -0.1755919952    -1.3821667779
   31      H       3.6226002456    -1.9494443789    -1.3864141136
   32      O      -2.3047785840    -0.1827422406     2.3794746498
   33      C      -2.8969327792    -3.4239711923     2.0078442602
   34      C      -3.1394454490    -1.0939240821    -1.4687178403
   35      C      -3.4738137637    -0.1688536075    -2.7036846961
   36      C      -2.5420115393     1.0687406803    -2.4224921138
   37      C      -1.8410196667     0.6331156496    -1.0805967067
   38      O      -1.6976360045    -0.8349145812    -1.2374458230
   39      H      -4.8672954103    -0.1493770575    -0.3976059807
   40      H      -3.4516451954     1.7130429987     0.0377390688
   41      H      -3.8230225913    -3.2731778959     2.5989165290
   42      H      -3.3167088159    -2.1755968833    -1.6214963733
   43      H      -3.2029435799    -0.6722912191    -3.6452673169
   44      H      -4.5414589080     0.1006492666    -2.7409848869
   45      H      -1.7924937845     1.1978447978    -3.2193130818
   46      H      -3.1043471089     2.0092586787    -2.3094163186
   47      H      -0.8613456333     1.1167929558    -0.8621287008
   48      H      -2.0108992760    -3.2493648124     2.6502023437
   49      H      -2.8595926143    -4.4540533244     1.6033271450
   50      H       0.4753905882    -2.7033425391     0.8433067824
   51      H      -0.7372377645    -1.5097135413     0.1682669980
   52      H      -0.1318413078    -1.3720759163     1.8892215744
   53      H       0.5809569019     3.4456511593     1.8821368202
   54      H       1.3263915019     2.8598371470     3.4267611702
   55      H      -0.1686229371     0.6543644266     3.0047322402
   56      H      -0.9485722014     2.1480888796     3.6409016371
 ----------------------------------------------------------------

    9   -1510.2998472836      9.16E-09 Convergence criterion met
 Total energy in the final basis set = -1510.29984728
 Final energy is   -1510.29984728361
 **  OPTIMIZATION CONVERGED  **

                    Orbital Energies (a.u.)
 --------------------------------------------------------------

 Alpha MOs
 -- Occupied --
-18.941 -18.935 -18.920 -18.919 -18.896 -18.885 -18.884 -18.881
-18.862 -18.859 -10.106 -10.105 -10.090 -10.087 -10.081 -10.079
-10.059 -10.057 -10.056 -10.051 -10.047 -10.037 -10.036 -10.033
-10.032 -10.026 -10.019 -10.018 -10.018 -10.016  -1.022  -1.012
 -0.997  -0.997  -0.971  -0.967  -0.945  -0.940  -0.923  -0.923
 -0.763  -0.760  -0.730  -0.720  -0.713  -0.703  -0.697  -0.648
 -0.640  -0.619  -0.595  -0.581  -0.544  -0.540  -0.535  -0.534
 -0.514  -0.507  -0.488  -0.472  -0.463  -0.459  -0.444  -0.439
 -0.432  -0.430  -0.428  -0.411  -0.405  -0.402  -0.399  -0.397
 -0.391  -0.381  -0.369  -0.365  -0.359  -0.352  -0.351  -0.349
 -0.337  -0.335  -0.334  -0.329  -0.328  -0.322  -0.320  -0.310
 -0.309  -0.304  -0.301  -0.297  -0.289  -0.287  -0.277  -0.275
 -0.269  -0.257  -0.251  -0.241  -0.237  -0.231  -0.225  -0.191
 -0.175  -0.164  -0.162  -0.160  -0.154  -0.149  -0.143  -0.140
 -0.139

          Ground-State Mulliken Net Atomic Charges

     Atom                 Charge (a.u.)
  ----------------------------------------
      1 O                    -0.220913
      2 C                     0.215607
      3 C                    -0.082434
      4 C                    -0.078976
      5 C                     0.215769
      6 O                    -0.167172
      7 C                    -0.048749
      8 C                    -0.047482
      9 O                    -0.175057
     10 C                     0.223073
     11 C                    -0.077917
     12 C                    -0.078498
     13 C                     0.207283
     14 O                    -0.217872
     15 O                    -0.174127
     16 O                    -0.173233
     17 O                    -0.212592
     18 C                    -0.148152
     19 C                     0.024530
     20 C                    -0.143631
     21 C                    -0.144401
     22 C                     0.026174
     23 O                    -0.184485
     24 H                     0.082913
     25 H                     0.083821
     26 H                     0.087790
     27 H                     0.077430
     28 H                     0.072154
     29 H                     0.077723
     30 H                     0.073517
     31 H                     0.083028
     32 O                    -0.210184
     33 C                    -0.134015
     34 C                     0.027701
     35 C                    -0.143862
     36 C                    -0.143028
     37 C                     0.018856
     38 O                    -0.184268
     39 H                     0.083998
     40 H                     0.087462
     41 H                     0.100844
     42 H                     0.088417
     43 H                     0.078564
     44 H                     0.073194
     45 H                     0.080645
     46 H                     0.073553
     47 H                     0.111920
     48 H                     0.085692
     49 H                     0.082104
     50 H                     0.078842
     51 H                     0.122530
     52 H                     0.073160
     53 H                     0.095728
     54 H                     0.091491
     55 H                     0.098362
     56 H                     0.087175
  ----------------------------------------
  Sum of atomic charges =     0.000000

                    Cartesian Multipole Moments
 -----------------------------------------------------------------
    Charge (ESU x 10^10)
                 0.0000
    Dipole Moment (Debye)
         X       1.1982      Y       2.5194      Z      -1.0056
       Tot       2.9655
    Quadrupole Moments (Debye-Ang)
        XX    -154.8932     XY       2.8876     YY    -153.1151
        XZ       4.1311     YZ       5.9392     ZZ    -159.5264

 Total job time:  167.45s(wall), 7930.60s(cpu)
        *  Thank you very much for using Q-Chem.  Have a nice day.  *
