 Q-Chem 5.0, Q-Chem, Inc., Pleasanton, CA (2017)
 Q-Chem 5.0.1 for Intel X86 EM64T Linux

User input:
--------------------------------------------------------------
$molecule
0  1
O -1.4747298491 -0.7525740479 2.0904314743
C -2.316961927 -1.2845065015 1.3331617483
C -3.2451486289 -0.5746128441 0.278932201
C -3.1679124041 1.0028111609 0.312379528
C -1.7309788657 1.4545544013 0.7468748527
O -1.7588433684 2.6570236152 1.5344880621
C -0.4251551923 2.7921561844 2.1654926065
C 0.7381153845 3.3073542483 1.2222783872
O 1.7713800849 2.249961498 1.0936730967
C 1.83619108 1.7216584211 -0.2393101494
C 2.9854785948 0.6506904123 -0.2162318158
C 2.7463412494 -0.7618420112 0.4816623335
C 1.3128156569 -1.4240617092 0.7535343574
O 1.1539687502 -2.05538908 1.8361849481
O -2.4930472112 -2.6922606524 1.2081184255
O 0.2548797814 -1.5420206334 -0.1759845135
O 1.1884135317 2.1524735496 -1.2169592272
C 0.4536448444 -0.9874688797 -1.5386197276
C 3.669822261 0.2491333923 -1.5899003703
C 5.1974351416 0.0133334592 -1.2871396427
C 5.1233783953 -1.3051995376 -0.4243391551
C 3.5879673307 -1.6707979264 -0.5261474707
O 3.2136574111 -1.1368085454 -1.8629334242
H 3.7595266806 1.1455255768 0.3997129579
H 3.2151667937 -0.7617073531 1.4811903268
H 3.430874965 0.9103714054 -2.4455010561
H 5.7517358032 -0.1523942686 -2.2251209978
H 5.6571007265 0.8554022958 -0.7456978795
H 5.7402798949 -2.1080058124 -0.858019752
H 5.4366660747 -1.1458419357 0.6199532446
H 3.3576453985 -2.7526976553 -0.4705743047
O -0.6567010929 0.9449296445 0.3659241933
C -1.4818885562 -3.3938189148 2.0444306862
C -3.0217031748 -0.8767886617 -1.2687215664
C -4.4375830714 -0.7409224835 -1.9511769147
C -4.679511928 0.8090576544 -1.8024048289
C -3.2791076451 1.2952456141 -1.2491383783
O -2.3127357402 0.31280943 -1.7965219049
H -4.275943213 -0.8829078641 0.5366128207
H -3.949949058 1.4802959446 0.9263617019
H -1.7932142037 -3.3959871309 3.1090719724
H -2.4608882294 -1.8049831716 -1.488453893
H -4.3801595835 -1.0364816149 -3.0113592543
H -5.2106302405 -1.347766285 -1.453457647
H -4.898653992 1.2839055493 -2.7715929873
H -5.4980902981 1.0421305743 -1.1023516532
H -2.9898947432 2.3231834265 -1.543116584
H -0.4708805321 -2.911169577 1.9534958176
H -1.4595648224 -4.4349877031 1.6738182516
H 0.0330203342 0.0366094323 -1.5720847011
H 1.5305450481 -1.0175615847 -1.8341713096
H -0.1415994462 -1.6384232835 -2.2052686862
H 0.3487294733 3.5680958822 0.2136344768
H 1.2317472875 4.192595715 1.673549935
H -0.1029300985 1.8222011635 2.6025612288
H -0.5796349681 3.5220604035 2.9855355987
$end

$rem
JOBTYPE                   OPT
METHOD                    B3LYP
DFT_D                     d3_op
BASIS                     STO-3G
GEOM_OPT_MAX_CYCLES       100
GEOM_OPT_TOL_GRADIENT     300
GEOM_OPT_TOL_DISPLACEMENT 1200
GEOM_OPT_TOL_ENERGY       100
SYMMETRY                  False
THRESH                    12
SCF_CONVERGENCE           8
MAX_SUB_FILE_NUM          128
MEM_STATIC                400
MEM_TOTAL                 4000
$end
--------------------------------------------------------------

   16   -1510.2697026845      6.77E-09 Convergence criterion met
 Total energy in the final basis set = -1510.26970268
   14   -1510.2619132385      7.63E-09 Convergence criterion met
 Total energy in the final basis set = -1510.26191324
   15   -1510.2659545626      6.00E-09 Convergence criterion met
 Total energy in the final basis set = -1510.26595456
   15   -1510.2615603587      6.16E-09 Convergence criterion met
 Total energy in the final basis set = -1510.26156036
   15   -1510.2618333204      9.17E-09 Convergence criterion met
 Total energy in the final basis set = -1510.26183332
   15   -1510.2693092854      4.62E-09 Convergence criterion met
 Total energy in the final basis set = -1510.26930929
   14   -1510.2673382126      8.65E-09 Convergence criterion met
 Total energy in the final basis set = -1510.26733821
   13   -1510.2739031191      5.39E-09 Convergence criterion met
   11   -1510.2863710932      3.61E-09 Convergence criterion met
 Total energy in the final basis set = -1510.28637109
   10   -1510.2863682690      5.12E-09 Convergence criterion met
 Total energy in the final basis set = -1510.28636827
   11   -1510.2863712135      4.37E-09 Convergence criterion met
 Total energy in the final basis set = -1510.28637121
   11   -1510.2863731287      2.26E-09 Convergence criterion met
 Total energy in the final basis set = -1510.28637313
    9   -1510.2863718943      6.56E-09 Convergence criterion met
 Total energy in the final basis set = -1510.28637189
    9   -1510.2863701795      3.98E-09 Convergence criterion met
 Total energy in the final basis set = -1510.28637018

             Standard Nuclear Orientation (Angstroms)
    I     Atom           X                Y                Z
 ----------------------------------------------------------------
    1      O       2.3662498556     0.9710089192     2.5104824142
    2      C       2.5473583689     1.4018817682     1.3490145162
    3      C       3.3934913019     0.6706004068     0.2371868139
    4      C       3.0445378429    -0.8687870397     0.0992715420
    5      C       1.7263753421    -1.2700417383     0.8399055654
    6      O       1.9037888231    -2.5807112296     1.3929266560
    7      C       0.6620746367    -3.0244418108     2.0676557844
    8      C      -0.4954707026    -3.3899604635     1.0545115272
    9      O      -1.6279631195    -2.4436521069     1.1754265006
   10      C      -1.7425032424    -1.6218163339     0.0046163412
   11      C      -3.0390983778    -0.7584377937     0.1749449930
   12      C      -2.8790147172     0.7947165192     0.4948715014
   13      C      -1.4501233886     1.3842491482     0.8719032082
   14      O      -1.1886420640     1.6414890560     2.0804227626
   15      O       2.0798344523     2.6536134263     0.8695790342
   16      O      -0.4996706220     1.8113058020    -0.0742291003
   17      O      -0.9952535494    -1.7059457168    -0.9941640068
   18      C      -0.5847374615     1.3109601680    -1.4686970160
   19      C      -3.8566200430    -0.6981273415    -1.1858370877
   20      C      -5.3412978218    -0.2708561415    -0.8687854565
   21      C      -5.1640602105     1.2673105785    -0.5818664667
   22      C      -3.6073365411     1.4370179220    -0.7648318294
   23      O      -3.3007037213     0.4931172974    -1.8705000650
   24      H      -3.6307371020    -1.2380268663     0.9743523105
   25      H      -3.4694966608     1.0095623429     1.4039023097
   26      H      -3.7448579221    -1.5932051211    -1.8278900932
   27      H      -5.9872597728    -0.4461377920    -1.7437867314
   28      H      -5.7546586597    -0.8203274579    -0.0079760496
   29      H      -5.7049564922     1.8792489114    -1.3213098193
   30      H      -5.4985621114     1.5549209008     0.4276188404
   31      H      -3.2706953595     2.4587798472    -1.0259004211
   32      O       0.6633932789    -0.6186949182     0.9176956071
   33      C       1.2273931231     3.2951750639     1.9062266262
   34      C       3.1720160049     1.1730224842    -1.2516113596
   35      C       4.4364099661     0.7510810749    -2.0959520450
   36      C       4.2293041650    -0.8078305436    -2.1894696175
   37      C       2.8319362394    -0.9803944650    -1.4713982528
   38      O       2.1222530075     0.2759410458    -1.7937706250
   39      H       4.4575242347     0.7826409055     0.5177469707
   40      H       3.8622827320    -1.5211592893     0.4512903183
   41      H       1.7920527753     3.4408354730     2.8490423526
   42      H       2.8567087527     2.2306663649    -1.3322286089
   43      H       4.4051196035     1.2192732560    -3.0927923577
   44      H       5.3821998809     1.0282011275    -1.6039391628
   45      H       4.1711348048    -1.1476358502    -3.2356473304
   46      H       5.0241640580    -1.3733474891    -1.6775403928
   47      H       2.2348909407    -1.8550307766    -1.7958283883
   48      H       0.3102808041     2.6737886800     2.0937662283
   49      H       0.9466513929     4.2785136532     1.4876253214
   50      H       0.3482069865     0.7233861982    -1.6453369996
   51      H      -1.5055238461     0.7239396006    -1.6826291369
   52      H      -0.5725545310     2.2055484181    -2.1229213734
   53      H      -0.1115259819    -3.3668530193     0.0104097230
   54      H      -0.8934165573    -4.4000450494     1.2835437437
   55      H       0.2881833822    -2.2445261270     2.7669202938
   56      H       0.9575918862    -3.9222221088     2.6456123941
 ----------------------------------------------------------------

    8   -1510.2863694481      9.34E-09 Convergence criterion met
 Total energy in the final basis set = -1510.28636945
 Final energy is   -1510.28636944811
 **  OPTIMIZATION CONVERGED  **

                    Orbital Energies (a.u.)
 --------------------------------------------------------------

 Alpha MOs
 -- Occupied --
-18.933 -18.930 -18.918 -18.911 -18.908 -18.896 -18.878 -18.871
-18.855 -18.845 -10.103 -10.095 -10.091 -10.079 -10.070 -10.070
-10.069 -10.067 -10.062 -10.055 -10.042 -10.037 -10.034 -10.028
-10.028 -10.027 -10.020 -10.018 -10.017 -10.010  -1.016  -1.005
 -0.992  -0.986  -0.983  -0.973  -0.940  -0.931  -0.916  -0.910
 -0.767  -0.760  -0.729  -0.720  -0.712  -0.706  -0.697  -0.633
 -0.630  -0.621  -0.595  -0.578  -0.550  -0.544  -0.542  -0.535
 -0.515  -0.503  -0.482  -0.465  -0.457  -0.453  -0.444  -0.442
 -0.440  -0.433  -0.430  -0.407  -0.404  -0.395  -0.391  -0.381
 -0.376  -0.375  -0.368  -0.365  -0.356  -0.354  -0.349  -0.343
 -0.340  -0.334  -0.332  -0.329  -0.326  -0.317  -0.315  -0.313
 -0.309  -0.308  -0.300  -0.294  -0.288  -0.280  -0.277  -0.270
 -0.265  -0.256  -0.248  -0.245  -0.235  -0.228  -0.221  -0.181
 -0.168  -0.160  -0.157  -0.155  -0.153  -0.149  -0.139  -0.129
 -0.127

          Ground-State Mulliken Net Atomic Charges

     Atom                 Charge (a.u.)
  ----------------------------------------
      1 O                    -0.222873
      2 C                     0.212350
      3 C                    -0.079399
      4 C                    -0.078471
      5 C                     0.215146
      6 O                    -0.172971
      7 C                    -0.051468
      8 C                    -0.056450
      9 O                    -0.170650
     10 C                     0.216284
     11 C                    -0.080530
     12 C                    -0.083235
     13 C                     0.217734
     14 O                    -0.213804
     15 O                    -0.170341
     16 O                    -0.166512
     17 O                    -0.211725
     18 C                    -0.162056
     19 C                     0.026238
     20 C                    -0.143330
     21 C                    -0.142614
     22 C                     0.022434
     23 O                    -0.183774
     24 H                     0.089288
     25 H                     0.088937
     26 H                     0.087453
     27 H                     0.080062
     28 H                     0.076501
     29 H                     0.080233
     30 H                     0.077508
     31 H                     0.087872
     32 O                    -0.210396
     33 C                    -0.144284
     34 C                     0.025911
     35 C                    -0.142817
     36 C                    -0.143931
     37 C                     0.027764
     38 O                    -0.186226
     39 H                     0.081593
     40 H                     0.086652
     41 H                     0.075063
     42 H                     0.097847
     43 H                     0.077960
     44 H                     0.074130
     45 H                     0.078227
     46 H                     0.074424
     47 H                     0.086211
     48 H                     0.118552
     49 H                     0.074933
     50 H                     0.114013
     51 H                     0.104729
     52 H                     0.067712
     53 H                     0.099289
     54 H                     0.084701
     55 H                     0.101052
     56 H                     0.089053
  ----------------------------------------
  Sum of atomic charges =     0.000000

                    Cartesian Multipole Moments
 -----------------------------------------------------------------
    Charge (ESU x 10^10)
                -0.0000
    Dipole Moment (Debye)
         X      -1.3138      Y      -2.1492      Z      -1.6013
       Tot       2.9848
    Quadrupole Moments (Debye-Ang)
        XX    -135.7923     XY      -0.9640     YY    -150.8407
        XZ      -4.8888     YZ      -4.1913     ZZ    -168.7017

 Total job time:  151.85s(wall), 7253.14s(cpu)
        *  Thank you very much for using Q-Chem.  Have a nice day.  *
