 Q-Chem 5.0, Q-Chem, Inc., Pleasanton, CA (2017)
 Q-Chem 5.0.1 for Intel X86 EM64T Linux

User input:
--------------------------------------------------------------
$molecule
0  1
O -3.94934 -3.66094 2.70899
C -3.26408 -4.56952 2.26188
C -3.36658 -6.02376 2.66595
C -4.31396 -6.36509 3.82776
C -5.18675 -5.24038 4.33898
O -5.36133 -5.36491 5.68784
C -5.89656 -4.18553 6.29765
C -7.39249 -4.08233 6.01898
O -7.66495 -2.90828 5.2378
C -8.10784 -3.1369 3.97656
C -8.40429 -1.86543 3.21754
C -7.16594 -1.09299 2.73991
C -5.85816 -1.85822 2.76851
O -4.77112 -1.3926 3.07852
O -2.38646 -4.29223 1.26245
O -5.74563 -2.72168 1.69925
O -8.54105 -4.21885 3.59741
C -6.5151 -3.6594 1.03141
C -9.26302 -1.85727 1.92809
C -9.96174 -0.50052 1.79606
C -8.77658 0.39927 1.46933
C -7.65907 -0.64762 1.34322
O -8.34964 -1.77209 0.86465
H -8.98169 -1.26325 3.95719
H -6.98135 -0.2071 3.3882
H -10.00017 -2.68727 1.8838
H -10.61744 -0.56256 0.89776
H -10.57526 -0.18 2.6654
H -8.97186 0.89182 0.49108
H -8.53567 1.16531 2.23772
H -6.82528 -0.27279 0.71101
O -5.9661 -4.65238 3.62544
C -2.19601 -3.03667 0.7244
C -3.95892 -6.89602 1.54548
C -3.55606 -8.35623 1.752
C -4.43518 -8.72704 2.92889
C -5.20095 -7.41606 3.13026
O -5.33694 -6.91334 1.82389
H -2.3271 -6.34325 2.9042
H -3.773 -6.82074 4.68917
H -1.84942 -2.33183 1.51017
H -3.66855 -6.5559 0.52736
H -3.89486 -8.93398 0.86252
H -2.46639 -8.51393 1.90285
H -5.14209 -9.52206 2.60174
H -3.8954 -9.05587 3.843
H -6.14837 -7.60314 3.68296
H -3.14286 -2.6645 0.27757
H -1.4246 -3.09458 -0.07054
H -5.96021 -4.61395 0.99536
H -7.4791 -3.86823 1.5069
H -6.6566 -3.33965 -0.02141
H -7.80843 -5.0475 5.65115
H -7.91568 -3.90886 6.9844
H -5.31865 -3.25895 6.07924
H -5.79335 -4.36264 7.39006
$end

$opt
CONSTRAINT
tors           1           2           3           4      -6.214
tors           3           4           5           6    -145.502
tors           4           5           6           7    +165.897
tors           5           6           7           8     +76.818
tors           6           7           8           9    -116.606
tors           7           8           9          10    +113.049
tors           8           9          10          11    +178.760
tors           9          10          11          12     +74.505
tors          11          12          13          14    -141.889
ENDCONSTRAINT
$end

$rem
JOBTYPE                   OPT
METHOD                    B3LYP
DFT_D                     d3_op
BASIS                     STO-3G
GEOM_OPT_MAX_CYCLES       100
GEOM_OPT_TOL_GRADIENT     300
GEOM_OPT_TOL_DISPLACEMENT 1200
GEOM_OPT_TOL_ENERGY       100
SYMMETRY                  False
THRESH                    12
SCF_CONVERGENCE           8
MAX_SUB_FILE_NUM          128
MEM_STATIC                400
MEM_TOTAL                 4000
$end
--------------------------------------------------------------

   16   -1510.0925383390      2.90E-09 Convergence criterion met
 Total energy in the final basis set = -1510.09253834
   14   -1510.1569760499      9.03E-09 Convergence criterion met
 Total energy in the final basis set = -1510.15697605
   15   -1510.2064266277      3.10E-09 Convergence criterion met
 Total energy in the final basis set = -1510.20642663
   14   -1510.2285180887      4.87E-09 Convergence criterion met
 Total energy in the final basis set = -1510.22851809
   15   -1510.2419591322      3.97E-09 Convergence criterion met
 Total energy in the final basis set = -1510.24195913
   14   -1510.2463095638      9.65E-09 Convergence criterion met
 Total energy in the final basis set = -1510.24630956
   14   -1510.2503948755      5.07E-09 Convergence criterion met
 Total energy in the final basis set = -1510.25039488
   14   -1510.2548298597      6.60E-09 Convergence criterion met
   11   -1510.2696040620      4.39E-09 Convergence criterion met
 Total energy in the final basis set = -1510.26960406
   11   -1510.2696319114      4.84E-09 Convergence criterion met
 Total energy in the final basis set = -1510.26963191
   11   -1510.2696507680      5.30E-09 Convergence criterion met
 Total energy in the final basis set = -1510.26965077
   11   -1510.2696683677      3.13E-09 Convergence criterion met
 Total energy in the final basis set = -1510.26966837
   10   -1510.2696717419      9.31E-09 Convergence criterion met
 Total energy in the final basis set = -1510.26967174
    9   -1510.2696731781      4.88E-09 Convergence criterion met
 Total energy in the final basis set = -1510.26967318

             Standard Nuclear Orientation (Angstroms)
    I     Atom           X                Y                Z
 ----------------------------------------------------------------
    1      O      -1.4747298491    -0.7525740479     2.0904314743
    2      C      -2.3169619270    -1.2845065015     1.3331617483
    3      C      -3.2451486289    -0.5746128441     0.2789322010
    4      C      -3.1679124041     1.0028111609     0.3123795280
    5      C      -1.7309788657     1.4545544013     0.7468748527
    6      O      -1.7588433684     2.6570236152     1.5344880621
    7      C      -0.4251551923     2.7921561844     2.1654926065
    8      C       0.7381153845     3.3073542483     1.2222783872
    9      O       1.7713800849     2.2499614980     1.0936730967
   10      C       1.8361910800     1.7216584211    -0.2393101494
   11      C       2.9854785948     0.6506904123    -0.2162318158
   12      C       2.7463412494    -0.7618420112     0.4816623335
   13      C       1.3128156569    -1.4240617092     0.7535343574
   14      O       1.1539687502    -2.0553890800     1.8361849481
   15      O      -2.4930472112    -2.6922606524     1.2081184255
   16      O       0.2548797814    -1.5420206334    -0.1759845135
   17      O       1.1884135317     2.1524735496    -1.2169592272
   18      C       0.4536448444    -0.9874688797    -1.5386197276
   19      C       3.6698222610     0.2491333923    -1.5899003703
   20      C       5.1974351416     0.0133334592    -1.2871396427
   21      C       5.1233783953    -1.3051995376    -0.4243391551
   22      C       3.5879673307    -1.6707979264    -0.5261474707
   23      O       3.2136574111    -1.1368085454    -1.8629334242
   24      H       3.7595266806     1.1455255768     0.3997129579
   25      H       3.2151667937    -0.7617073531     1.4811903268
   26      H       3.4308749650     0.9103714054    -2.4455010561
   27      H       5.7517358032    -0.1523942686    -2.2251209978
   28      H       5.6571007265     0.8554022958    -0.7456978795
   29      H       5.7402798949    -2.1080058124    -0.8580197520
   30      H       5.4366660747    -1.1458419357     0.6199532446
   31      H       3.3576453985    -2.7526976553    -0.4705743047
   32      O      -0.6567010929     0.9449296445     0.3659241933
   33      C      -1.4818885562    -3.3938189148     2.0444306862
   34      C      -3.0217031748    -0.8767886617    -1.2687215664
   35      C      -4.4375830714    -0.7409224835    -1.9511769147
   36      C      -4.6795119280     0.8090576544    -1.8024048289
   37      C      -3.2791076451     1.2952456141    -1.2491383783
   38      O      -2.3127357402     0.3128094300    -1.7965219049
   39      H      -4.2759432130    -0.8829078641     0.5366128207
   40      H      -3.9499490580     1.4802959446     0.9263617019
   41      H      -1.7932142037    -3.3959871309     3.1090719724
   42      H      -2.4608882294    -1.8049831716    -1.4884538930
   43      H      -4.3801595835    -1.0364816149    -3.0113592543
   44      H      -5.2106302405    -1.3477662850    -1.4534576470
   45      H      -4.8986539920     1.2839055493    -2.7715929873
   46      H      -5.4980902981     1.0421305743    -1.1023516532
   47      H      -2.9898947432     2.3231834265    -1.5431165840
   48      H      -0.4708805321    -2.9111695770     1.9534958176
   49      H      -1.4595648224    -4.4349877031     1.6738182516
   50      H       0.0330203342     0.0366094323    -1.5720847011
   51      H       1.5305450481    -1.0175615847    -1.8341713096
   52      H      -0.1415994462    -1.6384232835    -2.2052686862
   53      H       0.3487294733     3.5680958822     0.2136344768
   54      H       1.2317472875     4.1925957150     1.6735499350
   55      H      -0.1029300985     1.8222011635     2.6025612288
   56      H      -0.5796349681     3.5220604035     2.9855355987
 ----------------------------------------------------------------

    9   -1510.2696743257      4.21E-09 Convergence criterion met
 Total energy in the final basis set = -1510.26967433
 Final energy is   -1510.26967432575
 **  OPTIMIZATION CONVERGED  **

                    Orbital Energies (a.u.)
 --------------------------------------------------------------

 Alpha MOs
 -- Occupied --
-18.929 -18.924 -18.922 -18.917 -18.911 -18.883 -18.877 -18.862
-18.857 -18.854 -10.103 -10.092 -10.090 -10.081 -10.072 -10.072
-10.066 -10.064 -10.057 -10.054 -10.041 -10.040 -10.032 -10.030
-10.029 -10.026 -10.020 -10.017 -10.015 -10.012  -1.012  -1.002
 -0.995  -0.989  -0.986  -0.966  -0.936  -0.926  -0.917  -0.912
 -0.771  -0.757  -0.727  -0.718  -0.714  -0.701  -0.693  -0.636
 -0.632  -0.617  -0.594  -0.577  -0.551  -0.547  -0.539  -0.532
 -0.516  -0.501  -0.482  -0.466  -0.455  -0.450  -0.445  -0.442
 -0.431  -0.430  -0.428  -0.413  -0.404  -0.394  -0.390  -0.385
 -0.379  -0.371  -0.369  -0.360  -0.355  -0.352  -0.349  -0.346
 -0.339  -0.334  -0.330  -0.327  -0.324  -0.319  -0.315  -0.314
 -0.310  -0.304  -0.301  -0.293  -0.286  -0.277  -0.274  -0.270
 -0.263  -0.255  -0.254  -0.244  -0.231  -0.227  -0.224  -0.179
 -0.166  -0.162  -0.160  -0.156  -0.149  -0.146  -0.133  -0.131
 -0.128

          Ground-State Mulliken Net Atomic Charges

     Atom                 Charge (a.u.)
  ----------------------------------------
      1 O                    -0.216084
      2 C                     0.213244
      3 C                    -0.078564
      4 C                    -0.079612
      5 C                     0.218548
      6 O                    -0.174976
      7 C                    -0.051274
      8 C                    -0.054042
      9 O                    -0.173337
     10 C                     0.222582
     11 C                    -0.083568
     12 C                    -0.078450
     13 C                     0.215335
     14 O                    -0.214383
     15 O                    -0.175719
     16 O                    -0.164961
     17 O                    -0.209897
     18 C                    -0.161373
     19 C                     0.024596
     20 C                    -0.140598
     21 C                    -0.143864
     22 C                     0.023890
     23 O                    -0.182089
     24 H                     0.087315
     25 H                     0.092350
     26 H                     0.093771
     27 H                     0.080723
     28 H                     0.076646
     29 H                     0.081308
     30 H                     0.077938
     31 H                     0.088726
     32 O                    -0.213366
     33 C                    -0.147532
     34 C                     0.027405
     35 C                    -0.141017
     36 C                    -0.145360
     37 C                     0.024980
     38 O                    -0.187228
     39 H                     0.080540
     40 H                     0.085487
     41 H                     0.072109
     42 H                     0.091068
     43 H                     0.076862
     44 H                     0.074311
     45 H                     0.077461
     46 H                     0.073288
     47 H                     0.082085
     48 H                     0.120281
     49 H                     0.075293
     50 H                     0.104347
     51 H                     0.109669
     52 H                     0.073605
     53 H                     0.100939
     54 H                     0.083693
     55 H                     0.102032
     56 H                     0.084868
  ----------------------------------------
  Sum of atomic charges =     0.000000

                    Cartesian Multipole Moments
 -----------------------------------------------------------------
    Charge (ESU x 10^10)
                 0.0000
    Dipole Moment (Debye)
         X       1.3821      Y       1.5702      Z      -0.5557
       Tot       2.1644
    Quadrupole Moments (Debye-Ang)
        XX    -135.0309     XY      -0.7621     YY    -156.0329
        XZ       1.3611     YZ       4.9967     ZZ    -164.7359

 Total job time:  117.48s(wall), 5602.73s(cpu)
        *  Thank you very much for using Q-Chem.  Have a nice day.  *
