 Q-Chem 5.0, Q-Chem, Inc., Pleasanton, CA (2017)
 Q-Chem 5.0.1 for Intel X86 EM64T Linux

User input:
--------------------------------------------------------------
$molecule
0  1
O -3.94934 -3.66094 2.70899
C -3.26408 -4.56952 2.26188
C -3.36658 -6.02376 2.66595
C -4.72561 -6.51235 3.19336
C -5.87841 -5.53833 3.09118
O -6.64075 -5.60131 4.22268
C -7.67624 -4.61356 4.25973
C -8.82782 -5.02484 3.34822
O -8.73268 -4.32921 2.09525
C -8.46177 -5.10523 1.01657
C -8.43056 -4.32541 -0.27632
C -7.09056 -3.64343 -0.58874
C -5.90197 -4.1195 0.22202
O -4.97681 -3.41706 0.60309
O -2.15562 -4.24975 1.54175
O -5.56931 -5.39536 -0.10867
O -8.44579 -6.33024 1.03951
C -4.47205 -5.6661 -0.92466
C -8.61646 -5.15135 -1.57697
C -9.2295 -4.25655 -2.65216
C -8.07442 -3.31062 -2.91728
C -6.97165 -3.98438 -2.08539
O -7.3226 -5.34641 -2.09409
H -9.2896 -3.61663 -0.22982
H -7.15749 -2.54661 -0.41553
H -9.23444 -6.06575 -1.44469
H -9.37803 -4.90115 -3.5487
H -10.19339 -3.76474 -2.39952
H -7.84656 -3.33441 -4.00589
H -8.23349 -2.26296 -2.58122
H -5.98235 -3.70475 -2.49868
O -5.98657 -4.54838 2.48349
C -1.78645 -2.96818 1.18894
C -3.13816 -7.09856 1.57966
C -2.68358 -8.41223 2.22446
C -3.98334 -8.8892 2.8464
C -4.93865 -7.78622 2.37753
O -4.42715 -7.43879 1.128
H -2.55146 -6.15183 3.41346
H -4.6287 -6.77341 4.27332
H -1.62577 -2.35147 2.09873
H -2.39727 -6.79379 0.81114
H -2.41133 -9.11359 1.40343
H -1.82487 -8.32041 2.92392
H -4.26511 -9.85731 2.37547
H -3.96797 -9.00116 3.95219
H -5.99469 -8.13346 2.40265
H -2.56483 -2.50107 0.55097
H -0.8388 -3.00975 0.614
H -4.40385 -6.75223 -1.13227
H -3.53453 -5.29598 -0.4698
H -4.5612 -5.18543 -1.91253
H -8.93738 -6.1321 3.31185
H -9.77068 -4.6498 3.80181
H -7.34786 -3.5524 4.17245
H -8.08219 -4.70161 5.29052
$end

$opt
CONSTRAINT
tors           1           2           3           4     +26.509
tors           3           4           5           6    -139.562
tors           4           5           6           7    +174.143
tors           5           6           7           8     +76.818
tors           6           7           8           9     -99.539
tors           7           8           9          10    +113.049
tors           8           9          10          11    +177.641
tors           9          10          11          12     +84.351
tors          11          12          13          14    -144.818
ENDCONSTRAINT
$end

$rem
JOBTYPE                   OPT
METHOD                    B3LYP
DFT_D                     d3_op
BASIS                     STO-3G
GEOM_OPT_MAX_CYCLES       100
GEOM_OPT_TOL_GRADIENT     300
GEOM_OPT_TOL_DISPLACEMENT 1200
GEOM_OPT_TOL_ENERGY       100
SYMMETRY                  False
THRESH                    12
SCF_CONVERGENCE           8
MAX_SUB_FILE_NUM          128
MEM_STATIC                400
MEM_TOTAL                 4000
$end
--------------------------------------------------------------

   16   -1510.0733086265      2.48E-09 Convergence criterion met
 Total energy in the final basis set = -1510.07330863
   15   -1510.1373409874      3.22E-09 Convergence criterion met
 Total energy in the final basis set = -1510.13734099
   15   -1510.1976743776      2.19E-09 Convergence criterion met
 Total energy in the final basis set = -1510.19767438
   15   -1510.2295344624      2.45E-09 Convergence criterion met
 Total energy in the final basis set = -1510.22953446
   14   -1510.2473614907      7.16E-09 Convergence criterion met
 Total energy in the final basis set = -1510.24736149
   14   -1510.2567633057      4.08E-09 Convergence criterion met
 Total energy in the final basis set = -1510.25676331
   14   -1510.2647339044      5.55E-09 Convergence criterion met
 Total energy in the final basis set = -1510.26473390
   13   -1510.2692753650      9.23E-09 Convergence criterion met
   10   -1510.2848847985      4.79E-09 Convergence criterion met
 Total energy in the final basis set = -1510.28488480
   10   -1510.2848960184      9.97E-09 Convergence criterion met
 Total energy in the final basis set = -1510.28489602
   10   -1510.2849028832      7.07E-09 Convergence criterion met
 Total energy in the final basis set = -1510.28490288
   10   -1510.2849112864      5.05E-09 Convergence criterion met
 Total energy in the final basis set = -1510.28491129
    9   -1510.2849141724      7.45E-09 Convergence criterion met
 Total energy in the final basis set = -1510.28491417
    9   -1510.2849153883      8.65E-09 Convergence criterion met
 Total energy in the final basis set = -1510.28491539

             Standard Nuclear Orientation (Angstroms)
    I     Atom           X                Y                Z
 ----------------------------------------------------------------
    1      O       2.0551034421     0.4830715923     2.1636048029
    2      C       2.8018848227     0.9724182894     1.2880450062
    3      C       3.5261347033     0.1779151950     0.1388867319
    4      C       2.7810382789    -1.1583879450    -0.2763557656
    5      C       1.3854584522    -1.4244643564     0.4048749013
    6      O       1.3893704591    -2.8234894264     0.6937000775
    7      C       0.2198749803    -3.2861991375     1.4676384543
    8      C      -1.1150974377    -3.4397281124     0.6429778284
    9      O      -2.0146383655    -2.2797530700     0.8214706796
   10      C      -2.2099189617    -1.4764511434    -0.3479871756
   11      C      -3.2382683871    -0.3751519928     0.1058397010
   12      C      -2.7626041934     0.9451337694     0.8425109863
   13      C      -1.3026083210     1.4636701164     0.5991959810
   14      O      -0.5842765487     2.0236444446     1.4626478242
   15      O       3.0471734253     2.3692944634     1.1411651105
   16      O      -1.0260710234     1.3759976178    -0.7867066747
   17      O      -1.7017381678    -1.7013392274    -1.4651688366
   18      C       0.2138689975     2.1078808720    -1.1402519535
   19      C      -4.1419948896     0.2193204602    -1.0659436245
   20      C      -5.5714356865     0.4741020934    -0.4496176449
   21      C      -5.2476048494     1.6666215111     0.5279121567
   22      C      -3.7460544772     1.9893649398     0.1425024885
   23      O      -3.6460617537     1.5969127149    -1.2804997105
   24      H      -3.8945950330    -0.9098726920     0.8167557425
   25      H      -2.9250785573     0.8732440212     1.9322189187
   26      H      -4.1130825523    -0.3558443395    -2.0115490272
   27      H      -6.2787721785     0.7820475631    -1.2366926152
   28      H      -5.9785412688    -0.4086862598     0.0687351865
   29      H      -5.8928918079     2.5387049051     0.3375634252
   30      H      -5.3462726796     1.3814041902     1.5878025604
   31      H      -3.4476638117     3.0476711374     0.2746552554
   32      O       0.3944255605    -0.6798984854     0.5472458420
   33      C       2.1762201957     3.1133415656     2.0889035506
   34      C       3.6394914884     0.9231260399    -1.2546948581
   35      C       4.7746142040     0.2208709910    -2.0955905619
   36      C       4.0663268413    -1.1272685557    -2.5025217819
   37      C       2.6421824571    -0.9411205561    -1.8454884983
   38      O       2.4122372473     0.5152100410    -1.9788983050
   39      H       4.5402961960    -0.0707385200     0.5051434626
   40      H       3.4051040164    -2.0430546000    -0.0625028291
   41      H       2.4812365462     2.9355906186     3.1399080527
   42      H       3.6979717082     2.0256937119    -1.1775025083
   43      H       5.0249610512     0.8255871789    -2.9819230875
   44      H       5.6915103434     0.0611340960    -1.5062038924
   45      H       3.9747646291    -1.2208000269    -3.5963486276
   46      H       4.5870803615    -2.0166537702    -2.1135245354
   47      H       1.8177183986    -1.5058477648    -2.3230977467
   48      H       1.1117487446     2.8043293902     1.9538375308
   49      H       2.3098791022     4.1824540532     1.8429820364
   50      H       1.0187318090     1.3846701613    -1.4260669339
   51      H       0.5464949562     2.7289897585    -0.2882615348
   52      H      -0.0304819063     2.7559782947    -2.0034875595
   53      H      -0.8827217461    -3.5773183660    -0.4368618888
   54      H      -1.6632649727    -4.3308701944     1.0150237032
   55      H       0.0256818633    -2.6114288029     2.3307443654
   56      H       0.5196021944    -4.2829999001     1.8503048061
 ----------------------------------------------------------------

    9   -1510.2849152968      5.15E-09 Convergence criterion met
 Total energy in the final basis set = -1510.28491530
 Final energy is   -1510.28491529685
 **  OPTIMIZATION CONVERGED  **

                    Orbital Energies (a.u.)
 --------------------------------------------------------------

 Alpha MOs
 -- Occupied --
-18.928 -18.924 -18.921 -18.913 -18.909 -18.879 -18.875 -18.871
-18.867 -18.851 -10.100 -10.096 -10.092 -10.084 -10.073 -10.069
-10.069 -10.066 -10.052 -10.049 -10.039 -10.038 -10.038 -10.027
-10.026 -10.026 -10.025 -10.014 -10.013 -10.012  -1.012  -1.003
 -0.999  -0.989  -0.984  -0.961  -0.937  -0.930  -0.925  -0.914
 -0.768  -0.753  -0.727  -0.718  -0.712  -0.704  -0.691  -0.648
 -0.634  -0.619  -0.592  -0.576  -0.550  -0.543  -0.534  -0.529
 -0.512  -0.503  -0.477  -0.466  -0.462  -0.450  -0.447  -0.441
 -0.432  -0.425  -0.420  -0.411  -0.407  -0.401  -0.392  -0.387
 -0.381  -0.377  -0.369  -0.361  -0.357  -0.352  -0.345  -0.340
 -0.337  -0.335  -0.334  -0.327  -0.323  -0.318  -0.316  -0.314
 -0.303  -0.299  -0.297  -0.294  -0.293  -0.288  -0.274  -0.271
 -0.264  -0.252  -0.243  -0.238  -0.237  -0.225  -0.222  -0.183
 -0.167  -0.166  -0.162  -0.152  -0.151  -0.143  -0.139  -0.134
 -0.131

          Ground-State Mulliken Net Atomic Charges

     Atom                 Charge (a.u.)
  ----------------------------------------
      1 O                    -0.208157
      2 C                     0.209394
      3 C                    -0.080371
      4 C                    -0.079720
      5 C                     0.218959
      6 O                    -0.178997
      7 C                    -0.049402
      8 C                    -0.053637
      9 O                    -0.177905
     10 C                     0.221345
     11 C                    -0.077421
     12 C                    -0.074076
     13 C                     0.224308
     14 O                    -0.228276
     15 O                    -0.175452
     16 O                    -0.161728
     17 O                    -0.210603
     18 C                    -0.156264
     19 C                     0.025269
     20 C                    -0.142216
     21 C                    -0.145473
     22 C                     0.025377
     23 O                    -0.184314
     24 H                     0.082836
     25 H                     0.084366
     26 H                     0.086021
     27 H                     0.076102
     28 H                     0.071511
     29 H                     0.076439
     30 H                     0.072809
     31 H                     0.080751
     32 O                    -0.205064
     33 C                    -0.143619
     34 C                     0.026012
     35 C                    -0.142694
     36 C                    -0.142931
     37 C                     0.028171
     38 O                    -0.182995
     39 H                     0.084064
     40 H                     0.088205
     41 H                     0.080984
     42 H                     0.096738
     43 H                     0.080194
     44 H                     0.075393
     45 H                     0.080727
     46 H                     0.075992
     47 H                     0.092328
     48 H                     0.118961
     49 H                     0.081221
     50 H                     0.114400
     51 H                     0.080575
     52 H                     0.074429
     53 H                     0.096505
     54 H                     0.084917
     55 H                     0.097175
     56 H                     0.088838
  ----------------------------------------
  Sum of atomic charges =    -0.000000

                    Cartesian Multipole Moments
 -----------------------------------------------------------------
    Charge (ESU x 10^10)
                -0.0000
    Dipole Moment (Debye)
         X       1.2511      Y      -2.0007      Z       0.5310
       Tot       2.4187
    Quadrupole Moments (Debye-Ang)
        XX    -138.9615     XY       0.2638     YY    -149.6226
        XZ      -8.2420     YZ      -0.0732     ZZ    -164.1709

 Total job time:  105.61s(wall), 5038.01s(cpu)
        *  Thank you very much for using Q-Chem.  Have a nice day.  *
