 Q-Chem 5.0, Q-Chem, Inc., Pleasanton, CA (2017)
 Q-Chem 5.0.1 for Intel X86 EM64T Linux

User input:
--------------------------------------------------------------
$molecule
0  1
O 2.0551034421 0.4830715923 2.1636048029
C 2.8018848227 0.9724182894 1.2880450062
C 3.5261347033 0.177915195 0.1388867319
C 2.7810382789 -1.158387945 -0.2763557656
C 1.3854584522 -1.4244643564 0.4048749013
O 1.3893704591 -2.8234894264 0.6937000775
C 0.2198749803 -3.2861991375 1.4676384543
C -1.1150974377 -3.4397281124 0.6429778284
O -2.0146383655 -2.27975307 0.8214706796
C -2.2099189617 -1.4764511434 -0.3479871756
C -3.2382683871 -0.3751519928 0.105839701
C -2.7626041934 0.9451337694 0.8425109863
C -1.302608321 1.4636701164 0.599195981
O -0.5842765487 2.0236444446 1.4626478242
O 3.0471734253 2.3692944634 1.1411651105
O -1.0260710234 1.3759976178 -0.7867066747
O -1.7017381678 -1.7013392274 -1.4651688366
C 0.2138689975 2.107880872 -1.1402519535
C -4.1419948896 0.2193204602 -1.0659436245
C -5.5714356865 0.4741020934 -0.4496176449
C -5.2476048494 1.6666215111 0.5279121567
C -3.7460544772 1.9893649398 0.1425024885
O -3.6460617537 1.5969127149 -1.2804997105
H -3.894595033 -0.909872692 0.8167557425
H -2.9250785573 0.8732440212 1.9322189187
H -4.1130825523 -0.3558443395 -2.0115490272
H -6.2787721785 0.7820475631 -1.2366926152
H -5.9785412688 -0.4086862598 0.0687351865
H -5.8928918079 2.5387049051 0.3375634252
H -5.3462726796 1.3814041902 1.5878025604
H -3.4476638117 3.0476711374 0.2746552554
O 0.3944255605 -0.6798984854 0.547245842
C 2.1762201957 3.1133415656 2.0889035506
C 3.6394914884 0.9231260399 -1.2546948581
C 4.774614204 0.220870991 -2.0955905619
C 4.0663268413 -1.1272685557 -2.5025217819
C 2.6421824571 -0.9411205561 -1.8454884983
O 2.4122372473 0.515210041 -1.978898305
H 4.540296196 -0.07073852 0.5051434626
H 3.4051040164 -2.0430546 -0.0625028291
H 2.4812365462 2.9355906186 3.1399080527
H 3.6979717082 2.0256937119 -1.1775025083
H 5.0249610512 0.8255871789 -2.9819230875
H 5.6915103434 0.061134096 -1.5062038924
H 3.9747646291 -1.2208000269 -3.5963486276
H 4.5870803615 -2.0166537702 -2.1135245354
H 1.8177183986 -1.5058477648 -2.3230977467
H 1.1117487446 2.8043293902 1.9538375308
H 2.3098791022 4.1824540532 1.8429820364
H 1.018731809 1.3846701613 -1.4260669339
H 0.5464949562 2.7289897585 -0.2882615348
H -0.0304819063 2.7559782947 -2.0034875595
H -0.8827217461 -3.577318366 -0.4368618888
H -1.6632649727 -4.3308701944 1.0150237032
H 0.0256818633 -2.6114288029 2.3307443654
H 0.5196021944 -4.2829999001 1.8503048061
$end

$rem
JOBTYPE                   OPT
METHOD                    B3LYP
DFT_D                     d3_op
BASIS                     STO-3G
GEOM_OPT_MAX_CYCLES       100
GEOM_OPT_TOL_GRADIENT     300
GEOM_OPT_TOL_DISPLACEMENT 1200
GEOM_OPT_TOL_ENERGY       100
SYMMETRY                  False
THRESH                    12
SCF_CONVERGENCE           8
MAX_SUB_FILE_NUM          128
MEM_STATIC                400
MEM_TOTAL                 4000
$end
--------------------------------------------------------------

   16   -1510.2850044555      5.50E-09 Convergence criterion met
 Total energy in the final basis set = -1510.28500446
   14   -1510.2685486871      6.39E-09 Convergence criterion met
 Total energy in the final basis set = -1510.26854869
   14   -1510.2670500487      4.92E-09 Convergence criterion met
 Total energy in the final basis set = -1510.26705005
   15   -1510.2815520114      9.14E-09 Convergence criterion met
 Total energy in the final basis set = -1510.28155201
   14   -1510.2728670132      9.55E-09 Convergence criterion met
 Total energy in the final basis set = -1510.27286701
   13   -1510.2765568212      3.09E-09 Convergence criterion met
 Total energy in the final basis set = -1510.27655682
   14   -1510.2825335681      5.15E-09 Convergence criterion met
 Total energy in the final basis set = -1510.28253357
   14   -1510.2834112972      4.74E-09 Convergence criterion met
   13   -1510.2944691557      2.80E-09 Convergence criterion met
 Total energy in the final basis set = -1510.29446916
   12   -1510.2944606251      4.17E-09 Convergence criterion met
 Total energy in the final basis set = -1510.29446063
   12   -1510.2944590220      5.44E-09 Convergence criterion met
 Total energy in the final basis set = -1510.29445902
   10   -1510.2944768727      5.84E-09 Convergence criterion met
 Total energy in the final basis set = -1510.29447687
   10   -1510.2944734694      6.40E-09 Convergence criterion met
 Total energy in the final basis set = -1510.29447347
    9   -1510.2944732270      5.47E-09 Convergence criterion met
 Total energy in the final basis set = -1510.29447323

             Standard Nuclear Orientation (Angstroms)
    I     Atom           X                Y                Z
 ----------------------------------------------------------------
    1      O       2.5016423167     0.4737431887     2.5632050062
    2      C       2.8959133432     0.9563183843     1.4780912607
    3      C       3.7169914352     0.1810979756     0.3790744702
    4      C       3.0586578177    -1.2111880873    -0.0090365941
    5      C       1.6557586948    -1.4457304274     0.6438410130
    6      O       1.6399923517    -2.7684438316     1.1949555281
    7      C       0.3204449427    -3.0572639546     1.8029525158
    8      C      -0.8095064191    -3.3125876040     0.7250232688
    9      O      -1.9619482449    -2.4195551455     0.9743949114
   10      C      -2.0831493774    -1.4427075628    -0.0763021027
   11      C      -3.3328081937    -0.5652136949     0.2573137754
   12      C      -3.0505625805     0.9785677774     0.5134993963
   13      C      -1.5515066331     1.4376041637     0.4139420172
   14      O      -0.8505965911     1.8058850713     1.3871259685
   15      O       2.6911728839     2.3068032731     1.0758787744
   16      O      -1.1684933940     1.4503327217    -0.9487335088
   17      O      -1.3384154486    -1.4005578876    -1.0787630206
   18      C       0.1980803681     1.9946290439    -1.1448933068
   19      C      -4.3313160965    -0.4854107476    -0.9790270281
   20      C      -5.7396873926    -0.0144513939    -0.4390293967
   21      C      -5.4686105374     1.5145293445    -0.1852745110
   22      C      -3.9538011323     1.6326996323    -0.6220277989
   23      O      -3.8434033356     0.6790897272    -1.7478888539
   24      H      -3.8207791978    -1.0165361041     1.1390020645
   25      H      -3.4018288705     1.2610210823     1.5219248252
   26      H      -4.3462741445    -1.3908303394    -1.6159795672
   27      H      -6.5169637488    -0.1662186474    -1.2047154350
   28      H      -6.0332030910    -0.5535416611     0.4756251533
   29      H      -6.1029483198     2.1486211156    -0.8251692416
   30      H      -5.6224182447     1.8075297718     0.8655272602
   31      H      -3.6316590395     2.6432597347    -0.9388690983
   32      O       0.6823456559    -0.6619024481     0.6639886580
   33      C       1.7992690194     2.9899463732     2.0488749083
   34      C       3.7682207176     0.9005833355    -1.0310256905
   35      C       4.9460423453     0.2700565038    -1.8691439779
   36      C       4.3392446415    -1.1350862655    -2.2409721143
   37      C       2.9086505761    -1.0383638391    -1.5816626386
   38      O       2.5598172382     0.3931374022    -1.7271294512
   39      H       4.7366155106     0.0188120573     0.7752620855
   40      H       3.7108669164    -2.0633074119     0.2488839456
   41      H       2.1539879464     2.8495204016     3.0888704962
   42      H       3.7454741658     2.0052582740    -0.9755700514
   43      H       5.1449778171     0.8732522798    -2.7694727462
   44      H       5.8762706535     0.1916682664    -1.2839677375
   45      H       4.2529504162    -1.2631654452    -3.3316973649
   46      H       4.9243697729    -1.9736186643    -1.8310522793
   47      H       2.1272501518    -1.6729148464    -2.0434844409
   48      H       0.7612581887     2.5914551663     1.9419529505
   49      H       1.8298096685     4.0624518567     1.7840993520
   50      H       0.9625346105     1.1818779231    -1.2261056084
   51      H       0.4763291909     2.6749156247    -0.3195776668
   52      H       0.1682266798     2.5572339594    -2.0970337220
   53      H      -0.4205679576    -3.1076404060    -0.2974415772
   54      H      -1.1750030457    -4.3580841540     0.7845719019
   55      H      -0.0024684063    -2.2183269545     2.4577783543
   56      H       0.4809894366    -3.9620010770     2.4216388178
 ----------------------------------------------------------------

    9   -1510.2944736341      1.96E-09 Convergence criterion met
 Total energy in the final basis set = -1510.29447363
 Final energy is   -1510.29447363408
 **  OPTIMIZATION CONVERGED  **

                    Orbital Energies (a.u.)
 --------------------------------------------------------------

 Alpha MOs
 -- Occupied --
-18.932 -18.926 -18.924 -18.922 -18.901 -18.884 -18.874 -18.872
-18.861 -18.861 -10.096 -10.094 -10.090 -10.090 -10.069 -10.065
-10.064 -10.061 -10.056 -10.054 -10.037 -10.036 -10.035 -10.033
-10.030 -10.024 -10.024 -10.022 -10.017 -10.015  -1.013  -1.004
 -0.999  -0.995  -0.978  -0.965  -0.937  -0.929  -0.924  -0.921
 -0.765  -0.757  -0.725  -0.719  -0.711  -0.704  -0.692  -0.646
 -0.639  -0.617  -0.592  -0.576  -0.547  -0.540  -0.538  -0.533
 -0.509  -0.506  -0.476  -0.467  -0.462  -0.454  -0.448  -0.439
 -0.436  -0.429  -0.427  -0.413  -0.406  -0.397  -0.392  -0.387
 -0.383  -0.374  -0.368  -0.359  -0.358  -0.354  -0.344  -0.341
 -0.336  -0.336  -0.331  -0.327  -0.325  -0.321  -0.319  -0.311
 -0.305  -0.302  -0.300  -0.296  -0.291  -0.283  -0.273  -0.272
 -0.269  -0.257  -0.243  -0.242  -0.237  -0.231  -0.229  -0.180
 -0.166  -0.165  -0.163  -0.153  -0.150  -0.146  -0.141  -0.139
 -0.137

          Ground-State Mulliken Net Atomic Charges

     Atom                 Charge (a.u.)
  ----------------------------------------
      1 O                    -0.217704
      2 C                     0.211003
      3 C                    -0.079592
      4 C                    -0.079800
      5 C                     0.211947
      6 O                    -0.171889
      7 C                    -0.051729
      8 C                    -0.058028
      9 O                    -0.174834
     10 C                     0.213356
     11 C                    -0.078133
     12 C                    -0.077827
     13 C                     0.218209
     14 O                    -0.221442
     15 O                    -0.174222
     16 O                    -0.159517
     17 O                    -0.203414
     18 C                    -0.146184
     19 C                     0.026689
     20 C                    -0.144037
     21 C                    -0.144376
     22 C                     0.027462
     23 O                    -0.182168
     24 H                     0.085961
     25 H                     0.083070
     26 H                     0.082608
     27 H                     0.077090
     28 H                     0.073104
     29 H                     0.076992
     30 H                     0.073150
     31 H                     0.084154
     32 O                    -0.210362
     33 C                    -0.146684
     34 C                     0.024394
     35 C                    -0.143271
     36 C                    -0.143470
     37 C                     0.027294
     38 O                    -0.184972
     39 H                     0.083933
     40 H                     0.087204
     41 H                     0.084523
     42 H                     0.096175
     43 H                     0.079133
     44 H                     0.074574
     45 H                     0.079765
     46 H                     0.075287
     47 H                     0.088713
     48 H                     0.118541
     49 H                     0.079321
     50 H                     0.116374
     51 H                     0.084129
     52 H                     0.078095
     53 H                     0.100105
     54 H                     0.083108
     55 H                     0.099602
     56 H                     0.088593
  ----------------------------------------
  Sum of atomic charges =    -0.000000

                    Cartesian Multipole Moments
 -----------------------------------------------------------------
    Charge (ESU x 10^10)
                -0.0000
    Dipole Moment (Debye)
         X       0.5639      Y      -1.1846      Z       0.1023
       Tot       1.3159
    Quadrupole Moments (Debye-Ang)
        XX    -137.7728     XY      -0.5707     YY    -148.7291
        XZ      -8.7908     YZ       0.6069     ZZ    -167.3002

 Total job time:  135.04s(wall), 6443.54s(cpu)
        *  Thank you very much for using Q-Chem.  Have a nice day.  *
