 Q-Chem 5.0, Q-Chem, Inc., Pleasanton, CA (2017)
 Q-Chem 5.0.1 for Intel X86 EM64T Linux

User input:
--------------------------------------------------------------
$molecule
0  1
O -3.94934 -3.66094 2.70899
C -3.26408 -4.56952 2.26188
C -3.36658 -6.02376 2.66595
C -4.72561 -6.51235 3.19336
C -5.87841 -5.53833 3.09118
O -6.45235 -5.36824 4.31881
C -7.54953 -4.44885 4.30498
C -8.8233 -5.15729 3.85582
O -9.49169 -4.3742 2.85436
C -9.53631 -4.92602 1.61636
C -10.28114 -4.07205 0.61805
C -9.5393 -2.80439 0.16973
C -8.059 -2.7566 0.49088
O -7.39257 -1.73893 0.61239
O -2.20142 -4.24333 1.47879
O -7.37818 -3.8581 0.0697
O -9.1136 -6.04157 1.33477
C -6.08573 -3.83141 -0.4275
C -10.53054 -4.73974 -0.7563
C -11.73124 -4.08055 -1.43559
C -11.1487 -2.7263 -1.78763
C -9.69237 -2.9365 -1.35807
O -9.46892 -4.30949 -1.56965
H -11.27668 -3.8575 1.06884
H -9.99541 -1.87284 0.57132
H -10.68785 -5.83849 -0.69494
H -11.91606 -4.64278 -2.37926
H -12.669 -4.05341 -0.84005
H -11.22291 -2.58788 -2.88908
H -11.6055 -1.86042 -1.26106
H -9.01651 -2.24334 -1.90643
O -6.28954 -5.06122 2.0523
C -1.91162 -2.96405 1.0524
C -3.24344 -6.95251 1.42889
C -2.79961 -8.34935 1.86401
C -4.06617 -8.85574 2.51807
C -5.00748 -7.6809 2.23749
O -4.56502 -7.1744 1.00474
H -2.50752 -6.23806 3.34006
H -4.63859 -6.86033 4.24848
H -1.73207 -2.30009 1.92483
H -2.54592 -6.57364 0.65078
H -2.62131 -8.94209 0.93801
H -1.88848 -8.38104 2.4993
H -4.40662 -9.76338 1.9716
H -3.98592 -9.07443 3.60492
H -6.06877 -8.01372 2.27795
H -2.75095 -2.56565 0.44296
H -0.99581 -2.98788 0.427
H -5.76955 -4.86441 -0.68006
H -5.3826 -3.40932 0.32095
H -6.04932 -3.21379 -1.35001
H -8.56669 -6.19029 3.53243
H -9.5025 -5.3106 4.72161
H -7.31944 -3.54612 3.69124
H -7.71084 -4.06221 5.33377
$end

$opt
CONSTRAINT
tors           1           2           3           4     +26.509
tors           3           4           5           6    -125.489
tors           4           5           6           7    +179.574
tors           5           6           7           8     +82.867
tors           6           7           8           9    -132.491
tors           7           8           9          10    +113.526
tors           8           9          10          11    +178.544
tors           9          10          11          12     +72.617
tors          11          12          13          14    -155.776
ENDCONSTRAINT
$end

$rem
JOBTYPE                   OPT
METHOD                    B3LYP
DFT_D                     d3_op
BASIS                     STO-3G
GEOM_OPT_MAX_CYCLES       100
GEOM_OPT_TOL_GRADIENT     300
GEOM_OPT_TOL_DISPLACEMENT 1200
GEOM_OPT_TOL_ENERGY       100
SYMMETRY                  False
THRESH                    12
SCF_CONVERGENCE           8
MAX_SUB_FILE_NUM          128
MEM_STATIC                400
MEM_TOTAL                 4000
$end
--------------------------------------------------------------

   15   -1510.1440663201      6.92E-09 Convergence criterion met
 Total energy in the final basis set = -1510.14406632
   14   -1510.2146312600      6.04E-09 Convergence criterion met
 Total energy in the final basis set = -1510.21463126
   14   -1510.2515529204      9.58E-09 Convergence criterion met
 Total energy in the final basis set = -1510.25155292
   15   -1510.2647275101      1.73E-09 Convergence criterion met
 Total energy in the final basis set = -1510.26472751
   14   -1510.2750106245      6.82E-09 Convergence criterion met
 Total energy in the final basis set = -1510.27501062
   13   -1510.2772697392      5.70E-09 Convergence criterion met
 Total energy in the final basis set = -1510.27726974
   13   -1510.2792819409      3.32E-09 Convergence criterion met
 Total energy in the final basis set = -1510.27928194
   13   -1510.2800766660      5.01E-09 Convergence criterion met
   12   -1510.2837089996      7.01E-09 Convergence criterion met
 Total energy in the final basis set = -1510.28370900
   12   -1510.2837820376      3.70E-09 Convergence criterion met
 Total energy in the final basis set = -1510.28378204
   12   -1510.2838273382      3.70E-09 Convergence criterion met
 Total energy in the final basis set = -1510.28382734
   11   -1510.2838472517      5.00E-09 Convergence criterion met
 Total energy in the final basis set = -1510.28384725
   11   -1510.2838542529      3.41E-09 Convergence criterion met
 Total energy in the final basis set = -1510.28385425
    9   -1510.2838556523      4.39E-09 Convergence criterion met
 Total energy in the final basis set = -1510.28385565

             Standard Nuclear Orientation (Angstroms)
    I     Atom           X                Y                Z
 ----------------------------------------------------------------
    1      O      -2.5228635396    -1.0386603426     2.0254351970
    2      C      -3.1550929285    -1.2043456018     0.9581597550
    3      C      -3.7817321654    -0.0739339202     0.0650346152
    4      C      -3.0272060000     1.3137750410     0.2221171770
    5      C      -1.6617748298     1.1619592561     0.9688586939
    6      O      -1.5709492164     2.0359204495     2.1068323244
    7      C      -0.2428472583     1.7794568388     2.7175365586
    8      C       0.9033187459     2.5877672280     1.9894447900
    9      O       2.0409978320     1.6801827555     1.7085157727
   10      C       2.1915385930     1.5020857195     0.2831453817
   11      C       3.4291012420     0.5676100424     0.0797838325
   12      C       3.2139343534    -0.9547231377     0.4625010382
   13      C       1.7491716980    -1.5107241225     0.2912551112
   14      O       1.2571440703    -2.4892015452     0.9002561226
   15      O      -3.4060207874    -2.4784178037     0.3660126921
   16      O       1.1449428888    -0.8551984423    -0.8192112657
   17      O       1.4896766973     2.0809368844    -0.5727489064
   18      C      -0.1064741898    -1.5391560278    -1.2340633036
   19      C       4.0280373447     0.4545122051    -1.3878405850
   20      C       5.5808076600     0.2346850397    -1.2117394237
   21      C       5.5914198712    -1.2098381673    -0.5832815644
   22      C       4.0674453729    -1.6212544740    -0.7100532961
   23      O       3.5876550318    -0.8669849237    -1.8912869303
   24      H       4.2058226576     0.9733869582     0.7545902646
   25      H       3.5890997985    -1.1969946259     1.4717959694
   26      H       3.7191302484     1.2600893840    -2.0817443135
   27      H       6.0833439139     0.2475359029    -2.1924214708
   28      H       6.0499886736     0.9902035612    -0.5616866760
   29      H       6.2284008706    -1.9003131768    -1.1582998836
   30      H       5.9283074110    -1.2117618697     0.4660510643
   31      H       3.8859100183    -2.7057927424    -0.8426734900
   32      O      -0.7023936040     0.4550108767     0.5929875978
   33      C      -2.7674379925    -3.5443337003     1.1753209834
   34      C      -3.6622689351    -0.3279649372    -1.4964877854
   35      C      -4.7203936170     0.5862202219    -2.2244099943
   36      C      -4.0692908195     2.0079452462    -2.0393398921
   37      C      -2.7215233961     1.6404187374    -1.3044595801
   38      O      -2.3739932993     0.3089293559    -1.8592091545
   39      H      -4.8439746495     0.0295195998     0.3567908927
   40      H      -3.6499492257     2.0818025141     0.7117356477
   41      H      -3.1994486455    -3.5950019716     2.1955455212
   42      H      -3.6649971651    -1.3972038335    -1.7831598908
   43      H      -4.7925582168     0.3128858492    -3.2892669451
   44      H      -5.7217480841     0.5104113597    -1.7713952355
   45      H      -3.8629481620     2.4885265175    -3.0086414256
   46      H      -4.6938483238     2.6844945129    -1.4342288196
   47      H      -1.8849103584     2.3486340128    -1.4618690345
   48      H      -1.6723349530    -3.3857255099     1.2614838491
   49      H      -2.9661728412    -4.4912181842     0.6405868407
   50      H      -0.8809511703    -0.7650759372    -1.4469976471
   51      H      -0.4473537093    -2.2175559915    -0.4282245457
   52      H       0.1053338153    -2.1346720969    -2.1455326517
   53      H       0.5349575211     2.9976540625     1.0226502017
   54      H       1.2750335452     3.4123779257     2.6309489289
   55      H       0.0054429260     0.6983659180     2.6729821918
   56      H      -0.3357686525     2.0997453385     3.7740154145
 ----------------------------------------------------------------

    9   -1510.2838559892      5.50E-09 Convergence criterion met
 Total energy in the final basis set = -1510.28385599
 Final energy is   -1510.28385598924
 **  OPTIMIZATION CONVERGED  **

                    Orbital Energies (a.u.)
 --------------------------------------------------------------

 Alpha MOs
 -- Occupied --
-18.940 -18.927 -18.919 -18.909 -18.902 -18.879 -18.879 -18.871
-18.862 -18.847 -10.103 -10.092 -10.091 -10.077 -10.066 -10.065
-10.064 -10.060 -10.058 -10.052 -10.051 -10.043 -10.040 -10.028
-10.027 -10.025 -10.024 -10.017 -10.014 -10.013  -1.017  -1.007
 -0.999  -0.986  -0.979  -0.960  -0.940  -0.929  -0.924  -0.910
 -0.767  -0.755  -0.727  -0.717  -0.712  -0.699  -0.687  -0.662
 -0.631  -0.612  -0.593  -0.574  -0.549  -0.541  -0.536  -0.529
 -0.513  -0.499  -0.476  -0.467  -0.462  -0.457  -0.451  -0.439
 -0.432  -0.424  -0.422  -0.412  -0.412  -0.396  -0.394  -0.388
 -0.383  -0.378  -0.365  -0.359  -0.355  -0.350  -0.350  -0.343
 -0.336  -0.334  -0.329  -0.324  -0.323  -0.320  -0.316  -0.314
 -0.308  -0.300  -0.297  -0.297  -0.289  -0.283  -0.276  -0.273
 -0.260  -0.257  -0.252  -0.239  -0.238  -0.225  -0.219  -0.183
 -0.175  -0.161  -0.159  -0.155  -0.150  -0.146  -0.143  -0.132
 -0.130

          Ground-State Mulliken Net Atomic Charges

     Atom                 Charge (a.u.)
  ----------------------------------------
      1 O                    -0.209757
      2 C                     0.213012
      3 C                    -0.078655
      4 C                    -0.080198
      5 C                     0.210858
      6 O                    -0.170747
      7 C                    -0.052748
      8 C                    -0.058395
      9 O                    -0.176630
     10 C                     0.218837
     11 C                    -0.077959
     12 C                    -0.075182
     13 C                     0.208437
     14 O                    -0.228764
     15 O                    -0.169779
     16 O                    -0.160620
     17 O                    -0.207935
     18 C                    -0.143475
     19 C                     0.026112
     20 C                    -0.141753
     21 C                    -0.145509
     22 C                     0.024189
     23 O                    -0.185490
     24 H                     0.082128
     25 H                     0.084078
     26 H                     0.088597
     27 H                     0.076498
     28 H                     0.071656
     29 H                     0.076694
     30 H                     0.072761
     31 H                     0.081518
     32 O                    -0.215368
     33 C                    -0.129117
     34 C                     0.025058
     35 C                    -0.142640
     36 C                    -0.144133
     37 C                     0.028086
     38 O                    -0.183020
     39 H                     0.085691
     40 H                     0.086928
     41 H                     0.089390
     42 H                     0.094432
     43 H                     0.080063
     44 H                     0.074687
     45 H                     0.080657
     46 H                     0.075268
     47 H                     0.091493
     48 H                     0.100181
     49 H                     0.091552
     50 H                     0.114497
     51 H                     0.082532
     52 H                     0.071209
     53 H                     0.099762
     54 H                     0.081259
     55 H                     0.104791
     56 H                     0.084967
  ----------------------------------------
  Sum of atomic charges =     0.000000

                    Cartesian Multipole Moments
 -----------------------------------------------------------------
    Charge (ESU x 10^10)
                -0.0000
    Dipole Moment (Debye)
         X      -1.5890      Y       0.9799      Z       0.5594
       Tot       1.9488
    Quadrupole Moments (Debye-Ang)
        XX    -134.9108     XY       1.0475     YY    -153.1686
        XZ       5.5281     YZ       1.4666     ZZ    -163.2348

 Total job time:  63.94s(wall), 3043.59s(cpu)
        *  Thank you very much for using Q-Chem.  Have a nice day.  *
