 Q-Chem 5.0, Q-Chem, Inc., Pleasanton, CA (2017)
 Q-Chem 5.0.1 for Intel X86 EM64T Linux

User input:
--------------------------------------------------------------
$molecule
0  1
O -2.5228635396 -1.0386603426 2.025435197
C -3.1550929285 -1.2043456018 0.958159755
C -3.7817321654 -0.0739339202 0.0650346152
C -3.027206 1.313775041 0.222117177
C -1.6617748298 1.1619592561 0.9688586939
O -1.5709492164 2.0359204495 2.1068323244
C -0.2428472583 1.7794568388 2.7175365586
C 0.9033187459 2.587767228 1.98944479
O 2.040997832 1.6801827555 1.7085157727
C 2.191538593 1.5020857195 0.2831453817
C 3.429101242 0.5676100424 0.0797838325
C 3.2139343534 -0.9547231377 0.4625010382
C 1.749171698 -1.5107241225 0.2912551112
O 1.2571440703 -2.4892015452 0.9002561226
O -3.4060207874 -2.4784178037 0.3660126921
O 1.1449428888 -0.8551984423 -0.8192112657
O 1.4896766973 2.0809368844 -0.5727489064
C -0.1064741898 -1.5391560278 -1.2340633036
C 4.0280373447 0.4545122051 -1.387840585
C 5.58080766 0.2346850397 -1.2117394237
C 5.5914198712 -1.2098381673 -0.5832815644
C 4.0674453729 -1.621254474 -0.7100532961
O 3.5876550318 -0.8669849237 -1.8912869303
H 4.2058226576 0.9733869582 0.7545902646
H 3.5890997985 -1.1969946259 1.4717959694
H 3.7191302484 1.260089384 -2.0817443135
H 6.0833439139 0.2475359029 -2.1924214708
H 6.0499886736 0.9902035612 -0.561686676
H 6.2284008706 -1.9003131768 -1.1582998836
H 5.928307411 -1.2117618697 0.4660510643
H 3.8859100183 -2.7057927424 -0.84267349
O -0.702393604 0.4550108767 0.5929875978
C -2.7674379925 -3.5443337003 1.1753209834
C -3.6622689351 -0.3279649372 -1.4964877854
C -4.720393617 0.5862202219 -2.2244099943
C -4.0692908195 2.0079452462 -2.0393398921
C -2.7215233961 1.6404187374 -1.3044595801
O -2.3739932993 0.3089293559 -1.8592091545
H -4.8439746495 0.0295195998 0.3567908927
H -3.6499492257 2.0818025141 0.7117356477
H -3.1994486455 -3.5950019716 2.1955455212
H -3.6649971651 -1.3972038335 -1.7831598908
H -4.7925582168 0.3128858492 -3.2892669451
H -5.7217480841 0.5104113597 -1.7713952355
H -3.862948162 2.4885265175 -3.0086414256
H -4.6938483238 2.6844945129 -1.4342288196
H -1.8849103584 2.3486340128 -1.4618690345
H -1.672334953 -3.3857255099 1.2614838491
H -2.9661728412 -4.4912181842 0.6405868407
H -0.8809511703 -0.7650759372 -1.4469976471
H -0.4473537093 -2.2175559915 -0.4282245457
H 0.1053338153 -2.1346720969 -2.1455326517
H 0.5349575211 2.9976540625 1.0226502017
H 1.2750335452 3.4123779257 2.6309489289
H 0.005442926 0.698365918 2.6729821918
H -0.3357686525 2.0997453385 3.7740154145
$end

$rem
JOBTYPE                   OPT
METHOD                    B3LYP
DFT_D                     d3_op
BASIS                     STO-3G
GEOM_OPT_MAX_CYCLES       100
GEOM_OPT_TOL_GRADIENT     300
GEOM_OPT_TOL_DISPLACEMENT 1200
GEOM_OPT_TOL_ENERGY       100
SYMMETRY                  False
THRESH                    12
SCF_CONVERGENCE           8
MAX_SUB_FILE_NUM          128
MEM_STATIC                400
MEM_TOTAL                 4000
$end
--------------------------------------------------------------

   16   -1510.2837920211      6.14E-09 Convergence criterion met
 Total energy in the final basis set = -1510.28379202
   14   -1510.2480053346      2.69E-09 Convergence criterion met
 Total energy in the final basis set = -1510.24800533
   14   -1510.2817468675      4.70E-09 Convergence criterion met
 Total energy in the final basis set = -1510.28174687
   14   -1510.2708665839      6.04E-09 Convergence criterion met
 Total energy in the final basis set = -1510.27086658
   15   -1510.2799148272      5.09E-09 Convergence criterion met
 Total energy in the final basis set = -1510.27991483
   14   -1510.2788016212      9.45E-09 Convergence criterion met
 Total energy in the final basis set = -1510.27880162
   13   -1510.2822532413      5.22E-09 Convergence criterion met
 Total energy in the final basis set = -1510.28225324
   13   -1510.2857121718      5.02E-09 Convergence criterion met
   10   -1510.2948814564      8.64E-09 Convergence criterion met
 Total energy in the final basis set = -1510.29488146
   11   -1510.2948882040      4.17E-09 Convergence criterion met
 Total energy in the final basis set = -1510.29488820
   10   -1510.2948929405      5.08E-09 Convergence criterion met
 Total energy in the final basis set = -1510.29489294
    9   -1510.2948958902      9.35E-09 Convergence criterion met
 Total energy in the final basis set = -1510.29489589
    9   -1510.2948990437      8.58E-09 Convergence criterion met
 Total energy in the final basis set = -1510.29489904
    9   -1510.2949007584      6.39E-09 Convergence criterion met
 Total energy in the final basis set = -1510.29490076

             Standard Nuclear Orientation (Angstroms)
    I     Atom           X                Y                Z
 ----------------------------------------------------------------
    1      O      -2.3413985769    -0.6753438453     2.2444697446
    2      C      -2.8506011063    -1.1034160536     1.1838531713
    3      C      -3.6934203978    -0.2416537709     0.1709497501
    4      C      -3.0367271352     1.1832690522    -0.0830991717
    5      C      -1.6468975917     1.3453175242     0.6200217720
    6      O      -1.7229694325     2.4538704434     1.5233594474
    7      C      -0.4393380109     2.6023548921     2.2474531289
    8      C       0.7380989538     3.1315758132     1.3310934446
    9      O       1.8908308823     2.2081587250     1.4160279541
   10      C       2.1297329150     1.5615947252     0.1532421524
   11      C       3.3553318397     0.6123597910     0.3592682777
   12      C       3.0318180797    -0.9407320045     0.4810615309
   13      C       1.5351828878    -1.3757118172     0.2693983359
   14      O       0.7921801317    -1.8484220382     1.1633010427
   15      O      -2.7537676597    -2.4479162299     0.7293435426
   16      O       1.2150491794    -1.2520316804    -1.1046603991
   17      O       1.4928902164     1.8047124588    -0.8936818194
   18      C      -0.1156077911    -1.8255206302    -1.4268106427
   19      C       4.3394753939     0.6195502693    -0.8906476520
   20      C       5.7512855257     0.1159579740    -0.3927364110
   21      C       5.4703950048    -1.4213163125    -0.2075625155
   22      C       3.9621664660    -1.5172760376    -0.6733269729
   23      O       3.8565225476    -0.4933448568    -1.7356819828
   24      H       3.8716580428     0.9542764862     1.2732792933
   25      H       3.3330446281    -1.3132726214     1.4763799656
   26      H       4.3442742467     1.5659789205    -1.4648811773
   27      H       6.5178270948     0.2960778597    -1.1631613107
   28      H       6.0644644069     0.6093528083     0.5409317777
   29      H       6.1144820281    -2.0321497715    -0.8600400546
   30      H       5.6040351994    -1.7560903492     0.8335401865
   31      H       3.6509920981    -2.5072791291    -1.0586813031
   32      O      -0.6160061345     0.6652101217     0.4284348063
   33      C      -1.8296380366    -3.2061947838     1.6129300832
   34      C      -3.7416526778    -0.8244948948    -1.3004634813
   35      C      -4.9101545926    -0.1112989767    -2.0833283802
   36      C      -4.2910791991     1.3155811926    -2.3271082233
   37      C      -2.8688476096     1.1532131252    -1.6617681325
   38      O      -2.5247520752    -0.2613868310    -1.9357207050
   39      H      -4.7125241225    -0.1272845260     0.5848489938
   40      H      -3.6959216055     2.0034996452     0.2491273016
   41      H      -2.1809519672    -3.1999887739     2.6639999639
   42      H      -3.7265644769    -1.9298663198    -1.3505575809
   43      H      -5.1094377806    -0.6314350580    -3.0338002293
   44      H      -5.8421903775    -0.0770029068    -1.4968534650
   45      H      -4.1895234187     1.5334985688    -3.4021265022
   46      H      -4.8771785058     2.1210591896    -1.8565631704
   47      H      -2.0788649674     1.8223773783    -2.0547488714
   48      H      -0.8043640738    -2.7663398988     1.5526146020
   49      H      -1.8314628246    -4.2420170757     1.2274800691
   50      H      -0.9181307016    -1.0463896524    -1.4369189035
   51      H      -0.3879315183    -2.6240168281    -0.7118733194
   52      H      -0.0205177373    -2.2551460151    -2.4419494556
   53      H       0.4100373084     3.1966726778     0.2698791663
   54      H       1.0794093321     4.1291359799     1.6765428521
   55      H      -0.1269843908     1.6299478024     2.6879996662
   56      H      -0.6526757689     3.3205274105     3.0631602685
 ----------------------------------------------------------------

    9   -1510.2949007109      3.34E-09 Convergence criterion met
 Total energy in the final basis set = -1510.29490071
 Final energy is   -1510.29490071094
 **  OPTIMIZATION CONVERGED  **

                    Orbital Energies (a.u.)
 --------------------------------------------------------------

 Alpha MOs
 -- Occupied --
-18.930 -18.927 -18.924 -18.922 -18.901 -18.883 -18.872 -18.868
-18.865 -18.861 -10.095 -10.093 -10.093 -10.090 -10.066 -10.065
-10.062 -10.062 -10.054 -10.053 -10.038 -10.037 -10.036 -10.031
-10.029 -10.025 -10.024 -10.022 -10.016 -10.015  -1.011  -1.004
 -1.000  -0.995  -0.978  -0.963  -0.935  -0.929  -0.926  -0.921
 -0.765  -0.756  -0.725  -0.718  -0.711  -0.703  -0.691  -0.648
 -0.639  -0.615  -0.592  -0.576  -0.547  -0.540  -0.537  -0.532
 -0.509  -0.505  -0.476  -0.467  -0.462  -0.452  -0.449  -0.438
 -0.434  -0.428  -0.426  -0.413  -0.406  -0.396  -0.392  -0.386
 -0.385  -0.373  -0.367  -0.361  -0.357  -0.353  -0.344  -0.342
 -0.336  -0.335  -0.332  -0.326  -0.325  -0.321  -0.318  -0.312
 -0.305  -0.301  -0.298  -0.296  -0.290  -0.282  -0.274  -0.272
 -0.268  -0.255  -0.245  -0.241  -0.237  -0.230  -0.228  -0.178
 -0.168  -0.165  -0.162  -0.151  -0.149  -0.147  -0.142  -0.139
 -0.136

          Ground-State Mulliken Net Atomic Charges

     Atom                 Charge (a.u.)
  ----------------------------------------
      1 O                    -0.215465
      2 C                     0.211016
      3 C                    -0.079318
      4 C                    -0.080457
      5 C                     0.212611
      6 O                    -0.171164
      7 C                    -0.050989
      8 C                    -0.056973
      9 O                    -0.175040
     10 C                     0.215328
     11 C                    -0.078427
     12 C                    -0.077140
     13 C                     0.218906
     14 O                    -0.222838
     15 O                    -0.173326
     16 O                    -0.159244
     17 O                    -0.204511
     18 C                    -0.145538
     19 C                     0.026407
     20 C                    -0.143796
     21 C                    -0.144832
     22 C                     0.027396
     23 O                    -0.182085
     24 H                     0.085220
     25 H                     0.083032
     26 H                     0.083982
     27 H                     0.076876
     28 H                     0.072630
     29 H                     0.076798
     30 H                     0.072828
     31 H                     0.083149
     32 O                    -0.214125
     33 C                    -0.145545
     34 C                     0.024285
     35 C                    -0.143341
     36 C                    -0.143518
     37 C                     0.026965
     38 O                    -0.185233
     39 H                     0.084494
     40 H                     0.086718
     41 H                     0.082911
     42 H                     0.095484
     43 H                     0.079237
     44 H                     0.074605
     45 H                     0.079813
     46 H                     0.075246
     47 H                     0.089625
     48 H                     0.119130
     49 H                     0.080370
     50 H                     0.116445
     51 H                     0.081227
     52 H                     0.078754
     53 H                     0.100277
     54 H                     0.082310
     55 H                     0.100699
     56 H                     0.088131
  ----------------------------------------
  Sum of atomic charges =    -0.000000

                    Cartesian Multipole Moments
 -----------------------------------------------------------------
    Charge (ESU x 10^10)
                -0.0000
    Dipole Moment (Debye)
         X      -0.8409      Y       0.8055      Z       0.5428
       Tot       1.2848
    Quadrupole Moments (Debye-Ang)
        XX    -138.0508     XY      -1.5704     YY    -149.5296
        XZ       9.0371     YZ       1.4666     ZZ    -165.6148

 Total job time:  128.95s(wall), 6150.72s(cpu)
        *  Thank you very much for using Q-Chem.  Have a nice day.  *
