 Q-Chem 5.0, Q-Chem, Inc., Pleasanton, CA (2017)
 Q-Chem 5.0.1 for Intel X86 EM64T Linux

User input:
--------------------------------------------------------------
$molecule
0  1
O -2.0797600379 -1.587077507 1.6131199336
C -2.9971060717 -1.6298800856 0.7634822191
C -3.8358869563 -0.4502814608 0.1612188302
C -3.2772764717 1.006584728 0.4159649517
C -1.7680936145 1.0903917009 0.8376301088
O -1.6449785186 2.1682340867 1.7785138258
C -0.2393577495 2.308759914 2.2242144056
C 0.6932672171 2.9833246803 1.1341259638
O 2.0101366101 2.3141018361 1.0711145671
C 2.1297907655 1.5090155778 -0.117916878
C 3.5618967131 0.8751845553 -0.0834896673
C 3.6979520991 -0.558516235 0.5859465642
C 2.3719791591 -1.347758964 0.8701705142
O 2.1295619576 -2.0407868504 1.884489663
O -3.4941970811 -2.8434188391 0.1895428631
O 1.5440050299 -1.2913650107 -0.2870385923
O 1.2698732882 1.4642622681 -1.0217404651
C 0.3867298408 -2.203089741 -0.1352185852
C 4.1533565543 0.5987332853 -1.5343788209
C 5.7275829806 0.6100969607 -1.4135465539
C 5.971446004 -0.7400493714 -0.6421013649
C 4.502618496 -1.3203163237 -0.5593189852
O 3.8518245767 -0.8269004314 -1.7922524525
H 4.2012664439 1.5885506043 0.4669853869
H 4.2687514296 -0.506921927 1.5296508144
H 3.7245823744 1.2341788282 -2.3331522547
H 6.1893932765 0.5911020892 -2.413729414
H 6.1028170695 1.4894915975 -0.8665906822
H 6.6245088527 -1.4208550464 -1.2107533491
H 6.4086942072 -0.5839204577 0.3570862447
H 4.4381603344 -2.4243392032 -0.5019089776
O -0.7993651604 0.4340895025 0.4048260543
C -2.7618166156 -4.0112618596 0.7317894442
C -3.9569521562 -0.4756545477 -1.4273509553
C -5.2932640555 0.2692974696 -1.810432681
C -4.9088026205 1.7555759069 -1.4625782171
C -3.3875135193 1.5980687502 -1.0610092953
O -2.910223068 0.4638682345 -1.8858518906
H -4.8463970456 -0.5368993784 0.603989096
H -3.8852952095 1.5685135352 1.1454491099
H -2.6812120846 -3.9663238149 1.8363800696
H -3.8165831807 -1.4776933671 -1.87647649
H -5.5017905434 0.1497866636 -2.8857545628
H -6.1599772187 -0.0972661196 -1.2378349656
H -5.0101250259 2.4173468621 -2.3371285812
H -5.5107028382 2.1681447828 -0.6369931971
H -2.7614961753 2.4942928467 -1.2381082448
H -1.7398446013 -4.078151236 0.3067089541
H -3.3415003505 -4.9038008057 0.4323508076
H -0.1726576899 -2.1300581393 -1.0858192772
H -0.2810562037 -1.9017611188 0.7006820302
H 0.7224451473 -3.2490074004 0.0225378546
H 0.2102504373 2.91025601 0.1344439663
H 0.8753415757 4.0481111793 1.3840966915
H 0.1888603836 1.3137301403 2.4767905761
H -0.2836674472 2.9293566661 3.1404105391
$end

$rem
JOBTYPE                   OPT
METHOD                    B3LYP
DFT_D                     d3_op
BASIS                     STO-3G
GEOM_OPT_MAX_CYCLES       100
GEOM_OPT_TOL_GRADIENT     300
GEOM_OPT_TOL_DISPLACEMENT 1200
GEOM_OPT_TOL_ENERGY       100
SYMMETRY                  False
THRESH                    12
SCF_CONVERGENCE           8
MAX_SUB_FILE_NUM          128
MEM_STATIC                400
MEM_TOTAL                 4000
$end
--------------------------------------------------------------

   16   -1510.2798279193      5.47E-09 Convergence criterion met
 Total energy in the final basis set = -1510.27982792
   14   -1510.2794786912      3.09E-09 Convergence criterion met
 Total energy in the final basis set = -1510.27947869
   14   -1510.2727174035      5.40E-09 Convergence criterion met
 Total energy in the final basis set = -1510.27271740
   14   -1510.2818360474      2.57E-09 Convergence criterion met
 Total energy in the final basis set = -1510.28183605
   14   -1510.2840446371      2.64E-09 Convergence criterion met
 Total energy in the final basis set = -1510.28404464
   14   -1510.2829358433      1.99E-09 Convergence criterion met
 Total energy in the final basis set = -1510.28293584
   13   -1510.2864003832      8.09E-09 Convergence criterion met
 Total energy in the final basis set = -1510.28640038
   14   -1510.2842113731      6.02E-09 Convergence criterion met
   11   -1510.2947869518      6.01E-09 Convergence criterion met
 Total energy in the final basis set = -1510.29478695
   11   -1510.2947919165      4.21E-09 Convergence criterion met
 Total energy in the final basis set = -1510.29479192
   11   -1510.2947964364      4.03E-09 Convergence criterion met
 Total energy in the final basis set = -1510.29479644
   10   -1510.2947982898      7.91E-09 Convergence criterion met
 Total energy in the final basis set = -1510.29479829
   10   -1510.2948006914      2.66E-09 Convergence criterion met
 Total energy in the final basis set = -1510.29480069
    9   -1510.2948020559      8.47E-09 Convergence criterion met
 Total energy in the final basis set = -1510.29480206

             Standard Nuclear Orientation (Angstroms)
    I     Atom           X                Y                Z
 ----------------------------------------------------------------
    1      O      -2.0952510115    -0.8636522317     2.1663563132
    2      C      -2.7637289204    -1.2352427443     1.1742006300
    3      C      -3.8012115665    -0.3431483499     0.3946822150
    4      C      -3.2503071228     1.1346735369     0.1811146201
    5      C      -1.7831049070     1.2861312311     0.7035109935
    6      O      -1.7545185462     2.1506314348     1.8405474489
    7      C      -0.4050588548     2.1125280053     2.4571227748
    8      C       0.7075954149     2.8665679387     1.6204495923
    9      O       1.9395225292     2.0431631709     1.6020404600
   10      C       2.2138684624     1.5664636364     0.2728455287
   11      C       3.4772080601     0.6464623446     0.3559970473
   12      C       3.1735260856    -0.9145635843     0.2441489960
   13      C       1.6553259135    -1.2595161871     0.0260248802
   14      O       0.8406492815    -1.5456703386     0.9375818249
   15      O      -2.6666470492    -2.5245456759     0.5821708607
   16      O       1.3629289979    -1.2171040656    -1.3592873456
   17      O       1.5544130040     1.8888844306    -0.7385942994
   18      C      -0.0906374976    -1.4060883803    -1.6058678238
   19      C       4.4489858261     0.8481104905    -0.8863707788
   20      C       5.8654567445     0.2691174398    -0.4968631328
   21      C       5.5874013557    -1.2783236919    -0.5658813426
   22      C       4.0697501201    -1.2980982345    -1.0075645907
   23      O       3.9468090759    -0.1151177901    -1.8899184085
   24      H       3.9841983085     0.8691264678     1.3115189237
   25      H       3.5007950688    -1.4311874998     1.1639095279
   26      H       4.4522944104     1.8736042650    -1.3038534568
   27      H       6.6213580233     0.5763863890    -1.2372632628
   28      H       6.1942546780     0.5997993713     0.5014334502
   29      H       6.2158309614    -1.7683950030    -1.3262562827
   30      H       5.7452737830    -1.7824190875     0.4010658523
   31      H       3.7428764859    -2.2122064749    -1.5387359468
   32      O      -0.7584082526     0.7536946967     0.2172288640
   33      C      -1.5563491522    -3.2787649028     1.2215515836
   34      C      -4.0360749578    -0.8003864884    -1.1041749462
   35      C      -5.3325337450    -0.0839834199    -1.6503422598
   36      C      -4.8073552498     1.3868534637    -1.8476266776
   37      C      -3.2996799194     1.2356086684    -1.4027955051
   38      O      -2.9372483710    -0.1313253661    -1.8402498330
   39      H      -4.7472187012    -0.3285619770     0.9672980733
   40      H      -3.8886216861     1.8872657675     0.6753394512
   41      H      -1.7809331692    -3.4992413810     2.2844940114
   42      H      -3.9899375291    -1.8963901220    -1.2493955440
   43      H      -5.6440691686    -0.5320361926    -2.6072746816
   44      H      -6.1730672855    -0.1458346818    -0.9408549124
   45      H      -4.8692144461     1.7009200971    -2.9016607391
   46      H      -5.3490863883     2.1192753425    -1.2281813321
   47      H      -2.6000432143     1.9763915688    -1.8361001733
   48      H      -0.6059140206    -2.6932961312     1.1505891526
   49      H      -1.4776005711    -4.2265805063     0.6584782193
   50      H      -0.2284492929    -1.2603326628    -2.6920721296
   51      H      -0.6724621432    -0.6435032787    -1.0363197165
   52      H      -0.4184228632    -2.4273024613    -1.3269235493
   53      H       0.3755263589     3.0241083397     0.5708816666
   54      H       0.9561957558     3.8416507724     2.0865247934
   55      H      -0.0815027450     1.0566321301     2.5910108749
   56      H      -0.5327593702     2.5835563731     3.4513632404
 ----------------------------------------------------------------

    9   -1510.2948024679      3.06E-09 Convergence criterion met
 Total energy in the final basis set = -1510.29480247
 Final energy is   -1510.29480246792
 **  OPTIMIZATION CONVERGED  **

                    Orbital Energies (a.u.)
 --------------------------------------------------------------

 Alpha MOs
 -- Occupied --
-18.935 -18.929 -18.926 -18.925 -18.887 -18.883 -18.874 -18.874
-18.866 -18.864 -10.101 -10.094 -10.094 -10.092 -10.066 -10.062
-10.060 -10.057 -10.055 -10.054 -10.039 -10.037 -10.036 -10.033
-10.031 -10.028 -10.020 -10.019 -10.016 -10.015  -1.015  -1.005
 -1.002  -0.998  -0.970  -0.964  -0.937  -0.930  -0.928  -0.924
 -0.762  -0.757  -0.724  -0.719  -0.709  -0.703  -0.691  -0.648
 -0.640  -0.614  -0.592  -0.577  -0.545  -0.540  -0.536  -0.532
 -0.508  -0.505  -0.476  -0.470  -0.460  -0.455  -0.450  -0.438
 -0.432  -0.429  -0.427  -0.413  -0.406  -0.402  -0.394  -0.391
 -0.387  -0.373  -0.367  -0.360  -0.355  -0.352  -0.350  -0.344
 -0.340  -0.333  -0.329  -0.326  -0.323  -0.320  -0.318  -0.310
 -0.303  -0.302  -0.301  -0.292  -0.290  -0.282  -0.274  -0.272
 -0.270  -0.259  -0.246  -0.241  -0.235  -0.232  -0.228  -0.182
 -0.170  -0.167  -0.162  -0.154  -0.150  -0.147  -0.142  -0.140
 -0.137

          Ground-State Mulliken Net Atomic Charges

     Atom                 Charge (a.u.)
  ----------------------------------------
      1 O                    -0.215773
      2 C                     0.209964
      3 C                    -0.078944
      4 C                    -0.080321
      5 C                     0.217503
      6 O                    -0.167359
      7 C                    -0.050498
      8 C                    -0.057564
      9 O                    -0.174234
     10 C                     0.210866
     11 C                    -0.078339
     12 C                    -0.077692
     13 C                     0.214723
     14 O                    -0.220605
     15 O                    -0.171724
     16 O                    -0.161403
     17 O                    -0.202410
     18 C                    -0.141571
     19 C                     0.026216
     20 C                    -0.143798
     21 C                    -0.144706
     22 C                     0.026768
     23 O                    -0.182448
     24 H                     0.085542
     25 H                     0.082872
     26 H                     0.083895
     27 H                     0.077154
     28 H                     0.072668
     29 H                     0.077082
     30 H                     0.072518
     31 H                     0.086250
     32 O                    -0.214046
     33 C                    -0.145195
     34 C                     0.022694
     35 C                    -0.143955
     36 C                    -0.144049
     37 C                     0.025048
     38 O                    -0.189130
     39 H                     0.084200
     40 H                     0.086301
     41 H                     0.081004
     42 H                     0.093338
     43 H                     0.078123
     44 H                     0.073233
     45 H                     0.078450
     46 H                     0.073666
     47 H                     0.085713
     48 H                     0.118464
     49 H                     0.079938
     50 H                     0.087258
     51 H                     0.119747
     52 H                     0.075743
     53 H                     0.102956
     54 H                     0.082370
     55 H                     0.104717
     56 H                     0.088780
  ----------------------------------------
  Sum of atomic charges =    -0.000000

                    Cartesian Multipole Moments
 -----------------------------------------------------------------
    Charge (ESU x 10^10)
                -0.0000
    Dipole Moment (Debye)
         X      -0.6713      Y       0.4395      Z       1.1672
       Tot       1.4164
    Quadrupole Moments (Debye-Ang)
        XX    -137.1090     XY      -2.9619     YY    -150.5849
        XZ       6.7974     YZ       2.3695     ZZ    -166.3692

 Total job time:  103.89s(wall), 4960.37s(cpu)
        *  Thank you very much for using Q-Chem.  Have a nice day.  *
