 Q-Chem 5.0, Q-Chem, Inc., Pleasanton, CA (2017)
 Q-Chem 5.0.1 for Intel X86 EM64T Linux

User input:
--------------------------------------------------------------
$molecule
0  1
O -3.94934 -3.66094 2.70899
C -3.26408 -4.56952 2.26188
C -3.36658 -6.02376 2.66595
C -4.61263 -6.44577 3.46164
C -5.70136 -5.40635 3.61112
O -6.2846 -5.51887 4.84099
C -7.3292 -4.56449 5.05829
C -8.58114 -4.97094 4.28785
O -9.18893 -3.81229 3.69539
C -9.04111 -3.69879 2.35211
C -9.71897 -2.47327 1.78706
C -8.82484 -1.22912 1.68277
C -7.33474 -1.47362 1.81132
O -6.54722 -0.75372 2.40808
O -2.21588 -4.26615 1.44964
O -6.82164 -2.41579 0.97691
O -8.68893 -4.61925 1.62321
C -5.58315 -2.31205 0.38359
C -10.16635 -2.60947 0.31051
C -11.29535 -1.61996 0.02063
C -10.53624 -0.30915 0.05248
C -9.10399 -0.82883 0.22059
O -9.1103 -2.06988 -0.4415
H -10.64253 -2.30321 2.38669
H -9.10023 -0.42512 2.40041
H -10.48732 -3.63843 0.03778
H -11.63004 -1.81044 -1.02458
H -12.17399 -1.67611 0.69859
H -10.66417 0.19442 -0.93137
H -10.81588 0.38289 0.87621
H -8.3696 -0.08175 -0.15471
O -6.18699 -4.79399 2.66749
C -1.88422 -2.99998 1.01723
C -3.52691 -6.92283 1.42007
C -3.10485 -8.35496 1.74827
C -4.27055 -8.80106 2.60294
C -5.15448 -7.55259 2.53657
O -4.9161 -7.03941 1.25042
H -2.4159 -6.28076 3.18439
H -4.36091 -6.86428 4.46315
H -1.69166 -2.33449 1.8856
H -2.95949 -6.55904 0.53562
H -3.12005 -8.93789 0.79953
H -2.10357 -8.44652 2.22152
H -4.77786 -9.64902 2.09081
H -4.01544 -9.08727 3.64616
H -6.21072 -7.81763 2.76708
H -2.69339 -2.58297 0.38646
H -0.96337 -3.05869 0.40166
H -5.35621 -3.24916 -0.16497
H -4.80552 -2.11352 1.13971
H -5.58576 -1.46545 -0.33524
H -8.32422 -5.75644 3.54561
H -9.29958 -5.49376 4.95412
H -6.97165 -3.55335 4.74968
H -7.57485 -4.48533 6.13838
$end

$opt
CONSTRAINT
tors           1           2           3           4     +13.972
tors           3           4           5           6    -144.252
tors           4           5           6           7    +179.997
tors           5           6           7           8     +75.371
tors           6           7           8           9    -139.049
tors           7           8           9          10    +106.570
tors           8           9          10          11    +179.126
tors           9          10          11          12     +92.355
tors          11          12          13          14    -140.551
ENDCONSTRAINT
$end

$rem
JOBTYPE                   OPT
METHOD                    B3LYP
DFT_D                     d3_op
BASIS                     STO-3G
GEOM_OPT_MAX_CYCLES       100
GEOM_OPT_TOL_GRADIENT     300
GEOM_OPT_TOL_DISPLACEMENT 1200
GEOM_OPT_TOL_ENERGY       100
SYMMETRY                  False
THRESH                    12
SCF_CONVERGENCE           8
MAX_SUB_FILE_NUM          128
MEM_STATIC                400
MEM_TOTAL                 4000
$end
--------------------------------------------------------------

   16   -1510.1374638254      1.86E-09 Convergence criterion met
 Total energy in the final basis set = -1510.13746383
   14   -1510.2082392241      6.35E-09 Convergence criterion met
 Total energy in the final basis set = -1510.20823922
   15   -1510.2376492105      2.28E-09 Convergence criterion met
 Total energy in the final basis set = -1510.23764921
   15   -1510.2638287544      1.98E-09 Convergence criterion met
 Total energy in the final basis set = -1510.26382875
   13   -1510.2718103446      7.90E-09 Convergence criterion met
 Total energy in the final basis set = -1510.27181034
   13   -1510.2764655531      8.31E-09 Convergence criterion met
 Total energy in the final basis set = -1510.27646555
   12   -1510.2785566866      9.59E-09 Convergence criterion met
 Total energy in the final basis set = -1510.27855669
   13   -1510.2792229325      3.08E-09 Convergence criterion met
    9   -1510.2798227736      7.81E-09 Convergence criterion met
 Total energy in the final basis set = -1510.27982277
    9   -1510.2798275677      6.83E-09 Convergence criterion met
 Total energy in the final basis set = -1510.27982757
    9   -1510.2798314194      8.58E-09 Convergence criterion met
 Total energy in the final basis set = -1510.27983142
    9   -1510.2798352159      8.78E-09 Convergence criterion met
 Total energy in the final basis set = -1510.27983522
    9   -1510.2798382483      6.50E-09 Convergence criterion met
 Total energy in the final basis set = -1510.27983825
    9   -1510.2798396264      9.50E-09 Convergence criterion met
 Total energy in the final basis set = -1510.27983963

             Standard Nuclear Orientation (Angstroms)
    I     Atom           X                Y                Z
 ----------------------------------------------------------------
    1      O      -2.0797600379    -1.5870775070     1.6131199336
    2      C      -2.9971060717    -1.6298800856     0.7634822191
    3      C      -3.8358869563    -0.4502814608     0.1612188302
    4      C      -3.2772764717     1.0065847280     0.4159649517
    5      C      -1.7680936145     1.0903917009     0.8376301088
    6      O      -1.6449785186     2.1682340867     1.7785138258
    7      C      -0.2393577495     2.3087599140     2.2242144056
    8      C       0.6932672171     2.9833246803     1.1341259638
    9      O       2.0101366101     2.3141018361     1.0711145671
   10      C       2.1297907655     1.5090155778    -0.1179168780
   11      C       3.5618967131     0.8751845553    -0.0834896673
   12      C       3.6979520991    -0.5585162350     0.5859465642
   13      C       2.3719791591    -1.3477589640     0.8701705142
   14      O       2.1295619576    -2.0407868504     1.8844896630
   15      O      -3.4941970811    -2.8434188391     0.1895428631
   16      O       1.5440050299    -1.2913650107    -0.2870385923
   17      O       1.2698732882     1.4642622681    -1.0217404651
   18      C       0.3867298408    -2.2030897410    -0.1352185852
   19      C       4.1533565543     0.5987332853    -1.5343788209
   20      C       5.7275829806     0.6100969607    -1.4135465539
   21      C       5.9714460040    -0.7400493714    -0.6421013649
   22      C       4.5026184960    -1.3203163237    -0.5593189852
   23      O       3.8518245767    -0.8269004314    -1.7922524525
   24      H       4.2012664439     1.5885506043     0.4669853869
   25      H       4.2687514296    -0.5069219270     1.5296508144
   26      H       3.7245823744     1.2341788282    -2.3331522547
   27      H       6.1893932765     0.5911020892    -2.4137294140
   28      H       6.1028170695     1.4894915975    -0.8665906822
   29      H       6.6245088527    -1.4208550464    -1.2107533491
   30      H       6.4086942072    -0.5839204577     0.3570862447
   31      H       4.4381603344    -2.4243392032    -0.5019089776
   32      O      -0.7993651604     0.4340895025     0.4048260543
   33      C      -2.7618166156    -4.0112618596     0.7317894442
   34      C      -3.9569521562    -0.4756545477    -1.4273509553
   35      C      -5.2932640555     0.2692974696    -1.8104326810
   36      C      -4.9088026205     1.7555759069    -1.4625782171
   37      C      -3.3875135193     1.5980687502    -1.0610092953
   38      O      -2.9102230680     0.4638682345    -1.8858518906
   39      H      -4.8463970456    -0.5368993784     0.6039890960
   40      H      -3.8852952095     1.5685135352     1.1454491099
   41      H      -2.6812120846    -3.9663238149     1.8363800696
   42      H      -3.8165831807    -1.4776933671    -1.8764764900
   43      H      -5.5017905434     0.1497866636    -2.8857545628
   44      H      -6.1599772187    -0.0972661196    -1.2378349656
   45      H      -5.0101250259     2.4173468621    -2.3371285812
   46      H      -5.5107028382     2.1681447828    -0.6369931971
   47      H      -2.7614961753     2.4942928467    -1.2381082448
   48      H      -1.7398446013    -4.0781512360     0.3067089541
   49      H      -3.3415003505    -4.9038008057     0.4323508076
   50      H      -0.1726576899    -2.1300581393    -1.0858192772
   51      H      -0.2810562037    -1.9017611188     0.7006820302
   52      H       0.7224451473    -3.2490074004     0.0225378546
   53      H       0.2102504373     2.9102560100     0.1344439663
   54      H       0.8753415757     4.0481111793     1.3840966915
   55      H       0.1888603836     1.3137301403     2.4767905761
   56      H      -0.2836674472     2.9293566661     3.1404105391
 ----------------------------------------------------------------

    9   -1510.2798395062      4.59E-09 Convergence criterion met
 Total energy in the final basis set = -1510.27983951
 Final energy is   -1510.27983950616
 **  OPTIMIZATION CONVERGED  **

                    Orbital Energies (a.u.)
 --------------------------------------------------------------

 Alpha MOs
 -- Occupied --
-18.938 -18.926 -18.921 -18.918 -18.888 -18.882 -18.882 -18.873
-18.871 -18.853 -10.105 -10.093 -10.091 -10.081 -10.066 -10.066
-10.061 -10.060 -10.059 -10.053 -10.052 -10.040 -10.037 -10.036
-10.030 -10.028 -10.021 -10.020 -10.015 -10.014  -1.016  -1.007
 -1.000  -0.992  -0.971  -0.963  -0.941  -0.932  -0.926  -0.916
 -0.763  -0.755  -0.724  -0.717  -0.711  -0.701  -0.689  -0.664
 -0.641  -0.616  -0.594  -0.577  -0.544  -0.538  -0.536  -0.531
 -0.514  -0.503  -0.473  -0.469  -0.461  -0.456  -0.451  -0.434
 -0.434  -0.427  -0.424  -0.413  -0.411  -0.399  -0.397  -0.392
 -0.385  -0.377  -0.368  -0.359  -0.356  -0.354  -0.349  -0.343
 -0.337  -0.331  -0.330  -0.326  -0.324  -0.321  -0.316  -0.314
 -0.304  -0.301  -0.299  -0.297  -0.290  -0.288  -0.276  -0.271
 -0.263  -0.257  -0.252  -0.237  -0.233  -0.230  -0.227  -0.182
 -0.178  -0.162  -0.160  -0.155  -0.149  -0.144  -0.142  -0.136
 -0.134

          Ground-State Mulliken Net Atomic Charges

     Atom                 Charge (a.u.)
  ----------------------------------------
      1 O                    -0.210646
      2 C                     0.215536
      3 C                    -0.079163
      4 C                    -0.079320
      5 C                     0.211912
      6 O                    -0.176178
      7 C                    -0.051901
      8 C                    -0.056975
      9 O                    -0.178246
     10 C                     0.214647
     11 C                    -0.078764
     12 C                    -0.077800
     13 C                     0.203920
     14 O                    -0.220839
     15 O                    -0.171289
     16 O                    -0.157811
     17 O                    -0.196143
     18 C                    -0.132174
     19 C                     0.026448
     20 C                    -0.143266
     21 C                    -0.144862
     22 C                     0.026105
     23 O                    -0.183465
     24 H                     0.083965
     25 H                     0.083130
     26 H                     0.086604
     27 H                     0.076869
     28 H                     0.072314
     29 H                     0.076895
     30 H                     0.073171
     31 H                     0.081391
     32 O                    -0.201592
     33 C                    -0.129753
     34 C                     0.025716
     35 C                    -0.142501
     36 C                    -0.145078
     37 C                     0.026386
     38 O                    -0.184915
     39 H                     0.085095
     40 H                     0.086498
     41 H                     0.093628
     42 H                     0.090076
     43 H                     0.078633
     44 H                     0.073476
     45 H                     0.078676
     46 H                     0.073648
     47 H                     0.083548
     48 H                     0.089595
     49 H                     0.091026
     50 H                     0.089035
     51 H                     0.104651
     52 H                     0.074889
     53 H                     0.099351
     54 H                     0.082255
     55 H                     0.096205
     56 H                     0.087389
  ----------------------------------------
  Sum of atomic charges =    -0.000000

                    Cartesian Multipole Moments
 -----------------------------------------------------------------
    Charge (ESU x 10^10)
                -0.0000
    Dipole Moment (Debye)
         X      -1.5867      Y       0.9611      Z       0.7243
       Tot       1.9915
    Quadrupole Moments (Debye-Ang)
        XX    -134.4508     XY       4.3589     YY    -147.5039
        XZ      -0.0571     YZ       2.3430     ZZ    -167.2755

 Total job time:  70.60s(wall), 3363.26s(cpu)
        *  Thank you very much for using Q-Chem.  Have a nice day.  *
