 Q-Chem 5.0, Q-Chem, Inc., Pleasanton, CA (2017)
 Q-Chem 5.0.1 for Intel X86 EM64T Linux

User input:
--------------------------------------------------------------
$molecule
0  1
O 1.9266957636 0.8746072699 2.2887777705
C 2.6250697625 1.4115070178 1.3992060568
C 3.603453001 0.6906516007 0.4094962599
C 3.2422398448 -0.8173616985 0.105752225
C 1.7348532023 -1.1798370393 0.3645405226
O 1.7052415432 -2.5269620846 0.8455268192
C 0.3721405624 -3.0018000067 1.275107625
C -0.6322108525 -3.3892989078 0.0954021637
O -1.8776213315 -2.6142816657 -0.0707660559
C -1.7196841233 -1.4333212058 -0.8684034646
C -3.1313841672 -0.7505470326 -1.0065028874
C -3.793255205 -0.0088711692 0.2274195084
C -3.0294833646 0.0705646953 1.5904007035
O -3.5733974996 0.320807293 2.6910477989
O 2.6625846575 2.8178877539 1.1619417746
O -1.6209337038 -0.040369362 1.4079421454
O -0.6901011193 -1.1521389754 -1.5153760811
C -0.9373482185 0.2196004045 2.70015353
C -3.0391562608 0.4361305184 -2.0589533238
C -4.4817049237 0.7117450505 -2.6358957462
C -5.1598500377 1.4374661136 -1.4147403928
C -3.969140692 1.4597625223 -0.3757392628
O -2.7684806601 1.6262656329 -1.2195282324
H -3.8221487074 -1.5381424394 -1.3612378457
H -4.7822849063 -0.4489979368 0.4478058673
H -2.2314761494 0.3013757676 -2.8042832438
H -4.4265306074 1.3704997501 -3.5171483583
H -5.0006712181 -0.2173091167 -2.9208129086
H -5.4648432499 2.4644507977 -1.6718520923
H -6.0371187677 0.8942301721 -1.028653429
H -4.0275677486 2.259866776 0.3878709076
O 0.7431425427 -0.4384241164 0.2277696528
C 1.7131441819 3.508177286 2.0672843938
C 3.7032891482 1.3004042622 -1.0564619071
C 5.1363234825 0.9401184248 -1.6110950019
C 4.9881767033 -0.6143680569 -1.811838045
C 3.4584183819 -0.8282004408 -1.4736356597
O 2.8144484853 0.4448767248 -1.8742819088
H 4.6016952325 0.729710336 0.8868165813
H 3.8923120396 -1.5324642682 0.6380251325
H 1.9264060316 3.2819643695 3.1317175689
H 3.4065116586 2.3642187122 -1.1297729524
H 5.3126055558 1.452691438 -2.5704538257
H 5.9433173523 1.208942101 -0.910982864
H 5.2015564395 -0.9143107599 -2.8498967926
H 5.6397744568 -1.1923870197 -1.1367943285
H 2.9784085898 -1.6827778832 -1.9891684375
H 0.665547454 3.2184460361 1.8459759857
H 1.845983677 4.5895386179 1.8806167848
H 0.1350952884 0.3965557331 2.4687791779
H -1.0429065058 -0.6462088921 3.3853182015
H -1.3703832742 1.1073254218 3.2017620757
H -0.0527205816 -3.370353642 -0.8553762187
H -0.980803453 -4.4271623007 0.2715525535
H -0.1199550341 -2.2484555673 1.9271947749
H 0.5844407848 -3.9112433251 1.8711187025
$end

$rem
JOBTYPE                   OPT
METHOD                    B3LYP
DFT_D                     d3_op
BASIS                     STO-3G
GEOM_OPT_MAX_CYCLES       100
GEOM_OPT_TOL_GRADIENT     300
GEOM_OPT_TOL_DISPLACEMENT 1200
GEOM_OPT_TOL_ENERGY       100
SYMMETRY                  False
THRESH                    12
SCF_CONVERGENCE           8
MAX_SUB_FILE_NUM          128
MEM_STATIC                400
MEM_TOTAL                 4000
$end
--------------------------------------------------------------

   16   -1510.2751602009      4.48E-09 Convergence criterion met
 Total energy in the final basis set = -1510.27516020
   15   -1510.2748883236      3.92E-09 Convergence criterion met
 Total energy in the final basis set = -1510.27488832
   14   -1510.2583480331      8.94E-09 Convergence criterion met
 Total energy in the final basis set = -1510.25834803
   15   -1510.2750386997      4.05E-09 Convergence criterion met
 Total energy in the final basis set = -1510.27503870
   14   -1510.2775660291      4.75E-09 Convergence criterion met
 Total energy in the final basis set = -1510.27756603
   13   -1510.2802950594      3.52E-09 Convergence criterion met
 Total energy in the final basis set = -1510.28029506
   13   -1510.2798461888      4.52E-09 Convergence criterion met
 Total energy in the final basis set = -1510.27984619
   14   -1510.2817117375      5.74E-09 Convergence criterion met
   13   -1510.2955447823      6.25E-09 Convergence criterion met
 Total energy in the final basis set = -1510.29554478
   11   -1510.2955455790      4.42E-09 Convergence criterion met
 Total energy in the final basis set = -1510.29554558
   11   -1510.2955548181      2.92E-09 Convergence criterion met
 Total energy in the final basis set = -1510.29555482
   11   -1510.2955577243      7.23E-09 Convergence criterion met
 Total energy in the final basis set = -1510.29555772
   11   -1510.2955601866      4.15E-09 Convergence criterion met
 Total energy in the final basis set = -1510.29556019
   10   -1510.2955611996      7.55E-09 Convergence criterion met
 Total energy in the final basis set = -1510.29556120

             Standard Nuclear Orientation (Angstroms)
    I     Atom           X                Y                Z
 ----------------------------------------------------------------
    1      O      -1.7839889212    -1.3737023862     1.8579700959
    2      C      -2.8182259897    -1.4115536538     1.1492077697
    3      C      -3.1857918754    -0.4597431021    -0.0363532530
    4      C      -2.0966503807     0.6631073661    -0.2614515286
    5      C      -0.9257894789     0.6625034165     0.7783927716
    6      O      -1.2770899446     1.3897384728     1.9602086424
    7      C      -0.1391075458     1.4006800729     2.9160390629
    8      C       0.8538910918     2.6076196350     2.6781864978
    9      O       2.0229091787     2.1879907731     1.8677493810
   10      C       1.7351419010     2.3214873637     0.4748978950
   11      C       2.8570296654     1.6221028002    -0.3820204937
   12      C       3.0084950754     0.0395466513    -0.2490532735
   13      C       2.3595200073    -0.6846490387     0.9979006409
   14      O       2.4256574369    -0.3517298004     2.2015851151
   15      O      -3.8481056905    -2.3849820627     1.3046654939
   16      O       1.7980796139    -1.9270374247     0.5460606108
   17      O       0.7670386715     2.9688482627     0.0161052002
   18      C       1.0628311034    -2.5881137287     1.6471819710
   19      C       2.4205452510     1.7384996542    -1.8998403588
   20      C       3.6099240318     1.3082473660    -2.8452316015
   21      C       3.5431101415    -0.2612282898    -2.7357730086
   22      C       2.4126513765    -0.4335305459    -1.6498397647
   23      O       1.4490548365     0.6264817208    -2.0271191425
   24      H       3.8224021169     2.1197181960    -0.1743839692
   25      H       4.0884440918    -0.1998819229    -0.2086406400
   26      H       1.9328254907     2.7017237118    -2.1447434774
   27      H       3.4295667311     1.6518856018    -3.8760598272
   28      H       4.5741407413     1.7170139246    -2.5026159215
   29      H       3.2310702404    -0.7161815099    -3.6895813902
   30      H       4.4990460856    -0.7114709374    -2.4246226339
   31      H       1.9116603984    -1.4191280280    -1.6056571788
   32      O       0.2174751102     0.2217561092     0.5362997122
   33      C      -3.4947442154    -3.3340522266     2.3873416800
   34      C      -3.0916623957    -1.2394120913    -1.4215341396
   35      C      -3.7078217022    -0.3279482466    -2.5560178247
   36      C      -2.5436962866     0.7080395457    -2.7847389723
   37      C      -1.5106291471     0.2531343360    -1.6844860954
   38      O      -1.6405099355    -1.2255457038    -1.6953965725
   39      H      -4.1952665767    -0.0444544338     0.1353016795
   40      H      -2.5602671507     1.6652908077    -0.2724720296
   41      H      -3.3761621745    -2.8154927111     3.3604517613
   42      H      -3.4809577678    -2.2756673747    -1.3817875728
   43      H      -3.9076850254    -0.9234867831    -3.4610607532
   44      H      -4.6466948532     0.1509743815    -2.2349713372
   45      H      -2.1053237053     0.6032867409    -3.7900204554
   46      H      -2.8688605798     1.7517416490    -2.6488066418
   47      H      -0.4375642595     0.5331121776    -1.8332789887
   48      H      -2.5553431498    -3.8780010877     2.1595663728
   49      H      -4.3335657217    -4.0514975378     2.4478560009
   50      H       0.0394073199    -2.1574175672     1.7444435183
   51      H       1.5977383702    -2.4706497409     2.6107246599
   52      H       0.9930174748    -3.6586870067     1.3799543766
   53      H       0.3171003307     3.4459009821     2.1832346706
   54      H       1.2657927046     2.9432604777     3.6508843040
   55      H       0.4503630561     0.4575211306     2.8554912564
   56      H      -0.5999385927     1.4963256089     3.9198340564
 ----------------------------------------------------------------

    9   -1510.2955614627      7.37E-09 Convergence criterion met
 Total energy in the final basis set = -1510.29556146
 Final energy is   -1510.29556146268
 **  OPTIMIZATION CONVERGED  **

                    Orbital Energies (a.u.)
 --------------------------------------------------------------

 Alpha MOs
 -- Occupied --
-18.948 -18.922 -18.920 -18.908 -18.890 -18.885 -18.873 -18.858
-18.858 -18.848 -10.111 -10.092 -10.090 -10.084 -10.072 -10.060
-10.056 -10.053 -10.051 -10.046 -10.037 -10.035 -10.031 -10.029
-10.025 -10.025 -10.014 -10.012 -10.011 -10.007  -1.023  -1.007
 -0.993  -0.986  -0.963  -0.958  -0.947  -0.928  -0.921  -0.912
 -0.755  -0.752  -0.716  -0.714  -0.702  -0.696  -0.687  -0.667
 -0.640  -0.609  -0.589  -0.574  -0.536  -0.533  -0.528  -0.524
 -0.506  -0.499  -0.478  -0.464  -0.453  -0.450  -0.448  -0.437
 -0.427  -0.424  -0.423  -0.417  -0.410  -0.403  -0.398  -0.394
 -0.384  -0.378  -0.367  -0.356  -0.353  -0.349  -0.345  -0.339
 -0.333  -0.331  -0.325  -0.324  -0.320  -0.316  -0.312  -0.307
 -0.301  -0.299  -0.299  -0.291  -0.282  -0.276  -0.271  -0.267
 -0.262  -0.255  -0.240  -0.234  -0.230  -0.227  -0.216  -0.190
 -0.173  -0.162  -0.157  -0.149  -0.143  -0.142  -0.135  -0.133
 -0.127

          Ground-State Mulliken Net Atomic Charges

     Atom                 Charge (a.u.)
  ----------------------------------------
      1 O                    -0.210989
      2 C                     0.220188
      3 C                    -0.078153
      4 C                    -0.082331
      5 C                     0.226746
      6 O                    -0.175502
      7 C                    -0.056025
      8 C                    -0.052412
      9 O                    -0.164801
     10 C                     0.215392
     11 C                    -0.075417
     12 C                    -0.073895
     13 C                     0.228395
     14 O                    -0.225072
     15 O                    -0.165571
     16 O                    -0.174164
     17 O                    -0.225965
     18 C                    -0.139879
     19 C                     0.025568
     20 C                    -0.145551
     21 C                    -0.143234
     22 C                     0.026691
     23 O                    -0.189462
     24 H                     0.082339
     25 H                     0.079173
     26 H                     0.088476
     27 H                     0.076285
     28 H                     0.072199
     29 H                     0.076565
     30 H                     0.072288
     31 H                     0.101888
     32 O                    -0.223718
     33 C                    -0.127978
     34 C                     0.024729
     35 C                    -0.144496
     36 C                    -0.144696
     37 C                     0.012226
     38 O                    -0.193978
     39 H                     0.086657
     40 H                     0.085551
     41 H                     0.091735
     42 H                     0.081530
     43 H                     0.075781
     44 H                     0.070905
     45 H                     0.076372
     46 H                     0.071759
     47 H                     0.117263
     48 H                     0.091600
     49 H                     0.093521
     50 H                     0.099352
     51 H                     0.086187
     52 H                     0.078668
     53 H                     0.095680
     54 H                     0.087699
     55 H                     0.109600
     56 H                     0.084281
  ----------------------------------------
  Sum of atomic charges =     0.000000

                    Cartesian Multipole Moments
 -----------------------------------------------------------------
    Charge (ESU x 10^10)
                 0.0000
    Dipole Moment (Debye)
         X      -1.3049      Y      -0.5951      Z       0.3130
       Tot       1.4680
    Quadrupole Moments (Debye-Ang)
        XX    -146.2448     XY       5.4483     YY    -153.0957
        XZ      -7.6631     YZ      -4.0358     ZZ    -154.4770

 Total job time:  180.95s(wall), 8640.59s(cpu)
        *  Thank you very much for using Q-Chem.  Have a nice day.  *
