 Q-Chem 5.0, Q-Chem, Inc., Pleasanton, CA (2017)
 Q-Chem 5.0.1 for Intel X86 EM64T Linux

User input:
--------------------------------------------------------------
$molecule
0  1
O -3.94934 -3.66094 2.70899
C -3.26408 -4.56952 2.26188
C -3.36658 -6.02376 2.66595
C -4.72561 -6.51235 3.19336
C -5.87841 -5.53833 3.09118
O -6.71331 -5.69367 4.16087
C -7.75841 -4.71644 4.20608
C -8.84315 -5.05955 3.19034
O -8.92383 -4.02875 2.19343
C -8.07209 -4.16204 1.14658
C -8.24413 -3.08052 0.10669
C -7.73511 -1.69339 0.52508
C -6.82708 -1.66089 1.73798
O -6.58438 -0.6726 2.41544
O -2.19893 -4.23979 1.48364
O -6.41882 -2.6828 2.53534
O -7.85915 -5.29006 0.70446
C -5.82015 -2.42751 3.82225
C -7.38326 -3.27971 -1.1717
C -8.01166 -2.51727 -2.33816
C -7.72649 -1.08777 -1.92861
C -6.86605 -1.32913 -0.68413
O -6.20737 -2.5434 -0.94406
H -9.3133 -3.0893 -0.20573
H -8.572 -0.98827 0.72312
H -7.23987 -4.34166 -1.46563
H -7.4027 -2.75393 -3.2405
H -9.07785 -2.74725 -2.55045
H -7.13631 -0.60134 -2.73663
H -8.62193 -0.47538 -1.6855
H -6.21046 -0.45241 -0.48391
O -5.999 -4.92596 2.08338
C -1.91198 -2.95845 1.06102
C -3.22647 -6.94281 1.42608
C -2.80408 -8.34786 1.8567
C -4.0926 -8.85193 2.46515
C -5.00776 -7.65462 2.1968
O -4.54167 -7.13801 0.97773
H -2.51321 -6.23205 3.34868
H -4.67373 -6.91869 4.22942
H -1.73769 -2.29585 1.93561
H -2.51002 -6.56408 0.66533
H -2.59722 -8.93599 0.93384
H -1.91523 -8.38343 2.52269
H -4.43919 -9.73134 1.87758
H -4.04054 -9.11419 3.54395
H -6.07336 -7.9763 2.21237
H -2.75135 -2.5613 0.45048
H -0.99422 -2.97759 0.43835
H -5.51987 -3.33738 4.37428
H -6.51674 -1.86375 4.48407
H -4.91515 -1.78512 3.72599
H -8.82369 -6.10332 2.80355
H -9.8149 -4.97934 3.727
H -7.64992 -3.67615 4.45883
H -8.23465 -5.00493 5.16896
$end

$opt
CONSTRAINT
tors           1           2           3           4     +26.509
tors           3           4           5           6    -145.484
tors           4           5           6           7    +174.143
tors           5           6           7           8     +76.818
tors           6           7           8           9    -116.340
tors           7           8           9          10     +86.149
tors           8           9          10          11    +177.641
tors           9          10          11          12     +72.213
tors          11          12          13          14    -161.216
ENDCONSTRAINT
$end

$rem
JOBTYPE                   OPT
METHOD                    B3LYP
DFT_D                     d3_op
BASIS                     STO-3G
GEOM_OPT_MAX_CYCLES       100
GEOM_OPT_TOL_GRADIENT     300
GEOM_OPT_TOL_DISPLACEMENT 1200
GEOM_OPT_TOL_ENERGY       100
SYMMETRY                  False
THRESH                    12
SCF_CONVERGENCE           8
MAX_SUB_FILE_NUM          128
MEM_STATIC                400
MEM_TOTAL                 4000
$end
--------------------------------------------------------------

   15   -1510.0361630056      8.28E-09 Convergence criterion met
 Total energy in the final basis set = -1510.03616301
   14   -1510.1255345638      9.87E-09 Convergence criterion met
 Total energy in the final basis set = -1510.12553456
   14   -1510.1867073325      5.49E-09 Convergence criterion met
 Total energy in the final basis set = -1510.18670733
   14   -1510.2188647677      5.03E-09 Convergence criterion met
 Total energy in the final basis set = -1510.21886477
   14   -1510.2396876922      5.69E-09 Convergence criterion met
 Total energy in the final basis set = -1510.23968769
   14   -1510.2524324166      2.76E-09 Convergence criterion met
 Total energy in the final basis set = -1510.25243242
   14   -1510.2607761196      2.32E-09 Convergence criterion met
 Total energy in the final basis set = -1510.26077612
   13   -1510.2667284119      8.39E-09 Convergence criterion met
   11   -1510.2755733062      4.30E-09 Convergence criterion met
 Total energy in the final basis set = -1510.27557331
   11   -1510.2755872984      2.28E-09 Convergence criterion met
 Total energy in the final basis set = -1510.27558730
    9   -1510.2755986332      9.63E-09 Convergence criterion met
 Total energy in the final basis set = -1510.27559863
    9   -1510.2756065323      8.92E-09 Convergence criterion met
 Total energy in the final basis set = -1510.27560653
   10   -1510.2756109933      4.38E-09 Convergence criterion met
 Total energy in the final basis set = -1510.27561099
    9   -1510.2756121739      7.46E-09 Convergence criterion met
 Total energy in the final basis set = -1510.27561217

             Standard Nuclear Orientation (Angstroms)
    I     Atom           X                Y                Z
 ----------------------------------------------------------------
    1      O       1.9266957636     0.8746072699     2.2887777705
    2      C       2.6250697625     1.4115070178     1.3992060568
    3      C       3.6034530010     0.6906516007     0.4094962599
    4      C       3.2422398448    -0.8173616985     0.1057522250
    5      C       1.7348532023    -1.1798370393     0.3645405226
    6      O       1.7052415432    -2.5269620846     0.8455268192
    7      C       0.3721405624    -3.0018000067     1.2751076250
    8      C      -0.6322108525    -3.3892989078     0.0954021637
    9      O      -1.8776213315    -2.6142816657    -0.0707660559
   10      C      -1.7196841233    -1.4333212058    -0.8684034646
   11      C      -3.1313841672    -0.7505470326    -1.0065028874
   12      C      -3.7932552050    -0.0088711692     0.2274195084
   13      C      -3.0294833646     0.0705646953     1.5904007035
   14      O      -3.5733974996     0.3208072930     2.6910477989
   15      O       2.6625846575     2.8178877539     1.1619417746
   16      O      -1.6209337038    -0.0403693620     1.4079421454
   17      O      -0.6901011193    -1.1521389754    -1.5153760811
   18      C      -0.9373482185     0.2196004045     2.7001535300
   19      C      -3.0391562608     0.4361305184    -2.0589533238
   20      C      -4.4817049237     0.7117450505    -2.6358957462
   21      C      -5.1598500377     1.4374661136    -1.4147403928
   22      C      -3.9691406920     1.4597625223    -0.3757392628
   23      O      -2.7684806601     1.6262656329    -1.2195282324
   24      H      -3.8221487074    -1.5381424394    -1.3612378457
   25      H      -4.7822849063    -0.4489979368     0.4478058673
   26      H      -2.2314761494     0.3013757676    -2.8042832438
   27      H      -4.4265306074     1.3704997501    -3.5171483583
   28      H      -5.0006712181    -0.2173091167    -2.9208129086
   29      H      -5.4648432499     2.4644507977    -1.6718520923
   30      H      -6.0371187677     0.8942301721    -1.0286534290
   31      H      -4.0275677486     2.2598667760     0.3878709076
   32      O       0.7431425427    -0.4384241164     0.2277696528
   33      C       1.7131441819     3.5081772860     2.0672843938
   34      C       3.7032891482     1.3004042622    -1.0564619071
   35      C       5.1363234825     0.9401184248    -1.6110950019
   36      C       4.9881767033    -0.6143680569    -1.8118380450
   37      C       3.4584183819    -0.8282004408    -1.4736356597
   38      O       2.8144484853     0.4448767248    -1.8742819088
   39      H       4.6016952325     0.7297103360     0.8868165813
   40      H       3.8923120396    -1.5324642682     0.6380251325
   41      H       1.9264060316     3.2819643695     3.1317175689
   42      H       3.4065116586     2.3642187122    -1.1297729524
   43      H       5.3126055558     1.4526914380    -2.5704538257
   44      H       5.9433173523     1.2089421010    -0.9109828640
   45      H       5.2015564395    -0.9143107599    -2.8498967926
   46      H       5.6397744568    -1.1923870197    -1.1367943285
   47      H       2.9784085898    -1.6827778832    -1.9891684375
   48      H       0.6655474540     3.2184460361     1.8459759857
   49      H       1.8459836770     4.5895386179     1.8806167848
   50      H       0.1350952884     0.3965557331     2.4687791779
   51      H      -1.0429065058    -0.6462088921     3.3853182015
   52      H      -1.3703832742     1.1073254218     3.2017620757
   53      H      -0.0527205816    -3.3703536420    -0.8553762187
   54      H      -0.9808034530    -4.4271623007     0.2715525535
   55      H      -0.1199550341    -2.2484555673     1.9271947749
   56      H       0.5844407848    -3.9112433251     1.8711187025
 ----------------------------------------------------------------

    8   -1510.2756122182      6.91E-09 Convergence criterion met
 Total energy in the final basis set = -1510.27561222
 Final energy is   -1510.27561221818
 **  OPTIMIZATION CONVERGED  **

                    Orbital Energies (a.u.)
 --------------------------------------------------------------

 Alpha MOs
 -- Occupied --
-18.941 -18.924 -18.924 -18.922 -18.884 -18.880 -18.879 -18.871
-18.868 -18.855 -10.107 -10.091 -10.090 -10.085 -10.068 -10.066
-10.065 -10.056 -10.056 -10.052 -10.047 -10.037 -10.035 -10.033
-10.029 -10.027 -10.018 -10.017 -10.014 -10.012  -1.017  -1.006
 -0.997  -0.994  -0.966  -0.962  -0.941  -0.933  -0.922  -0.920
 -0.760  -0.753  -0.722  -0.716  -0.708  -0.699  -0.691  -0.663
 -0.643  -0.617  -0.593  -0.578  -0.542  -0.535  -0.533  -0.529
 -0.512  -0.502  -0.475  -0.468  -0.460  -0.455  -0.449  -0.433
 -0.432  -0.430  -0.423  -0.413  -0.411  -0.404  -0.398  -0.390
 -0.384  -0.378  -0.369  -0.366  -0.358  -0.350  -0.347  -0.342
 -0.333  -0.331  -0.327  -0.325  -0.322  -0.316  -0.314  -0.310
 -0.301  -0.299  -0.297  -0.293  -0.290  -0.286  -0.279  -0.272
 -0.260  -0.255  -0.251  -0.233  -0.232  -0.229  -0.226  -0.182
 -0.169  -0.165  -0.161  -0.158  -0.150  -0.140  -0.137  -0.136
 -0.134

          Ground-State Mulliken Net Atomic Charges

     Atom                 Charge (a.u.)
  ----------------------------------------
      1 O                    -0.218853
      2 C                     0.222271
      3 C                    -0.079058
      4 C                    -0.077932
      5 C                     0.213809
      6 O                    -0.179304
      7 C                    -0.051350
      8 C                    -0.051668
      9 O                    -0.177489
     10 C                     0.224541
     11 C                    -0.078506
     12 C                    -0.078424
     13 C                     0.205450
     14 O                    -0.223888
     15 O                    -0.166087
     16 O                    -0.160865
     17 O                    -0.202153
     18 C                    -0.142991
     19 C                     0.024836
     20 C                    -0.144645
     21 C                    -0.143933
     22 C                     0.025903
     23 O                    -0.187330
     24 H                     0.081433
     25 H                     0.083070
     26 H                     0.091328
     27 H                     0.076738
     28 H                     0.071672
     29 H                     0.076568
     30 H                     0.072858
     31 H                     0.081740
     32 O                    -0.193718
     33 C                    -0.128037
     34 C                     0.025290
     35 C                    -0.142432
     36 C                    -0.145502
     37 C                     0.026100
     38 O                    -0.183914
     39 H                     0.083682
     40 H                     0.085649
     41 H                     0.090035
     42 H                     0.092250
     43 H                     0.078024
     44 H                     0.072233
     45 H                     0.077797
     46 H                     0.072670
     47 H                     0.083877
     48 H                     0.095262
     49 H                     0.092366
     50 H                     0.115335
     51 H                     0.074786
     52 H                     0.083215
     53 H                     0.089541
     54 H                     0.084814
     55 H                     0.094776
     56 H                     0.088160
  ----------------------------------------
  Sum of atomic charges =     0.000000

                    Cartesian Multipole Moments
 -----------------------------------------------------------------
    Charge (ESU x 10^10)
                 0.0000
    Dipole Moment (Debye)
         X       1.6965      Y      -0.8714      Z       0.0455
       Tot       1.9078
    Quadrupole Moments (Debye-Ang)
        XX    -143.1484     XY       1.8400     YY    -148.6373
        XZ       8.7079     YZ       4.0375     ZZ    -162.0042

 Total job time:  71.91s(wall), 3427.81s(cpu)
        *  Thank you very much for using Q-Chem.  Have a nice day.  *
