 Q-Chem 5.0, Q-Chem, Inc., Pleasanton, CA (2017)
 Q-Chem 5.0.1 for Intel X86 EM64T Linux

User input:
--------------------------------------------------------------
$molecule
0  1
O -3.94934 -3.66094 2.70899
C -3.26408 -4.56952 2.26188
C -3.36658 -6.02376 2.66595
C -4.77665 -6.62953 2.7587
C -5.9158 -5.76512 2.26552
O -6.89697 -5.70518 3.21373
C -7.97332 -4.83186 2.8559
C -8.87727 -5.50531 1.82854
O -9.64817 -4.51449 1.13078
C -9.59584 -4.58166 -0.22269
C -10.47 -3.55133 -0.89715
C -9.71585 -2.3565 -1.49876
C -8.21891 -2.53188 -1.65726
O -7.40512 -1.62456 -1.75262
O -2.43736 -4.28031 1.22063
O -7.78334 -3.76192 -2.045
O -9.22316 -5.58285 -0.82638
C -6.47317 -4.08048 -2.33954
C -11.21486 -4.07538 -2.14486
C -12.44396 -3.20828 -2.41679
C -11.78672 -1.93181 -2.89968
C -10.31821 -2.37058 -2.91813
O -10.37581 -3.74345 -3.22113
H -11.23793 -3.22624 -0.15768
H -9.89648 -1.39283 -0.9736
H -11.51217 -5.14381 -2.06399
H -12.98708 -3.6728 -3.27105
H -13.14381 -3.08787 -1.56207
H -12.14714 -1.72046 -3.93095
H -11.94012 -1.0421 -2.25123
H -9.73488 -1.74181 -3.62731
O -5.94993 -5.229 1.16233
C -2.27948 -3.02457 0.67208
C -2.70374 -7.00425 1.6755
C -2.39854 -8.33448 2.36901
C -3.78572 -8.93179 2.45708
C -4.60954 -7.82439 1.79919
O -3.75062 -7.33319 0.79716
H -2.86603 -6.07614 3.6583
H -5.01113 -6.99335 3.78627
H -1.89935 -2.31679 1.43942
H -1.77306 -6.61337 1.21142
H -1.78815 -8.9637 1.68267
H -1.86747 -8.21824 3.33834
H -3.82163 -9.83484 1.80701
H -4.12892 -9.19458 3.48091
H -5.58494 -8.23082 1.45002
H -3.24825 -2.65875 0.26913
H -1.54594 -3.08014 -0.15813
H -6.41363 -5.15328 -2.61496
H -5.82846 -3.90261 -1.45232
H -6.11267 -3.47097 -3.19543
H -8.24861 -6.11317 1.14566
H -9.54268 -6.2264 2.34921
H -7.56035 -3.87576 2.45625
H -8.57688 -4.56142 3.74797
$end

$opt
CONSTRAINT
tors           1           2           3           4     +45.579
tors           3           4           5           6    -129.190
tors           4           5           6           7    +176.125
tors           5           6           7           8     +76.818
tors           6           7           8           9    -159.829
tors           7           8           9          10    +128.187
tors           8           9          10          11    +177.641
tors           9          10          11          12    +104.362
tors          11          12          13          14    -158.475
ENDCONSTRAINT
$end

$rem
JOBTYPE                   OPT
METHOD                    B3LYP
DFT_D                     d3_op
BASIS                     STO-3G
GEOM_OPT_MAX_CYCLES       100
GEOM_OPT_TOL_GRADIENT     300
GEOM_OPT_TOL_DISPLACEMENT 1200
GEOM_OPT_TOL_ENERGY       100
SYMMETRY                  False
THRESH                    12
SCF_CONVERGENCE           8
MAX_SUB_FILE_NUM          128
MEM_STATIC                400
MEM_TOTAL                 4000
$end
--------------------------------------------------------------

   15   -1510.1435891240      9.43E-09 Convergence criterion met
 Total energy in the final basis set = -1510.14358912
   14   -1510.2141319074      4.77E-09 Convergence criterion met
 Total energy in the final basis set = -1510.21413191
   14   -1510.2523550395      5.10E-09 Convergence criterion met
 Total energy in the final basis set = -1510.25235504
   14   -1510.2691294512      4.28E-09 Convergence criterion met
 Total energy in the final basis set = -1510.26912945
   13   -1510.2743239661      8.49E-09 Convergence criterion met
 Total energy in the final basis set = -1510.27432397
   13   -1510.2760393898      3.37E-09 Convergence criterion met
 Total energy in the final basis set = -1510.27603939
   13   -1510.2767208182      5.17E-09 Convergence criterion met
 Total energy in the final basis set = -1510.27672082
   13   -1510.2774156970      2.67E-09 Convergence criterion met
   11   -1510.2824540830      5.24E-09 Convergence criterion met
 Total energy in the final basis set = -1510.28245408
   11   -1510.2824757098      5.83E-09 Convergence criterion met
 Total energy in the final basis set = -1510.28247571
   10   -1510.2824853202      7.39E-09 Convergence criterion met
 Total energy in the final basis set = -1510.28248532
    9   -1510.2824911097      3.79E-09 Convergence criterion met
 Total energy in the final basis set = -1510.28249111
    9   -1510.2824963806      4.14E-09 Convergence criterion met
 Total energy in the final basis set = -1510.28249638
    9   -1510.2824989860      3.42E-09 Convergence criterion met
 Total energy in the final basis set = -1510.28249899

             Standard Nuclear Orientation (Angstroms)
    I     Atom           X                Y                Z
 ----------------------------------------------------------------
    1      O      -2.8215069695    -1.4555483438     1.6057404120
    2      C      -3.5662144608    -1.4367328653     0.6003868774
    3      C      -4.4393206086    -0.2220562268     0.1119577600
    4      C      -3.6460236750     1.1528482711     0.1228759508
    5      C      -2.1296950378     0.9883768295     0.4782810962
    6      O      -1.8148818367     1.9085248328     1.5197866722
    7      C      -0.4147696787     1.7728209494     2.0001613446
    8      C       0.6343711543     2.4168124473     1.0196670456
    9      O       1.9732305160     1.8388853249     1.2882936514
   10      C       2.5736843558     1.3469726816     0.0760863903
   11      C       4.0079648460     0.8108172794     0.4433396860
   12      C       4.2209776273    -0.7582433831     0.5264146945
   13      C       2.9666787547    -1.6842869820     0.6684134875
   14      O       2.9814188810    -2.8533206368     1.1174611392
   15      O      -3.7778570041    -2.5609731888    -0.2546269786
   16      O       1.7884412285    -1.0098023359     0.2485508158
   17      O       2.0640707477     1.4777548112    -1.0565709262
   18      C       0.6001932942    -1.8822344558     0.4043339697
   19      C       4.9645873723     1.1482739593    -0.7815122423
   20      C       6.4715506662     0.9071754961    -0.3675301068
   21      C       6.5746798375    -0.6600370836    -0.4700951591
   22      C       5.0751318398    -1.0293611023    -0.7965029567
   23      O       4.6651620980     0.0453683170    -1.7243287156
   24      H       4.3222850355     1.2988015860     1.3827565686
   25      H       4.8499396912    -0.9858580490     1.4066465611
   26      H       4.7579574019     2.1252607949    -1.2592156260
   27      H       7.1527629809     1.4072258258    -1.0737597234
   28      H       6.6807907076     1.2798729652     0.6479437404
   29      H       7.2321358004    -0.9661104220    -1.2997878436
   30      H       6.9335475048    -1.1305164366     0.4590711839
   31      H       4.9170903937    -2.0255181233    -1.2534376917
   32      O      -1.3068901044     0.2406954344    -0.0946759085
   33      C      -2.9600726328    -3.7086595966     0.2024919109
   34      C      -4.8768291856    -0.3144028139    -1.4101674552
   35      C      -6.0691340288     0.6928331987    -1.6470937619
   36      C      -5.3118608764     2.0720083021    -1.6064940669
   37      C      -3.8198172759     1.5963018686    -1.3962958725
   38      O      -3.7471590413     0.3154680823    -2.1323579192
   39      H      -5.3216796097    -0.1609698828     0.7762630544
   40      H      -4.0919542339     1.8815736114     0.8213979406
   41      H      -3.2199946652    -4.0092229060     1.2380207382
   42      H      -5.0386684985    -1.3490157487    -1.7673789225
   43      H      -6.5287938651     0.5155700159    -2.6323976510
   44      H      -6.8488494198     0.6095377847    -0.8729674736
   45      H      -5.4115872808     2.6185336987    -2.5577851086
   46      H      -5.6564028781     2.7232424987    -0.7874006957
   47      H      -3.0446447615     2.2978371036    -1.7612553908
   48      H      -1.8769219912    -3.4750157651     0.1634045776
   49      H      -3.1854451485    -4.5378561930    -0.4929480923
   50      H      -0.2657212938    -1.2115935875     0.2160585623
   51      H       0.5501839582    -2.3139873364     1.4238931881
   52      H       0.6210627329    -2.7111619325    -0.3316824092
   53      H       0.3693199283     2.1966087714    -0.0385946898
   54      H       0.6781723903     3.5169531557     1.1633729988
   55      H      -0.1569741768     0.6997014711     2.1344257896
   56      H      -0.3952584090     2.2764586300     2.9866735909
 ----------------------------------------------------------------

    9   -1510.2824998229      2.36E-09 Convergence criterion met
 Total energy in the final basis set = -1510.28249982
 Final energy is   -1510.28249982289
 **  OPTIMIZATION CONVERGED  **

                    Orbital Energies (a.u.)
 --------------------------------------------------------------

 Alpha MOs
 -- Occupied --
-18.941 -18.940 -18.928 -18.920 -18.889 -18.884 -18.882 -18.875
-18.866 -18.860 -10.108 -10.103 -10.093 -10.091 -10.074 -10.066
-10.063 -10.062 -10.059 -10.056 -10.055 -10.041 -10.040 -10.037
-10.033 -10.032 -10.022 -10.021 -10.017 -10.016  -1.019  -1.013
 -1.005  -0.998  -0.972  -0.966  -0.944  -0.938  -0.927  -0.924
 -0.765  -0.758  -0.727  -0.720  -0.713  -0.703  -0.694  -0.663
 -0.647  -0.618  -0.597  -0.579  -0.547  -0.539  -0.539  -0.533
 -0.515  -0.506  -0.482  -0.471  -0.466  -0.456  -0.454  -0.442
 -0.435  -0.434  -0.427  -0.414  -0.413  -0.406  -0.398  -0.395
 -0.389  -0.380  -0.375  -0.368  -0.360  -0.360  -0.353  -0.349
 -0.340  -0.332  -0.331  -0.328  -0.326  -0.321  -0.319  -0.312
 -0.307  -0.305  -0.302  -0.297  -0.295  -0.290  -0.286  -0.277
 -0.264  -0.259  -0.252  -0.238  -0.235  -0.232  -0.229  -0.187
 -0.179  -0.168  -0.162  -0.161  -0.154  -0.149  -0.145  -0.140
 -0.139

          Ground-State Mulliken Net Atomic Charges

     Atom                 Charge (a.u.)
  ----------------------------------------
      1 O                    -0.218363
      2 C                     0.212211
      3 C                    -0.078421
      4 C                    -0.079460
      5 C                     0.220878
      6 O                    -0.169138
      7 C                    -0.048997
      8 C                    -0.058357
      9 O                    -0.178938
     10 C                     0.221845
     11 C                    -0.078480
     12 C                    -0.080373
     13 C                     0.206280
     14 O                    -0.220697
     15 O                    -0.167053
     16 O                    -0.167148
     17 O                    -0.208518
     18 C                    -0.144546
     19 C                     0.026395
     20 C                    -0.145712
     21 C                    -0.142278
     22 C                     0.026084
     23 O                    -0.184720
     24 H                     0.084268
     25 H                     0.083772
     26 H                     0.083998
     27 H                     0.077500
     28 H                     0.072735
     29 H                     0.077630
     30 H                     0.073893
     31 H                     0.084692
     32 O                    -0.213060
     33 C                    -0.127476
     34 C                     0.023488
     35 C                    -0.143955
     36 C                    -0.144028
     37 C                     0.026186
     38 O                    -0.185936
     39 H                     0.085029
     40 H                     0.087159
     41 H                     0.089476
     42 H                     0.094312
     43 H                     0.078787
     44 H                     0.073006
     45 H                     0.078893
     46 H                     0.073740
     47 H                     0.084471
     48 H                     0.092879
     49 H                     0.092286
     50 H                     0.119024
     51 H                     0.082479
     52 H                     0.079215
     53 H                     0.105047
     54 H                     0.079914
     55 H                     0.097054
     56 H                     0.091028
  ----------------------------------------
  Sum of atomic charges =     0.000000

                    Cartesian Multipole Moments
 -----------------------------------------------------------------
    Charge (ESU x 10^10)
                 0.0000
    Dipole Moment (Debye)
         X      -1.8714      Y       1.3596      Z       1.9078
       Tot       2.9984
    Quadrupole Moments (Debye-Ang)
        XX    -133.4557     XY       3.2938     YY    -152.7340
        XZ       3.6190     YZ       3.3692     ZZ    -167.6602

 Total job time:  72.44s(wall), 3447.83s(cpu)
        *  Thank you very much for using Q-Chem.  Have a nice day.  *
