 Q-Chem 5.0, Q-Chem, Inc., Pleasanton, CA (2017)
 Q-Chem 5.0.1 for Intel X86 EM64T Linux

User input:
--------------------------------------------------------------
$molecule
0  1
O -2.8215069695 -1.4555483438 1.605740412
C -3.5662144608 -1.4367328653 0.6003868774
C -4.4393206086 -0.2220562268 0.11195776
C -3.646023675 1.1528482711 0.1228759508
C -2.1296950378 0.9883768295 0.4782810962
O -1.8148818367 1.9085248328 1.5197866722
C -0.4147696787 1.7728209494 2.0001613446
C 0.6343711543 2.4168124473 1.0196670456
O 1.973230516 1.8388853249 1.2882936514
C 2.5736843558 1.3469726816 0.0760863903
C 4.007964846 0.8108172794 0.443339686
C 4.2209776273 -0.7582433831 0.5264146945
C 2.9666787547 -1.684286982 0.6684134875
O 2.981418881 -2.8533206368 1.1174611392
O -3.7778570041 -2.5609731888 -0.2546269786
O 1.7884412285 -1.0098023359 0.2485508158
O 2.0640707477 1.4777548112 -1.0565709262
C 0.6001932942 -1.8822344558 0.4043339697
C 4.9645873723 1.1482739593 -0.7815122423
C 6.4715506662 0.9071754961 -0.3675301068
C 6.5746798375 -0.6600370836 -0.4700951591
C 5.0751318398 -1.0293611023 -0.7965029567
O 4.665162098 0.045368317 -1.7243287156
H 4.3222850355 1.298801586 1.3827565686
H 4.8499396912 -0.985858049 1.4066465611
H 4.7579574019 2.1252607949 -1.259215626
H 7.1527629809 1.4072258258 -1.0737597234
H 6.6807907076 1.2798729652 0.6479437404
H 7.2321358004 -0.966110422 -1.2997878436
H 6.9335475048 -1.1305164366 0.4590711839
H 4.9170903937 -2.0255181233 -1.2534376917
O -1.3068901044 0.2406954344 -0.0946759085
C -2.9600726328 -3.7086595966 0.2024919109
C -4.8768291856 -0.3144028139 -1.4101674552
C -6.0691340288 0.6928331987 -1.6470937619
C -5.3118608764 2.0720083021 -1.6064940669
C -3.8198172759 1.5963018686 -1.3962958725
O -3.7471590413 0.3154680823 -2.1323579192
H -5.3216796097 -0.1609698828 0.7762630544
H -4.0919542339 1.8815736114 0.8213979406
H -3.2199946652 -4.009222906 1.2380207382
H -5.0386684985 -1.3490157487 -1.7673789225
H -6.5287938651 0.5155700159 -2.632397651
H -6.8488494198 0.6095377847 -0.8729674736
H -5.4115872808 2.6185336987 -2.5577851086
H -5.6564028781 2.7232424987 -0.7874006957
H -3.0446447615 2.2978371036 -1.7612553908
H -1.8769219912 -3.4750157651 0.1634045776
H -3.1854451485 -4.537856193 -0.4929480923
H -0.2657212938 -1.2115935875 0.2160585623
H 0.5501839582 -2.3139873364 1.4238931881
H 0.6210627329 -2.7111619325 -0.3316824092
H 0.3693199283 2.1966087714 -0.0385946898
H 0.6781723903 3.5169531557 1.1633729988
H -0.1569741768 0.6997014711 2.1344257896
H -0.395258409 2.27645863 2.9866735909
$end

$rem
JOBTYPE                   OPT
METHOD                    B3LYP
DFT_D                     d3_op
BASIS                     STO-3G
GEOM_OPT_MAX_CYCLES       100
GEOM_OPT_TOL_GRADIENT     300
GEOM_OPT_TOL_DISPLACEMENT 1200
GEOM_OPT_TOL_ENERGY       100
SYMMETRY                  False
THRESH                    12
SCF_CONVERGENCE           8
MAX_SUB_FILE_NUM          128
MEM_STATIC                400
MEM_TOTAL                 4000
$end
--------------------------------------------------------------

   16   -1510.2825919856      5.42E-09 Convergence criterion met
 Total energy in the final basis set = -1510.28259199
   14   -1510.2795724514      5.16E-09 Convergence criterion met
 Total energy in the final basis set = -1510.27957245
   14   -1510.2810039957      3.89E-09 Convergence criterion met
 Total energy in the final basis set = -1510.28100400
   14   -1510.2707829056      5.97E-09 Convergence criterion met
 Total energy in the final basis set = -1510.27078291
   14   -1510.2806617922      4.74E-09 Convergence criterion met
 Total energy in the final basis set = -1510.28066179
   14   -1510.2835192074      3.55E-09 Convergence criterion met
 Total energy in the final basis set = -1510.28351921
   13   -1510.2851290915      8.18E-09 Convergence criterion met
 Total energy in the final basis set = -1510.28512909
   13   -1510.2862244680      6.83E-09 Convergence criterion met
   12   -1510.2942346079      7.14E-09 Convergence criterion met
 Total energy in the final basis set = -1510.29423461
   12   -1510.2942299757      3.67E-09 Convergence criterion met
 Total energy in the final basis set = -1510.29422998
   11   -1510.2942495183      5.22E-09 Convergence criterion met
 Total energy in the final basis set = -1510.29424952
    9   -1510.2942491292      8.75E-09 Convergence criterion met
 Total energy in the final basis set = -1510.29424913
    9   -1510.2942460189      6.96E-09 Convergence criterion met
 Total energy in the final basis set = -1510.29424602
    9   -1510.2942447267      5.07E-09 Convergence criterion met
 Total energy in the final basis set = -1510.29424473

             Standard Nuclear Orientation (Angstroms)
    I     Atom           X                Y                Z
 ----------------------------------------------------------------
    1      O      -2.0271984048    -1.3982457148     0.4082803261
    2      C      -3.2743500605    -1.5035200999     0.4705327800
    3      C      -4.3199328219    -0.3397204648     0.4311583837
    4      C      -3.6340847023     1.0819321726     0.3038147117
    5      C      -2.0612941006     1.0334338815     0.3425731198
    6      O      -1.6655555197     1.0176899108     1.7190000008
    7      C      -0.2158745451     0.7440952996     1.8712321515
    8      C       0.7146495283     1.8959460389     1.3381308029
    9      O       2.0970605577     1.3780417854     1.4631773019
   10      C       2.9135506283     1.7675032683     0.3487718473
   11      C       4.2573389731     0.9729168110     0.5028012894
   12      C       4.0263397887    -0.5995288745     0.5289787507
   13      C       2.5294058812    -1.0100414631     0.2906403315
   14      O       1.8000007518    -1.6948381705     1.0443569980
   15      O      -3.9645902503    -2.7467011264     0.5698265816
   16      O       2.1279822459    -0.4886735513    -0.9749548426
   17      O       2.5757989776     2.5800109108    -0.5353407316
   18      C       0.7401871550    -0.8942085784    -1.3136381003
   19      C       5.2122315836     1.1265835113    -0.7513773008
   20      C       6.6595484588     0.6650251240    -0.3211694772
   21      C       6.4647813521    -0.8953620862    -0.2386467707
   22      C       4.9542136961    -1.0418271434    -0.6831224684
   23      O       4.7706147940     0.0487606171    -1.6665146457
   24      H       4.7507931277     1.3072467814     1.4336366551
   25      H       4.3516084656    -1.0428123513     1.4862063172
   26      H       5.1459080836     2.1111548750    -1.2538724063
   27      H       7.3958644129     0.9385030132    -1.0937125221
   28      H       6.9721307604     1.1078519180     0.6378903782
   29      H       7.1270997073    -1.4238129353    -0.9424952199
   30      H       6.6374880434    -1.2917057124     0.7746294015
   31      H       4.6875487256    -2.0177553494    -1.1328428787
   32      O      -1.2939675478     1.1454324277    -0.6423913250
   33      C      -2.9946312287    -3.8683907497     0.5694926634
   34      C      -5.1656614961    -0.3841690424    -0.9156620226
   35      C      -6.3856594842     0.6090780911    -0.7781329365
   36      C      -5.6701308610     2.0001225452    -0.9547839467
   37      C      -4.1669848736     1.5476032418    -1.1154787568
   38      O      -4.2689139363     0.2840982441    -1.8847020264
   39      H      -4.9699260544    -0.4126046408     1.3218541137
   40      H      -3.9766951385     1.7508656809     1.1130534603
   41      H      -2.2826092738    -3.7917229832     1.4163004816
   42      H      -5.4215764428    -1.4071269624    -1.2543887370
   43      H      -7.1200424200     0.4263705385    -1.5784930451
   44      H      -6.8918465574     0.5101229990     0.1954172965
   45      H      -6.0158236111     2.5176367904    -1.8636497738
   46      H      -5.8147521999     2.6673391789    -0.0900962585
   47      H      -3.4998232616     2.2604190095    -1.6375104424
   48      H      -2.4163341183    -3.9035488417    -0.3762967755
   49      H      -3.5965350018    -4.7900466758     0.6709891968
   50      H       0.0245778013    -0.0673092291    -1.0884619057
   51      H       0.4465231553    -1.7926488072    -0.7363850106
   52      H       0.7271155785    -1.1132282540    -2.3975245343
   53      H       0.4775757978     2.1220209986     0.2773538142
   54      H       0.5913922954     2.8190241114     1.9445941823
   55      H       0.0588102958    -0.2084209482     1.3660809225
   56      H      -0.0621916542     0.6155282877     2.9614770411
 ----------------------------------------------------------------

    9   -1510.2942455407      2.03E-09 Convergence criterion met
 Total energy in the final basis set = -1510.29424554
 Final energy is   -1510.29424554066
 **  OPTIMIZATION CONVERGED  **

                    Orbital Energies (a.u.)
 --------------------------------------------------------------

 Alpha MOs
 -- Occupied --
-18.948 -18.929 -18.923 -18.918 -18.891 -18.890 -18.881 -18.873
-18.872 -18.859 -10.111 -10.103 -10.094 -10.087 -10.072 -10.064
-10.061 -10.060 -10.059 -10.054 -10.052 -10.045 -10.037 -10.031
-10.029 -10.026 -10.023 -10.021 -10.015 -10.014  -1.025  -1.008
 -1.004  -0.994  -0.973  -0.962  -0.948  -0.936  -0.931  -0.920
 -0.766  -0.757  -0.727  -0.720  -0.711  -0.700  -0.691  -0.669
 -0.639  -0.613  -0.594  -0.579  -0.547  -0.540  -0.538  -0.531
 -0.515  -0.503  -0.483  -0.468  -0.462  -0.459  -0.457  -0.437
 -0.434  -0.429  -0.424  -0.418  -0.413  -0.400  -0.398  -0.394
 -0.383  -0.381  -0.371  -0.369  -0.356  -0.352  -0.350  -0.347
 -0.340  -0.338  -0.335  -0.330  -0.324  -0.324  -0.316  -0.316
 -0.309  -0.304  -0.302  -0.299  -0.291  -0.279  -0.278  -0.275
 -0.271  -0.262  -0.252  -0.240  -0.237  -0.231  -0.227  -0.190
 -0.178  -0.169  -0.165  -0.156  -0.151  -0.148  -0.146  -0.139
 -0.136

          Ground-State Mulliken Net Atomic Charges

     Atom                 Charge (a.u.)
  ----------------------------------------
      1 O                    -0.205897
      2 C                     0.216788
      3 C                    -0.077767
      4 C                    -0.081494
      5 C                     0.224904
      6 O                    -0.174895
      7 C                    -0.052919
      8 C                    -0.058443
      9 O                    -0.180024
     10 C                     0.216305
     11 C                    -0.077588
     12 C                    -0.077569
     13 C                     0.208483
     14 O                    -0.223897
     15 O                    -0.167094
     16 O                    -0.169959
     17 O                    -0.206010
     18 C                    -0.150211
     19 C                     0.024789
     20 C                    -0.143735
     21 C                    -0.144425
     22 C                     0.026045
     23 O                    -0.184153
     24 H                     0.083455
     25 H                     0.082963
     26 H                     0.089112
     27 H                     0.077192
     28 H                     0.072012
     29 H                     0.076879
     30 H                     0.072589
     31 H                     0.081991
     32 O                    -0.219474
     33 C                    -0.128099
     34 C                     0.024920
     35 C                    -0.143875
     36 C                    -0.143797
     37 C                     0.024921
     38 O                    -0.188907
     39 H                     0.088233
     40 H                     0.085496
     41 H                     0.093984
     42 H                     0.086476
     43 H                     0.078971
     44 H                     0.073978
     45 H                     0.079061
     46 H                     0.073813
     47 H                     0.090005
     48 H                     0.092486
     49 H                     0.093217
     50 H                     0.109469
     51 H                     0.089360
     52 H                     0.081801
     53 H                     0.107907
     54 H                     0.079348
     55 H                     0.105148
     56 H                     0.088132
  ----------------------------------------
  Sum of atomic charges =     0.000000

                    Cartesian Multipole Moments
 -----------------------------------------------------------------
    Charge (ESU x 10^10)
                 0.0000
    Dipole Moment (Debye)
         X      -1.9505      Y      -0.9847      Z       2.5736
       Tot       3.3760
    Quadrupole Moments (Debye-Ang)
        XX    -133.3628     XY      -1.7244     YY    -152.4375
        XZ       3.0488     YZ       4.9337     ZZ    -165.9249

 Total job time:  90.06s(wall), 4294.59s(cpu)
        *  Thank you very much for using Q-Chem.  Have a nice day.  *
