 Q-Chem 5.0, Q-Chem, Inc., Pleasanton, CA (2017)
 Q-Chem 5.0.1 for Intel X86 EM64T Linux

User input:
--------------------------------------------------------------
$molecule
0  1
O -2.1698158876 -0.8705089767 2.1387681095
C -2.8452988583 -1.219778882 1.1453264335
C -3.6882209018 -0.2740778618 0.2099045769
C -3.1463288745 1.2159109785 0.1687413718
C -1.7187806299 1.3711751207 0.7919078397
O -1.6598425441 2.5814719238 1.5649454035
C -0.3121557725 2.6602434022 2.1781557926
C 0.8015129448 3.1070876595 1.1518477569
O 1.9052007146 2.126465651 1.2755743534
C 2.2021713454 1.5293544963 0.0009165326
C 3.3773598184 0.5281544341 0.2522093879
C 2.9640354228 -0.9741110337 0.5751785082
C 1.50010307 -1.4341146438 0.2277089638
O 0.8666939204 -2.3226316388 0.8498745883
O -2.8958172025 -2.5525765284 0.6428715683
O 1.1150316035 -0.863214148 -1.0100811605
O 1.6465767558 1.8535362765 -1.0695499237
C -0.1393700651 -1.4634917638 -1.529871701
C 4.3393994651 0.326683612 -0.997122127
C 5.7525571013 -0.0942444921 -0.4335088449
C 5.4419506566 -1.5526703127 0.0704789042
C 3.9487110275 -1.7399931129 -0.4181274905
O 3.8631996103 -0.9166348152 -1.6442870312
H 3.9433466071 0.9300133341 1.111198811
H 3.1579202128 -1.2276144214 1.6321563671
H 4.3369735067 1.1640700588 -1.7213844763
H 6.5013621699 -0.0990536448 -1.2419520581
H 6.1021954161 0.5717448125 0.3714698433
H 6.1010130486 -2.2972991052 -0.4031181495
H 5.5293581836 -1.650247672 1.1645220471
H 3.6545766439 -2.7860514909 -0.6320838078
O -0.7179315902 0.6543187228 0.5718668133
C -1.9312219041 -3.4026424783 1.3886317941
C -3.6787154261 -0.6602904575 -1.3285215801
C -4.9351815823 0.0098445046 -2.0045596008
C -4.5038366999 1.5249415423 -2.0097130994
C -3.0481971192 1.4375275548 -1.4034683607
O -2.5532091378 0.1270787606 -1.8873136863
H -4.7286965468 -0.2786834736 0.5859057782
H -3.8367533535 1.9291028477 0.6505433352
H -2.1789745208 -3.4435516677 2.4682184344
H -3.5342283911 -1.7402874783 -1.5228507227
H -5.0696031752 -0.3731673059 -3.0288428465
H -5.8609779598 -0.169668435 -1.4349884975
H -4.4710749789 1.9338506997 -3.032013632
H -5.1658835522 2.1568524235 -1.3963006356
H -2.3569290467 2.2460017519 -1.7116047454
H -0.8886719907 -3.0222308615 1.2590214721
H -2.0252477379 -4.4128832843 0.9503670559
H 0.0693811778 -1.8034635 -2.5627301525
H -0.9594924825 -0.7041526061 -1.5442476144
H -0.4342481861 -2.3263675215 -0.9040235881
H 0.4264879556 3.0987761612 0.1047082555
H 1.1916416677 4.1165094537 1.3977644577
H -0.0133929809 1.6761482399 2.5982661366
H -0.4085844466 3.3985918267 2.9985490404
$end

$rem
JOBTYPE                   OPT
METHOD                    B3LYP
DFT_D                     d3_op
BASIS                     STO-3G
GEOM_OPT_MAX_CYCLES       100
GEOM_OPT_TOL_GRADIENT     300
GEOM_OPT_TOL_DISPLACEMENT 1200
GEOM_OPT_TOL_ENERGY       100
SYMMETRY                  False
THRESH                    12
SCF_CONVERGENCE           8
MAX_SUB_FILE_NUM          128
MEM_STATIC                400
MEM_TOTAL                 4000
$end
--------------------------------------------------------------

   16   -1510.2899151651      6.14E-09 Convergence criterion met
 Total energy in the final basis set = -1510.28991517
   15   -1510.1397072284      9.30E-09 Convergence criterion met
 Total energy in the final basis set = -1510.13970723
   15   -1510.2843506734      6.39E-09 Convergence criterion met
 Total energy in the final basis set = -1510.28435067
   14   -1510.2810889085      9.65E-09 Convergence criterion met
 Total energy in the final basis set = -1510.28108891
   14   -1510.2778132144      4.27E-09 Convergence criterion met
 Total energy in the final basis set = -1510.27781321
   14   -1510.2833511014      6.58E-09 Convergence criterion met
 Total energy in the final basis set = -1510.28335110
   14   -1510.2736381115      4.09E-09 Convergence criterion met
 Total energy in the final basis set = -1510.27363811
   14   -1510.2871487440      6.66E-09 Convergence criterion met
   10   -1510.2954249384      7.48E-09 Convergence criterion met
 Total energy in the final basis set = -1510.29542494
   10   -1510.2954282399      5.04E-09 Convergence criterion met
 Total energy in the final basis set = -1510.29542824
    9   -1510.2954313749      7.80E-09 Convergence criterion met
 Total energy in the final basis set = -1510.29543137
    9   -1510.2954360317      4.07E-09 Convergence criterion met
 Total energy in the final basis set = -1510.29543603
    9   -1510.2954338417      2.61E-09 Convergence criterion met
 Total energy in the final basis set = -1510.29543384
    9   -1510.2954379268      3.42E-09 Convergence criterion met
 Total energy in the final basis set = -1510.29543793

             Standard Nuclear Orientation (Angstroms)
    I     Atom           X                Y                Z
 ----------------------------------------------------------------
    1      O       2.9994790920     1.0805420701     2.6756156421
    2      C       3.0920957406     1.2845228890     1.4436044993
    3      C       3.9350045192     0.4138749933     0.4373678461
    4      C       3.2270571547    -0.9716238914     0.1016501170
    5      C       1.8264453410    -1.1239261107     0.7724671808
    6      O       1.7548841596    -2.4003230567     1.4136964773
    7      C       0.4246407011    -2.5824084349     2.0448202083
    8      C      -0.6471833199    -3.1100446644     1.0083036652
    9      O      -1.9193457679    -2.3670460396     1.1571399214
   10      C      -2.0839342494    -1.4426450436     0.0649446955
   11      C      -3.4392186003    -0.6925543175     0.2795370095
   12      C      -3.3128482723     0.8896622280     0.4057963640
   13      C      -1.8381662319     1.4178582844     0.3076040835
   14      O      -1.1291649948     1.7560968945     1.2868715042
   15      O       2.4492552332     2.3425128789     0.7431174330
   16      O      -1.4500310543     1.4478967041    -1.0535368290
   17      O      -1.2729529216    -1.3388347755    -0.8806467923
   18      C      -0.0061842878     1.7658993487    -1.1925387606
   19      C      -4.3896063101    -0.8105306084    -0.9936999520
   20      C      -5.8562436085    -0.4276804675    -0.5461781000
   21      C      -5.7327911622     1.1359161834    -0.4139202912
   22      C      -4.2191853649     1.3572975258    -0.8113582158
   23      O      -3.9767340060     0.3250967488    -1.8441583820
   24      H      -3.9140803075    -1.1205338592     1.1797831013
   25      H      -3.7218688813     1.2268726647     1.3744994500
   26      H      -4.2978880454    -1.7638268133    -1.5496138903
   27      H      -6.5813254023    -0.7119213498    -1.3254726754
   28      H      -6.1433146399    -0.9158162201     0.3986860394
   29      H      -6.3974063240     1.6548839353    -1.1226955654
   30      H      -5.9505386300     1.4959612858     0.6041333721
   31      H      -3.9746100848     2.3623032084    -1.2051901228
   32      O       0.8878751362    -0.2932593860     0.7760814381
   33      C       1.5086081871     3.0655986807     1.6383768614
   34      C       4.0651853662     1.0398182583    -1.0127030560
   35      C       5.2188411432     0.2819512613    -1.7813210833
   36      C       4.5179305621    -1.0865188019    -2.1164828358
   37      C       3.0902933233    -0.8591563449    -1.4812304202
   38      O       2.8352026480     0.5805190303    -1.7002038728
   39      H       4.9245594273     0.2322667518     0.8940424511
   40      H       3.8484741807    -1.8339365667     0.3992407911
   41      H       1.8603819574     3.0178232613     2.6871017162
   42      H       4.1262834845     2.1444058013    -1.0308908818
   43      H       5.4919650790     0.8293225485    -2.6974970032
   44      H       6.1218314977     0.1590688872    -1.1620343090
   45      H       4.4323689394    -1.2416474197    -3.2038200825
   46      H       5.0367865817    -1.9527175693    -1.6754951670
   47      H       2.2736930082    -1.4678223309    -1.9163900880
   48      H       0.4938880389     2.6023098501     1.5525608336
   49      H       1.4830562834     4.1147000767     1.2904258025
   50      H       0.2450471052     1.5641870316    -2.2491444962
   51      H       0.6033036122     1.1162865290    -0.5239855449
   52      H       0.1918523498     2.8320177941    -0.9641231062
   53      H      -0.2695504741    -2.9552282814    -0.0269883249
   54      H      -0.8654508703    -4.1835411836     1.1766852515
   55      H       0.0642777068    -1.6182895681     2.4649822675
   56      H       0.5781422931    -3.3125919663     2.8630502896
 ----------------------------------------------------------------

    9   -1510.2954382157      2.01E-09 Convergence criterion met
 Total energy in the final basis set = -1510.29543822
 Final energy is   -1510.29543821566
 **  OPTIMIZATION CONVERGED  **

                    Orbital Energies (a.u.)
 --------------------------------------------------------------

 Alpha MOs
 -- Occupied --
-18.942 -18.932 -18.925 -18.920 -18.887 -18.887 -18.884 -18.879
-18.867 -18.857 -10.106 -10.099 -10.093 -10.088 -10.073 -10.068
-10.061 -10.059 -10.057 -10.056 -10.039 -10.037 -10.033 -10.033
-10.029 -10.027 -10.020 -10.019 -10.018 -10.018  -1.020  -1.011
 -0.999  -0.996  -0.969  -0.968  -0.943  -0.935  -0.925  -0.921
 -0.762  -0.760  -0.726  -0.720  -0.711  -0.704  -0.695  -0.643
 -0.639  -0.618  -0.593  -0.579  -0.545  -0.543  -0.536  -0.535
 -0.510  -0.507  -0.479  -0.473  -0.461  -0.458  -0.446  -0.441
 -0.432  -0.431  -0.427  -0.414  -0.404  -0.400  -0.397  -0.392
 -0.387  -0.377  -0.367  -0.359  -0.357  -0.356  -0.349  -0.343
 -0.337  -0.334  -0.330  -0.329  -0.324  -0.322  -0.319  -0.308
 -0.306  -0.303  -0.301  -0.299  -0.295  -0.279  -0.277  -0.273
 -0.272  -0.263  -0.246  -0.238  -0.237  -0.232  -0.230  -0.189
 -0.170  -0.168  -0.162  -0.159  -0.152  -0.145  -0.142  -0.139
 -0.137

          Ground-State Mulliken Net Atomic Charges

     Atom                 Charge (a.u.)
  ----------------------------------------
      1 O                    -0.223019
      2 C                     0.206947
      3 C                    -0.079248
      4 C                    -0.079792
      5 C                     0.214466
      6 O                    -0.168043
      7 C                    -0.053231
      8 C                    -0.058329
      9 O                    -0.173673
     10 C                     0.208840
     11 C                    -0.078437
     12 C                    -0.078305
     13 C                     0.214600
     14 O                    -0.216741
     15 O                    -0.171178
     16 O                    -0.160831
     17 O                    -0.204386
     18 C                    -0.137921
     19 C                     0.026881
     20 C                    -0.143849
     21 C                    -0.144316
     22 C                     0.027327
     23 O                    -0.182129
     24 H                     0.086616
     25 H                     0.083500
     26 H                     0.082757
     27 H                     0.077738
     28 H                     0.073444
     29 H                     0.077648
     30 H                     0.073412
     31 H                     0.086294
     32 O                    -0.208961
     33 C                    -0.151280
     34 C                     0.025374
     35 C                    -0.144300
     36 C                    -0.143664
     37 C                     0.025486
     38 O                    -0.186839
     39 H                     0.083411
     40 H                     0.087513
     41 H                     0.088212
     42 H                     0.090700
     43 H                     0.077747
     44 H                     0.073310
     45 H                     0.078479
     46 H                     0.073793
     47 H                     0.085471
     48 H                     0.116962
     49 H                     0.075799
     50 H                     0.090274
     51 H                     0.118388
     52 H                     0.077821
     53 H                     0.100346
     54 H                     0.085558
     55 H                     0.102798
     56 H                     0.090562
  ----------------------------------------
  Sum of atomic charges =    -0.000000

                    Cartesian Multipole Moments
 -----------------------------------------------------------------
    Charge (ESU x 10^10)
                 0.0000
    Dipole Moment (Debye)
         X      -0.2245      Y      -1.7871      Z       0.0650
       Tot       1.8023
    Quadrupole Moments (Debye-Ang)
        XX    -138.6295     XY      -1.7185     YY    -150.3785
        XZ      -9.5093     YZ      -1.6134     ZZ    -168.8579

 Total job time:  252.42s(wall), 12056.55s(cpu)
        *  Thank you very much for using Q-Chem.  Have a nice day.  *
