 Q-Chem 5.0, Q-Chem, Inc., Pleasanton, CA (2017)
 Q-Chem 5.0.1 for Intel X86 EM64T Linux

User input:
--------------------------------------------------------------
$molecule
0  1
O -3.94934 -3.66094 2.70899
C -3.26408 -4.56952 2.26188
C -3.36658 -6.02376 2.66595
C -4.72561 -6.51235 3.19336
C -5.87841 -5.53833 3.09118
O -6.64075 -5.60131 4.22268
C -7.72703 -4.66896 4.22243
C -8.85177 -5.17261 3.32386
O -9.25413 -4.13539 2.41547
C -9.20338 -4.46048 1.09984
C -9.64561 -3.33299 0.1977
C -8.51519 -2.41972 -0.29865
C -7.10841 -2.95649 -0.1268
O -6.10578 -2.27691 0.03894
O -2.20274 -4.24254 1.47729
O -6.91529 -4.239 -0.54564
O -9.09708 -5.61044 0.68785
C -5.69554 -4.76765 -0.92122
C -10.2341 -3.79872 -1.15657
C -11.14084 -2.70818 -1.72756
C -10.11442 -1.66444 -2.1169
C -8.82121 -2.42783 -1.80969
O -9.15193 -3.77332 -2.05066
H -10.4575 -2.78468 0.72823
H -8.54509 -1.39414 0.13065
H -10.79292 -4.75767 -1.08996
H -11.59652 -3.12111 -2.65632
H -11.94949 -2.35068 -1.05446
H -10.21037 -1.46784 -3.20781
H -10.16719 -0.70996 -1.5496
H -7.97631 -2.02126 -2.4091
O -6.20292 -4.95159 2.06908
C -1.92007 -2.96427 1.04332
C -3.23212 -6.9486 1.42881
C -2.80228 -8.34996 1.86375
C -4.08383 -8.85388 2.48849
C -5.00797 -7.66461 2.21337
O -4.54929 -7.15505 0.98939
H -2.51115 -6.23365 3.34576
H -4.66075 -6.89732 4.23698
H -1.74426 -2.294 1.91168
H -2.52276 -6.57078 0.66102
H -2.60502 -8.94123 0.94075
H -1.90578 -8.38298 2.5195
H -4.42837 -9.74412 1.91635
H -4.02232 -9.09957 3.57072
H -6.07222 -7.98987 2.23765
H -2.76207 -2.57472 0.43158
H -1.00426 -2.9867 0.41789
H -5.8287 -5.83574 -1.18838
H -4.95675 -4.6868 -0.09908
H -5.30712 -4.22432 -1.80863
H -8.55028 -6.13058 2.84426
H -9.72427 -5.44052 3.95808
H -7.37999 -3.64492 3.94967
H -8.12031 -4.58959 5.25864
$end

$opt
CONSTRAINT
tors           1           2           3           4     +26.509
tors           3           4           5           6    -139.562
tors           4           5           6           7    +177.796
tors           5           6           7           8     +76.818
tors           6           7           8           9    -129.856
tors           7           8           9          10    +124.159
tors           8           9          10          11    +179.655
tors           9          10          11          12     +92.355
tors          11          12          13          14    -150.420
ENDCONSTRAINT
$end

$rem
JOBTYPE                   OPT
METHOD                    B3LYP
DFT_D                     d3_op
BASIS                     STO-3G
GEOM_OPT_MAX_CYCLES       100
GEOM_OPT_TOL_GRADIENT     300
GEOM_OPT_TOL_DISPLACEMENT 1200
GEOM_OPT_TOL_ENERGY       100
SYMMETRY                  False
THRESH                    12
SCF_CONVERGENCE           8
MAX_SUB_FILE_NUM          128
MEM_STATIC                400
MEM_TOTAL                 4000
$end
--------------------------------------------------------------

   16   -1510.1475633488      1.77E-09 Convergence criterion met
 Total energy in the final basis set = -1510.14756335
   14   -1510.2182638214      7.11E-09 Convergence criterion met
 Total energy in the final basis set = -1510.21826382
   14   -1510.2570806289      3.89E-09 Convergence criterion met
 Total energy in the final basis set = -1510.25708063
   14   -1510.2682977862      7.72E-09 Convergence criterion met
 Total energy in the final basis set = -1510.26829779
   15   -1510.2781193795      2.91E-09 Convergence criterion met
 Total energy in the final basis set = -1510.27811938
   13   -1510.2827706043      8.31E-09 Convergence criterion met
 Total energy in the final basis set = -1510.28277060
   14   -1510.2837305346      5.43E-09 Convergence criterion met
 Total energy in the final basis set = -1510.28373053
   13   -1510.2852605314      4.65E-09 Convergence criterion met
   12   -1510.2895830497      9.61E-09 Convergence criterion met
 Total energy in the final basis set = -1510.28958305
   12   -1510.2898442983      3.45E-09 Convergence criterion met
 Total energy in the final basis set = -1510.28984430
   12   -1510.2899169284      5.04E-09 Convergence criterion met
 Total energy in the final basis set = -1510.28991693
   11   -1510.2899754291      8.30E-09 Convergence criterion met
 Total energy in the final basis set = -1510.28997543
   11   -1510.2899991573      6.35E-09 Convergence criterion met
 Total energy in the final basis set = -1510.28999916
    9   -1510.2900050695      9.90E-09 Convergence criterion met
 Total energy in the final basis set = -1510.29000507

             Standard Nuclear Orientation (Angstroms)
    I     Atom           X                Y                Z
 ----------------------------------------------------------------
    1      O      -2.1698158876    -0.8705089767     2.1387681095
    2      C      -2.8452988583    -1.2197788820     1.1453264335
    3      C      -3.6882209018    -0.2740778618     0.2099045769
    4      C      -3.1463288745     1.2159109785     0.1687413718
    5      C      -1.7187806299     1.3711751207     0.7919078397
    6      O      -1.6598425441     2.5814719238     1.5649454035
    7      C      -0.3121557725     2.6602434022     2.1781557926
    8      C       0.8015129448     3.1070876595     1.1518477569
    9      O       1.9052007146     2.1264656510     1.2755743534
   10      C       2.2021713454     1.5293544963     0.0009165326
   11      C       3.3773598184     0.5281544341     0.2522093879
   12      C       2.9640354228    -0.9741110337     0.5751785082
   13      C       1.5001030700    -1.4341146438     0.2277089638
   14      O       0.8666939204    -2.3226316388     0.8498745883
   15      O      -2.8958172025    -2.5525765284     0.6428715683
   16      O       1.1150316035    -0.8632141480    -1.0100811605
   17      O       1.6465767558     1.8535362765    -1.0695499237
   18      C      -0.1393700651    -1.4634917638    -1.5298717010
   19      C       4.3393994651     0.3266836120    -0.9971221270
   20      C       5.7525571013    -0.0942444921    -0.4335088449
   21      C       5.4419506566    -1.5526703127     0.0704789042
   22      C       3.9487110275    -1.7399931129    -0.4181274905
   23      O       3.8631996103    -0.9166348152    -1.6442870312
   24      H       3.9433466071     0.9300133341     1.1111988110
   25      H       3.1579202128    -1.2276144214     1.6321563671
   26      H       4.3369735067     1.1640700588    -1.7213844763
   27      H       6.5013621699    -0.0990536448    -1.2419520581
   28      H       6.1021954161     0.5717448125     0.3714698433
   29      H       6.1010130486    -2.2972991052    -0.4031181495
   30      H       5.5293581836    -1.6502476720     1.1645220471
   31      H       3.6545766439    -2.7860514909    -0.6320838078
   32      O      -0.7179315902     0.6543187228     0.5718668133
   33      C      -1.9312219041    -3.4026424783     1.3886317941
   34      C      -3.6787154261    -0.6602904575    -1.3285215801
   35      C      -4.9351815823     0.0098445046    -2.0045596008
   36      C      -4.5038366999     1.5249415423    -2.0097130994
   37      C      -3.0481971192     1.4375275548    -1.4034683607
   38      O      -2.5532091378     0.1270787606    -1.8873136863
   39      H      -4.7286965468    -0.2786834736     0.5859057782
   40      H      -3.8367533535     1.9291028477     0.6505433352
   41      H      -2.1789745208    -3.4435516677     2.4682184344
   42      H      -3.5342283911    -1.7402874783    -1.5228507227
   43      H      -5.0696031752    -0.3731673059    -3.0288428465
   44      H      -5.8609779598    -0.1696684350    -1.4349884975
   45      H      -4.4710749789     1.9338506997    -3.0320136320
   46      H      -5.1658835522     2.1568524235    -1.3963006356
   47      H      -2.3569290467     2.2460017519    -1.7116047454
   48      H      -0.8886719907    -3.0222308615     1.2590214721
   49      H      -2.0252477379    -4.4128832843     0.9503670559
   50      H       0.0693811778    -1.8034635000    -2.5627301525
   51      H      -0.9594924825    -0.7041526061    -1.5442476144
   52      H      -0.4342481861    -2.3263675215    -0.9040235881
   53      H       0.4264879556     3.0987761612     0.1047082555
   54      H       1.1916416677     4.1165094537     1.3977644577
   55      H      -0.0133929809     1.6761482399     2.5982661366
   56      H      -0.4085844466     3.3985918267     2.9985490404
 ----------------------------------------------------------------

    9   -1510.2900056888      8.20E-09 Convergence criterion met
 Total energy in the final basis set = -1510.29000569
 Final energy is   -1510.29000568879
 **  OPTIMIZATION CONVERGED  **

                    Orbital Energies (a.u.)
 --------------------------------------------------------------

 Alpha MOs
 -- Occupied --
-18.930 -18.926 -18.921 -18.920 -18.904 -18.883 -18.871 -18.868
-18.868 -18.857 -10.095 -10.094 -10.092 -10.088 -10.068 -10.066
-10.064 -10.061 -10.055 -10.053 -10.040 -10.040 -10.038 -10.031
-10.030 -10.026 -10.024 -10.021 -10.016 -10.015  -1.012  -1.004
 -1.000  -0.993  -0.981  -0.964  -0.934  -0.928  -0.925  -0.918
 -0.767  -0.756  -0.727  -0.718  -0.712  -0.703  -0.691  -0.649
 -0.637  -0.614  -0.592  -0.576  -0.549  -0.542  -0.538  -0.532
 -0.511  -0.504  -0.476  -0.466  -0.462  -0.453  -0.450  -0.440
 -0.434  -0.427  -0.426  -0.412  -0.407  -0.397  -0.392  -0.388
 -0.383  -0.373  -0.368  -0.359  -0.358  -0.356  -0.346  -0.340
 -0.337  -0.336  -0.332  -0.326  -0.324  -0.322  -0.318  -0.314
 -0.306  -0.301  -0.300  -0.296  -0.289  -0.284  -0.276  -0.273
 -0.264  -0.256  -0.245  -0.241  -0.240  -0.228  -0.225  -0.181
 -0.168  -0.165  -0.161  -0.151  -0.149  -0.147  -0.142  -0.140
 -0.136

          Ground-State Mulliken Net Atomic Charges

     Atom                 Charge (a.u.)
  ----------------------------------------
      1 O                    -0.212276
      2 C                     0.210832
      3 C                    -0.079583
      4 C                    -0.080207
      5 C                     0.212400
      6 O                    -0.172393
      7 C                    -0.051227
      8 C                    -0.056982
      9 O                    -0.176238
     10 C                     0.217681
     11 C                    -0.078647
     12 C                    -0.075436
     13 C                     0.217930
     14 O                    -0.228725
     15 O                    -0.174883
     16 O                    -0.157939
     17 O                    -0.204688
     18 C                    -0.148711
     19 C                     0.026285
     20 C                    -0.142777
     21 C                    -0.144975
     22 C                     0.025418
     23 O                    -0.184426
     24 H                     0.084445
     25 H                     0.084194
     26 H                     0.086259
     27 H                     0.077002
     28 H                     0.072501
     29 H                     0.077154
     30 H                     0.073462
     31 H                     0.081917
     32 O                    -0.212691
     33 C                    -0.143220
     34 C                     0.025152
     35 C                    -0.142469
     36 C                    -0.143726
     37 C                     0.027829
     38 O                    -0.184596
     39 H                     0.083959
     40 H                     0.087463
     41 H                     0.082897
     42 H                     0.096206
     43 H                     0.079931
     44 H                     0.075289
     45 H                     0.080465
     46 H                     0.075771
     47 H                     0.088101
     48 H                     0.116379
     49 H                     0.082248
     50 H                     0.076986
     51 H                     0.115131
     52 H                     0.084308
     53 H                     0.101807
     54 H                     0.081113
     55 H                     0.102059
     56 H                     0.086241
  ----------------------------------------
  Sum of atomic charges =    -0.000000

                    Cartesian Multipole Moments
 -----------------------------------------------------------------
    Charge (ESU x 10^10)
                -0.0000
    Dipole Moment (Debye)
         X      -1.1481      Y       1.1617      Z       0.7170
       Tot       1.7838
    Quadrupole Moments (Debye-Ang)
        XX    -136.6036     XY      -1.4514     YY    -152.3315
        XZ       8.4114     YZ       1.9193     ZZ    -164.7023

 Total job time:  72.17s(wall), 3439.66s(cpu)
        *  Thank you very much for using Q-Chem.  Have a nice day.  *
