 Q-Chem 5.0, Q-Chem, Inc., Pleasanton, CA (2017)
 Q-Chem 5.0.1 for Intel X86 EM64T Linux

User input:
--------------------------------------------------------------
$molecule
0  1
O -3.94934 -3.66094 2.70899
C -3.26408 -4.56952 2.26188
C -3.36658 -6.02376 2.66595
C -4.72561 -6.51235 3.19336
C -5.87841 -5.53833 3.09118
O -6.6013 -5.55176 4.24992
C -7.68421 -4.61551 4.24893
C -8.84085 -5.15054 3.41104
O -9.2714 -4.14954 2.47535
C -9.01169 -4.41952 1.17197
C -9.49506 -3.33497 0.23882
C -8.45401 -2.25633 -0.09441
C -7.01729 -2.59671 0.24717
O -6.13596 -1.78589 0.49294
O -2.18098 -4.24058 1.50734
O -6.61999 -3.8082 -0.23286
O -8.6997 -5.52975 0.75553
C -5.34528 -4.10904 -0.66488
C -9.84576 -3.82164 -1.18931
C -10.82799 -2.84605 -1.83843
C -9.92655 -1.64977 -2.06856
C -8.57965 -2.23651 -1.63077
O -8.68328 -3.60336 -1.94667
H -10.43414 -2.92268 0.67429
H -8.68298 -1.27063 0.36706
H -10.26257 -4.85202 -1.21617
H -11.10331 -3.278 -2.82758
H -11.75573 -2.63735 -1.26352
H -9.92552 -1.41526 -3.15614
H -10.18204 -0.74146 -1.48086
H -7.73814 -1.6892 -2.11077
O -6.20955 -4.965 2.06808
C -1.84946 -2.95466 1.13301
C -3.2354 -6.94264 1.42452
C -2.80554 -8.3461 1.85208
C -4.08541 -8.85163 2.47872
C -5.01003 -7.66124 2.21016
O -4.55411 -7.14535 0.98692
H -2.51158 -6.23572 3.34574
H -4.65821 -6.89724 4.23687
H -1.66549 -2.32954 2.03273
H -2.52747 -6.56117 0.65705
H -2.6118 -8.93324 0.92571
H -1.90699 -8.38294 2.50481
H -4.43147 -9.74029 1.90505
H -4.02108 -9.10004 3.56017
H -6.07424 -7.98665 2.23562
H -2.66487 -2.5067 0.52657
H -0.92426 -2.98137 0.52178
H -5.30701 -5.17245 -0.97712
H -4.61398 -3.94177 0.14031
H -5.08118 -3.4701 -1.53404
H -8.54952 -6.12112 2.95173
H -9.6956 -5.41858 4.0684
H -7.34278 -3.60573 3.92114
H -8.04414 -4.49045 5.29246
$end

$opt
CONSTRAINT
tors           1           2           3           4     +26.509
tors           3           4           5           6    -136.487
tors           4           5           6           7    +177.796
tors           5           6           7           8     +76.818
tors           6           7           8           9    -129.856
tors           7           8           9          10    +111.138
tors           8           9          10          11    +179.655
tors           9          10          11          12     +92.355
tors          11          12          13          14    -153.841
ENDCONSTRAINT
$end

$rem
JOBTYPE                   OPT
METHOD                    B3LYP
DFT_D                     d3_op
BASIS                     STO-3G
GEOM_OPT_MAX_CYCLES       100
GEOM_OPT_TOL_GRADIENT     300
GEOM_OPT_TOL_DISPLACEMENT 1200
GEOM_OPT_TOL_ENERGY       100
SYMMETRY                  False
THRESH                    12
SCF_CONVERGENCE           8
MAX_SUB_FILE_NUM          128
MEM_STATIC                400
MEM_TOTAL                 4000
$end
--------------------------------------------------------------

   15   -1510.1415242567      7.11E-09 Convergence criterion met
 Total energy in the final basis set = -1510.14152426
   14   -1510.2126624539      4.92E-09 Convergence criterion met
 Total energy in the final basis set = -1510.21266245
   14   -1510.2473995035      8.75E-09 Convergence criterion met
 Total energy in the final basis set = -1510.24739950
   15   -1510.2662633112      1.94E-09 Convergence criterion met
 Total energy in the final basis set = -1510.26626331
   14   -1510.2749854037      3.71E-09 Convergence criterion met
 Total energy in the final basis set = -1510.27498540
   13   -1510.2801546039      6.28E-09 Convergence criterion met
 Total energy in the final basis set = -1510.28015460
   13   -1510.2826891490      5.77E-09 Convergence criterion met
 Total energy in the final basis set = -1510.28268915
   13   -1510.2844717781      4.59E-09 Convergence criterion met
   12   -1510.2889709002      3.02E-09 Convergence criterion met
 Total energy in the final basis set = -1510.28897090
   11   -1510.2889946483      6.18E-09 Convergence criterion met
 Total energy in the final basis set = -1510.28899465
   11   -1510.2890109283      3.85E-09 Convergence criterion met
 Total energy in the final basis set = -1510.28901093
    9   -1510.2890163487      9.71E-09 Convergence criterion met
 Total energy in the final basis set = -1510.28901635
    9   -1510.2890184151      4.24E-09 Convergence criterion met
 Total energy in the final basis set = -1510.28901842
    9   -1510.2890196397      5.18E-09 Convergence criterion met
 Total energy in the final basis set = -1510.28901964

             Standard Nuclear Orientation (Angstroms)
    I     Atom           X                Y                Z
 ----------------------------------------------------------------
    1      O      -2.1168957700    -0.8619709803     2.1460472683
    2      C      -2.7704662304    -1.2270738864     1.1432889954
    3      C      -3.6258344864    -0.2957000734     0.2053739580
    4      C      -3.1131973847     1.2055010321     0.1875414662
    5      C      -1.6768593714     1.3621175061     0.7896154930
    6      O      -1.6274994553     2.5109401009     1.6517668707
    7      C      -0.2663936044     2.5783539141     2.2325690029
    8      C       0.8402738974     3.1298429491     1.2415039021
    9      O       1.9821326067     2.1879335450     1.2546595526
   10      C       2.0752009076     1.5025862591    -0.0134055553
   11      C       3.3063824653     0.5457332694     0.0971600812
   12      C       2.9801454483    -0.9297603708     0.5896196221
   13      C       1.5218366097    -1.4579244117     0.3076159234
   14      O       0.9256896565    -2.3383810054     0.9760194182
   15      O      -2.8064744211    -2.5655784368     0.6566393533
   16      O       1.1012903115    -0.9408249650    -0.9412233316
   17      O       1.3587285403     1.7695876207    -1.0010329643
   18      C      -0.1678372041    -1.5453394772    -1.4135788956
   19      C       4.1173178229     0.2629127426    -1.2419411996
   20      C       5.6119543358     0.0033062256    -0.8064852538
   21      C       5.4575840783    -1.3827948481    -0.0735120716
   22      C       3.9475649844    -1.7390072061    -0.3868984476
   23      O       3.6830717599    -1.0805227932    -1.6864177400
   24      H       3.9735987262     1.0146930847     0.8426335195
   25      H       3.2190813749    -1.0780776692     1.6569980506
   26      H       3.9640638928     1.0066097588    -2.0476189288
   27      H       6.2593833879    -0.0825395997    -1.6941369325
   28      H       6.0096268769     0.7944635809    -0.1511150852
   29      H       6.1310762038    -2.1451861581    -0.4957440393
   30      H       5.6444293066    -1.3098178050     1.0100498271
   31      H       3.7260590642    -2.8223624736    -0.4494816208
   32      O      -0.6724006804     0.6680909310     0.5223678577
   33      C      -1.8774123256    -3.4103579231     1.4531883794
   34      C      -3.6066139091    -0.6638943885    -1.3365302639
   35      C      -4.8795016932    -0.0180903283    -2.0045108221
   36      C      -4.4906742954     1.5083055528    -1.9807886003
   37      C      -3.0300572446     1.4502740165    -1.3826668524
   38      O      -2.5020354635     0.1586772953    -1.8860178440
   39      H      -4.6672805285    -0.3266602354     0.5778819790
   40      H      -3.8072373456     1.8996373800     0.6911471924
   41      H      -2.1706210706    -3.4341530886     2.5218072699
   42      H      -3.4357528902    -1.7375180393    -1.5442389119
   43      H      -4.9979230176    -0.3858741414    -3.0363412220
   44      H      -5.8025542954    -0.2340541540    -1.4431626915
   45      H      -4.4766817493     1.9396504095    -2.9942041340
   46      H      -5.1664846920     2.1079473195    -1.3501590720
   47      H      -2.3610371116     2.2797539200    -1.6837261849
   48      H      -0.8275946832    -3.0380702247     1.3614920661
   49      H      -1.9596955224    -4.4260066688     1.0252796768
   50      H      -0.9464888644    -0.7497193089    -1.5098451559
   51      H      -0.5081383621    -2.3285532671    -0.7119692691
   52      H       0.0316871452    -1.9965885241    -2.4051604158
   53      H       0.4456520150     3.1962336663     0.2032739165
   54      H       1.2100819109     4.1211592180     1.5728768053
   55      H       0.0574246657     1.5719575337     2.5750598138
   56      H      -0.3634405656     3.2474845163     3.1103827088
 ----------------------------------------------------------------

    9   -1510.2890194868      2.67E-09 Convergence criterion met
 Total energy in the final basis set = -1510.28901949
 Final energy is   -1510.28901948678
 **  OPTIMIZATION CONVERGED  **

                    Orbital Energies (a.u.)
 --------------------------------------------------------------

 Alpha MOs
 -- Occupied --
-18.929 -18.927 -18.920 -18.919 -18.903 -18.882 -18.872 -18.868
-18.867 -18.856 -10.094 -10.094 -10.092 -10.087 -10.067 -10.064
-10.063 -10.060 -10.055 -10.054 -10.040 -10.039 -10.038 -10.031
-10.029 -10.025 -10.024 -10.021 -10.017 -10.015  -1.012  -1.004
 -0.999  -0.993  -0.979  -0.964  -0.934  -0.928  -0.924  -0.918
 -0.766  -0.756  -0.726  -0.718  -0.712  -0.702  -0.689  -0.650
 -0.637  -0.614  -0.592  -0.576  -0.548  -0.542  -0.537  -0.532
 -0.510  -0.502  -0.474  -0.468  -0.461  -0.454  -0.452  -0.439
 -0.433  -0.425  -0.425  -0.415  -0.406  -0.397  -0.390  -0.387
 -0.382  -0.372  -0.367  -0.360  -0.358  -0.355  -0.346  -0.339
 -0.336  -0.334  -0.331  -0.326  -0.324  -0.322  -0.318  -0.314
 -0.306  -0.301  -0.300  -0.295  -0.289  -0.283  -0.275  -0.273
 -0.265  -0.257  -0.245  -0.240  -0.240  -0.228  -0.224  -0.180
 -0.168  -0.164  -0.161  -0.151  -0.148  -0.146  -0.142  -0.140
 -0.134

          Ground-State Mulliken Net Atomic Charges

     Atom                 Charge (a.u.)
  ----------------------------------------
      1 O                    -0.213317
      2 C                     0.210978
      3 C                    -0.079422
      4 C                    -0.079978
      5 C                     0.212992
      6 O                    -0.171712
      7 C                    -0.052228
      8 C                    -0.058249
      9 O                    -0.176913
     10 C                     0.217969
     11 C                    -0.078639
     12 C                    -0.074977
     13 C                     0.217475
     14 O                    -0.229405
     15 O                    -0.174474
     16 O                    -0.156392
     17 O                    -0.202296
     18 C                    -0.147674
     19 C                     0.026752
     20 C                    -0.141937
     21 C                    -0.145242
     22 C                     0.024634
     23 O                    -0.184552
     24 H                     0.084078
     25 H                     0.084378
     26 H                     0.087229
     27 H                     0.076919
     28 H                     0.072559
     29 H                     0.077230
     30 H                     0.073395
     31 H                     0.081929
     32 O                    -0.213306
     33 C                    -0.143878
     34 C                     0.024933
     35 C                    -0.142349
     36 C                    -0.143912
     37 C                     0.027895
     38 O                    -0.183916
     39 H                     0.083961
     40 H                     0.087535
     41 H                     0.082800
     42 H                     0.095400
     43 H                     0.079855
     44 H                     0.075145
     45 H                     0.080229
     46 H                     0.075482
     47 H                     0.088399
     48 H                     0.116613
     49 H                     0.082494
     50 H                     0.116023
     51 H                     0.084694
     52 H                     0.076451
     53 H                     0.100683
     54 H                     0.082246
     55 H                     0.100038
     56 H                     0.085377
  ----------------------------------------
  Sum of atomic charges =    -0.000000

                    Cartesian Multipole Moments
 -----------------------------------------------------------------
    Charge (ESU x 10^10)
                 0.0000
    Dipole Moment (Debye)
         X      -0.9917      Y       1.2641      Z       0.5065
       Tot       1.6846
    Quadrupole Moments (Debye-Ang)
        XX    -136.3433     XY      -0.5431     YY    -152.7433
        XZ       6.8878     YZ       1.1959     ZZ    -164.5333

 Total job time:  111.17s(wall), 5305.81s(cpu)
        *  Thank you very much for using Q-Chem.  Have a nice day.  *
