 Q-Chem 5.0, Q-Chem, Inc., Pleasanton, CA (2017)
 Q-Chem 5.0.1 for Intel X86 EM64T Linux

User input:
--------------------------------------------------------------
$molecule
0  1
O -2.11689577 -0.8619709803 2.1460472683
C -2.7704662304 -1.2270738864 1.1432889954
C -3.6258344864 -0.2957000734 0.205373958
C -3.1131973847 1.2055010321 0.1875414662
C -1.6768593714 1.3621175061 0.789615493
O -1.6274994553 2.5109401009 1.6517668707
C -0.2663936044 2.5783539141 2.2325690029
C 0.8402738974 3.1298429491 1.2415039021
O 1.9821326067 2.187933545 1.2546595526
C 2.0752009076 1.5025862591 -0.0134055553
C 3.3063824653 0.5457332694 0.0971600812
C 2.9801454483 -0.9297603708 0.5896196221
C 1.5218366097 -1.4579244117 0.3076159234
O 0.9256896565 -2.3383810054 0.9760194182
O -2.8064744211 -2.5655784368 0.6566393533
O 1.1012903115 -0.940824965 -0.9412233316
O 1.3587285403 1.7695876207 -1.0010329643
C -0.1678372041 -1.5453394772 -1.4135788956
C 4.1173178229 0.2629127426 -1.2419411996
C 5.6119543358 0.0033062256 -0.8064852538
C 5.4575840783 -1.3827948481 -0.0735120716
C 3.9475649844 -1.7390072061 -0.3868984476
O 3.6830717599 -1.0805227932 -1.68641774
H 3.9735987262 1.0146930847 0.8426335195
H 3.2190813749 -1.0780776692 1.6569980506
H 3.9640638928 1.0066097588 -2.0476189288
H 6.2593833879 -0.0825395997 -1.6941369325
H 6.0096268769 0.7944635809 -0.1511150852
H 6.1310762038 -2.1451861581 -0.4957440393
H 5.6444293066 -1.309817805 1.0100498271
H 3.7260590642 -2.8223624736 -0.4494816208
O -0.6724006804 0.668090931 0.5223678577
C -1.8774123256 -3.4103579231 1.4531883794
C -3.6066139091 -0.6638943885 -1.3365302639
C -4.8795016932 -0.0180903283 -2.0045108221
C -4.4906742954 1.5083055528 -1.9807886003
C -3.0300572446 1.4502740165 -1.3826668524
O -2.5020354635 0.1586772953 -1.886017844
H -4.6672805285 -0.3266602354 0.577881979
H -3.8072373456 1.89963738 0.6911471924
H -2.1706210706 -3.4341530886 2.5218072699
H -3.4357528902 -1.7375180393 -1.5442389119
H -4.9979230176 -0.3858741414 -3.036341222
H -5.8025542954 -0.234054154 -1.4431626915
H -4.4766817493 1.9396504095 -2.994204134
H -5.166484692 2.1079473195 -1.350159072
H -2.3610371116 2.27975392 -1.6837261849
H -0.8275946832 -3.0380702247 1.3614920661
H -1.9596955224 -4.4260066688 1.0252796768
H -0.9464888644 -0.7497193089 -1.5098451559
H -0.5081383621 -2.3285532671 -0.7119692691
H 0.0316871452 -1.9965885241 -2.4051604158
H 0.445652015 3.1962336663 0.2032739165
H 1.2100819109 4.121159218 1.5728768053
H 0.0574246657 1.5719575337 2.5750598138
H -0.3634405656 3.2474845163 3.1103827088
$end

$rem
JOBTYPE                   OPT
METHOD                    B3LYP
DFT_D                     d3_op
BASIS                     STO-3G
GEOM_OPT_MAX_CYCLES       100
GEOM_OPT_TOL_GRADIENT     300
GEOM_OPT_TOL_DISPLACEMENT 1200
GEOM_OPT_TOL_ENERGY       100
SYMMETRY                  False
THRESH                    12
SCF_CONVERGENCE           8
MAX_SUB_FILE_NUM          128
MEM_STATIC                400
MEM_TOTAL                 4000
$end
--------------------------------------------------------------

   16   -1510.2889394606      7.25E-09 Convergence criterion met
 Total energy in the final basis set = -1510.28893946
   14   -1510.2461837328      8.51E-09 Convergence criterion met
 Total energy in the final basis set = -1510.24618373
   15   -1510.2764967886      5.89E-09 Convergence criterion met
 Total energy in the final basis set = -1510.27649679
   14   -1510.2751299943      6.46E-09 Convergence criterion met
 Total energy in the final basis set = -1510.27512999
   14   -1510.2840685686      6.44E-09 Convergence criterion met
 Total energy in the final basis set = -1510.28406857
   14   -1510.2827101246      3.56E-09 Convergence criterion met
 Total energy in the final basis set = -1510.28271012
   14   -1510.2857482849      6.20E-09 Convergence criterion met
 Total energy in the final basis set = -1510.28574828
   14   -1510.2821874918      2.42E-09 Convergence criterion met
   11   -1510.2945949001      6.15E-09 Convergence criterion met
 Total energy in the final basis set = -1510.29459490
   10   -1510.2945900327      9.15E-09 Convergence criterion met
 Total energy in the final basis set = -1510.29459003
   10   -1510.2945867006      3.55E-09 Convergence criterion met
 Total energy in the final basis set = -1510.29458670
    9   -1510.2945854048      5.50E-09 Convergence criterion met
 Total energy in the final basis set = -1510.29458540
    8   -1510.2945849882      9.54E-09 Convergence criterion met
 Total energy in the final basis set = -1510.29458499
    9   -1510.2945844170      3.03E-09 Convergence criterion met
 Total energy in the final basis set = -1510.29458442

             Standard Nuclear Orientation (Angstroms)
    I     Atom           X                Y                Z
 ----------------------------------------------------------------
    1      O       2.4858593132     0.7172151481     2.6036841312
    2      C       2.8409485231     1.1705736944     1.4926094650
    3      C       3.7093482308     0.3984350570     0.4280166350
    4      C       3.1069384361    -1.0274616467     0.0706035835
    5      C       1.7133548762    -1.3022982556     0.7270018997
    6      O       1.7514408230    -2.6060652682     1.3207664754
    7      C       0.4367825525    -2.9367477623     1.9173682770
    8      C      -0.6447328509    -3.3213564297     0.8274342564
    9      O      -1.8594573463    -2.4964006498     1.0041074412
   10      C      -1.9947973841    -1.5522192926    -0.0746711599
   11      C      -3.3019198797    -0.7392707620     0.1957164979
   12      C      -3.1156212946     0.8230027133     0.4234435320
   13      C      -1.6469440909     1.3748180128     0.3377354868
   14      O      -0.9982893511     1.8344110997     1.3084759105
   15      O       2.5359180126     2.4784652157     1.0210041582
   16      O      -1.2335555061     1.3562734365    -1.0157740547
   17      O      -1.2155310230    -1.4904550705    -1.0493539314
   18      C       0.0923256056     1.9940681112    -1.2101690212
   19      C      -4.2694288889    -0.7434850685    -1.0688604897
   20      C      -5.7178595021    -0.3488594192    -0.5754950836
   21      C      -5.5449788669     1.1978923555    -0.3412504768
   22      C      -4.0299693868     1.3995249597    -0.7446853538
   23      O      -3.8331649417     0.4339908049    -1.8481216048
   24      H      -3.7901722776    -1.1972688044     1.0738028854
   25      H      -3.5033888067     1.1058706006     1.4180763700
   26      H      -4.2121962132    -1.6597352411    -1.6877171955
   27      H      -6.4624556905    -0.5584984456    -1.3598422897
   28      H      -6.0060821897    -0.8897149019     0.3398140495
   29      H      -6.2008055486     1.7829791293    -1.0056100228
   30      H      -5.7402963963     1.4967972927     0.7009262836
   31      H      -3.7614789864     2.4217483965    -1.0737644513
   32      O       0.7075045075    -0.5600848768     0.7201129403
   33      C       1.5926133459     3.1443467280     1.9565221963
   34      C       3.7497528467     1.0797844952    -1.0005176896
   35      C       4.9503974690     0.4623866517    -1.8165126902
   36      C       4.3843156836    -0.9660520740    -2.1627511624
   37      C       2.9516338317    -0.8972490535    -1.5059213627
   38      O       2.5593868925     0.5188957920    -1.6863986811
   39      H       4.7280966455     0.2852273711     0.8428097958
   40      H       3.7923300901    -1.8467312780     0.3480851298
   41      H       1.9351967439     3.0538000034     3.0060067989
   42      H       3.6944695904     2.1844102149    -0.9771648809
   43      H       5.1412031540     1.0515166536    -2.7277776306
   44      H       5.8771987945     0.4205887385    -1.2222397481
   45      H       4.3019291724    -1.1157143853    -3.2510406800
   46      H       4.9929118310    -1.7802196961    -1.7381616818
   47      H       2.1895694435    -1.5662316585    -1.9512953471
   48      H       0.5783167348     2.6894788727     1.8440248860
   49      H       1.5724115425     4.2083775762     1.6585275250
   50      H       0.9200405215     1.2415347858    -1.2213569641
   51      H       0.2895658884     2.7457680545    -0.4242280729
   52      H       0.0468107453     2.4916793214    -2.1972172780
   53      H      -0.2398687535    -3.1417464256    -0.1935772788
   54      H      -0.9431286930    -4.3843311106     0.9312885641
   55      H       0.0460548394    -2.0799579530     2.5084475920
   56      H       0.6314426729    -3.7916681051     2.5940827537
 ----------------------------------------------------------------

    9   -1510.2945838055      5.67E-09 Convergence criterion met
 Total energy in the final basis set = -1510.29458381
 Final energy is   -1510.29458380552
 **  OPTIMIZATION CONVERGED  **

                    Orbital Energies (a.u.)
 --------------------------------------------------------------

 Alpha MOs
 -- Occupied --
-18.932 -18.926 -18.923 -18.922 -18.901 -18.884 -18.874 -18.873
-18.861 -18.860 -10.097 -10.094 -10.090 -10.090 -10.069 -10.065
-10.064 -10.061 -10.056 -10.054 -10.037 -10.036 -10.034 -10.033
-10.030 -10.024 -10.024 -10.022 -10.017 -10.016  -1.013  -1.004
 -0.999  -0.995  -0.977  -0.965  -0.937  -0.930  -0.924  -0.921
 -0.764  -0.757  -0.726  -0.719  -0.711  -0.704  -0.693  -0.646
 -0.639  -0.617  -0.592  -0.577  -0.547  -0.540  -0.538  -0.533
 -0.509  -0.506  -0.477  -0.467  -0.462  -0.454  -0.448  -0.439
 -0.436  -0.429  -0.427  -0.413  -0.406  -0.397  -0.392  -0.387
 -0.383  -0.374  -0.367  -0.359  -0.358  -0.354  -0.344  -0.341
 -0.336  -0.336  -0.331  -0.327  -0.324  -0.322  -0.320  -0.311
 -0.305  -0.302  -0.300  -0.296  -0.291  -0.283  -0.274  -0.272
 -0.270  -0.257  -0.243  -0.242  -0.236  -0.231  -0.229  -0.181
 -0.166  -0.165  -0.163  -0.153  -0.150  -0.146  -0.141  -0.139
 -0.137

          Ground-State Mulliken Net Atomic Charges

     Atom                 Charge (a.u.)
  ----------------------------------------
      1 O                    -0.218545
      2 C                     0.210702
      3 C                    -0.079547
      4 C                    -0.079818
      5 C                     0.211825
      6 O                    -0.171694
      7 C                    -0.052033
      8 C                    -0.057920
      9 O                    -0.175041
     10 C                     0.213004
     11 C                    -0.078247
     12 C                    -0.077858
     13 C                     0.218257
     14 O                    -0.221250
     15 O                    -0.174019
     16 O                    -0.159351
     17 O                    -0.203466
     18 C                    -0.145688
     19 C                     0.026769
     20 C                    -0.143956
     21 C                    -0.144450
     22 C                     0.027535
     23 O                    -0.182213
     24 H                     0.085991
     25 H                     0.083146
     26 H                     0.082654
     27 H                     0.077129
     28 H                     0.073145
     29 H                     0.077058
     30 H                     0.073237
     31 H                     0.083978
     32 O                    -0.210448
     33 C                    -0.147147
     34 C                     0.024574
     35 C                    -0.143412
     36 C                    -0.143420
     37 C                     0.027243
     38 O                    -0.184876
     39 H                     0.083909
     40 H                     0.087186
     41 H                     0.084892
     42 H                     0.096016
     43 H                     0.079120
     44 H                     0.074566
     45 H                     0.079788
     46 H                     0.075302
     47 H                     0.089115
     48 H                     0.118623
     49 H                     0.078963
     50 H                     0.116676
     51 H                     0.083604
     52 H                     0.078495
     53 H                     0.099552
     54 H                     0.083583
     55 H                     0.099992
     56 H                     0.088772
  ----------------------------------------
  Sum of atomic charges =    -0.000000

                    Cartesian Multipole Moments
 -----------------------------------------------------------------
    Charge (ESU x 10^10)
                -0.0000
    Dipole Moment (Debye)
         X       0.5424      Y      -1.2256      Z       0.0603
       Tot       1.3416
    Quadrupole Moments (Debye-Ang)
        XX    -137.5959     XY      -0.2194     YY    -148.9726
        XZ      -8.3720     YZ      -0.5557     ZZ    -167.6467

 Total job time:  120.44s(wall), 5747.94s(cpu)
        *  Thank you very much for using Q-Chem.  Have a nice day.  *
