 Q-Chem 5.0, Q-Chem, Inc., Pleasanton, CA (2017)
 Q-Chem 5.0.1 for Intel X86 EM64T Linux

User input:
--------------------------------------------------------------
$molecule
0  1
O -3.94934 -3.66094 2.70899
C -3.26408 -4.56952 2.26188
C -3.36658 -6.02376 2.66595
C -4.72561 -6.51235 3.19336
C -5.87841 -5.53833 3.09118
O -6.591 -5.53889 4.25636
C -7.69969 -4.63349 4.23883
C -8.8478 -5.22406 3.42691
O -9.61887 -4.16918 2.83062
C -9.75402 -4.23588 1.48287
C -10.60436 -3.12151 0.92096
C -9.82321 -1.8874 0.44657
C -8.33038 -2.07847 0.26863
O -7.48313 -1.20774 0.40489
O -2.19844 -4.24198 1.48316
O -7.93397 -3.227 -0.34748
O -9.50077 -5.23809 0.82265
C -6.65311 -3.47418 -0.79908
C -11.34816 -3.49554 -0.38377
C -12.56151 -2.58386 -0.56757
C -11.88015 -1.27444 -0.90522
C -10.42006 -1.73634 -0.96729
O -10.49987 -3.06645 -1.41644
H -11.38397 -2.88372 1.68052
H -9.98599 -0.97656 1.06372
H -11.66758 -4.55995 -0.42149
H -13.10409 -2.94453 -1.47101
H -13.26789 -2.54441 0.28933
H -12.23302 -0.94356 -1.90725
H -12.01933 -0.45948 -0.1622
H -9.82152 -1.04582 -1.60262
O -6.21503 -4.97317 2.05621
C -1.90688 -2.96198 1.06002
C -3.23597 -6.94528 1.42579
C -2.80564 -8.34809 1.85556
C -4.08485 -8.8528 2.48396
C -5.0101 -7.66344 2.21308
O -4.5548 -7.14918 0.9887
H -2.51012 -6.23609 3.34378
H -4.65648 -6.89382 4.23804
H -1.72989 -2.29966 1.93424
H -2.52776 -6.56633 0.65742
H -2.61268 -8.93671 0.92994
H -1.90648 -8.38422 2.5075
H -4.4306 -9.74322 1.91284
H -4.0199 -9.09825 3.56606
H -6.07417 -7.98919 2.23991
H -2.74438 -2.56232 0.44875
H -0.98908 -2.9849 0.4375
H -6.6105 -4.49403 -1.23318
H -5.926 -3.40601 0.03668
H -6.37904 -2.73878 -1.58518
H -8.4277 -5.92614 2.67733
H -9.47923 -5.85753 4.08545
H -7.36826 -3.65922 3.80722
H -8.05273 -4.40583 5.26679
$end

$opt
CONSTRAINT
tors           1           2           3           4     +26.509
tors           3           4           5           6    -135.697
tors           4           5           6           7    +179.738
tors           5           6           7           8     +76.818
tors           6           7           8           9    -150.476
tors           7           8           9          10    +124.159
tors           8           9          10          11    +178.465
tors           9          10          11          12     +93.608
tors          11          12          13          14    -150.420
ENDCONSTRAINT
$end

$rem
JOBTYPE                   OPT
METHOD                    B3LYP
DFT_D                     d3_op
BASIS                     STO-3G
GEOM_OPT_MAX_CYCLES       100
GEOM_OPT_TOL_GRADIENT     300
GEOM_OPT_TOL_DISPLACEMENT 1200
GEOM_OPT_TOL_ENERGY       100
SYMMETRY                  False
THRESH                    12
SCF_CONVERGENCE           8
MAX_SUB_FILE_NUM          128
MEM_STATIC                400
MEM_TOTAL                 4000
$end
--------------------------------------------------------------

   16   -1510.1466743941      1.97E-09 Convergence criterion met
 Total energy in the final basis set = -1510.14667439
   14   -1510.2170603713      5.17E-09 Convergence criterion met
 Total energy in the final basis set = -1510.21706037
   14   -1510.2552706373      6.27E-09 Convergence criterion met
 Total energy in the final basis set = -1510.25527064
   14   -1510.2721500916      5.65E-09 Convergence criterion met
 Total energy in the final basis set = -1510.27215009
   14   -1510.2754631359      5.85E-09 Convergence criterion met
 Total energy in the final basis set = -1510.27546314
   14   -1510.2773525926      5.34E-09 Convergence criterion met
 Total energy in the final basis set = -1510.27735259
   13   -1510.2790767527      4.94E-09 Convergence criterion met
 Total energy in the final basis set = -1510.27907675
   13   -1510.2796023115      4.17E-09 Convergence criterion met
   12   -1510.2817323732      2.85E-09 Convergence criterion met
 Total energy in the final basis set = -1510.28173237
   12   -1510.2817841511      1.98E-09 Convergence criterion met
 Total energy in the final basis set = -1510.28178415
   11   -1510.2818129473      6.14E-09 Convergence criterion met
 Total energy in the final basis set = -1510.28181295
   11   -1510.2818317266      5.76E-09 Convergence criterion met
 Total energy in the final basis set = -1510.28183173
    9   -1510.2818403580      9.49E-09 Convergence criterion met
 Total energy in the final basis set = -1510.28184036
    9   -1510.2818426672      6.23E-09 Convergence criterion met
 Total energy in the final basis set = -1510.28184267

             Standard Nuclear Orientation (Angstroms)
    I     Atom           X                Y                Z
 ----------------------------------------------------------------
    1      O      -2.6434633211    -1.2595730086     1.8893866149
    2      C      -3.3719747131    -1.3431374817     0.8760538749
    3      C      -4.1350051909    -0.1680757688     0.1669138239
    4      C      -3.4541893098     1.2468939725     0.3780740575
    5      C      -1.9730837036     1.1306930439     0.8696697281
    6      O      -1.7270791779     2.0613725034     1.9300607892
    7      C      -0.3157823915     1.9152733340     2.3716579197
    8      C       0.7092080577     2.5907794946     1.3808576333
    9      O       1.9887783128     1.8459438881     1.4515489772
   10      C       2.3681653075     1.3912649913     0.1362034266
   11      C       3.7405721741     0.6512877530     0.2795731313
   12      C       3.6875435834    -0.9270265068     0.4830826334
   13      C       2.3076591061    -1.6479829400     0.2748012831
   14      O       1.9393690540    -2.6953023974     0.8566798820
   15      O      -3.6455708355    -2.5632380534     0.1845084424
   16      O       1.6149176092    -1.0333913392    -0.8030038215
   17      O       1.7349789404     1.6761398488    -0.9024465068
   18      C       0.3223111965    -1.7139647165    -1.0706128863
   19      C       4.6314290667     0.7611269219    -1.0339772938
   20      C       6.1381142998     0.5637755001    -0.6065346705
   21      C       6.1555402551    -0.9772771417    -0.2899939445
   22      C       4.6791440613    -1.3896026717    -0.6765778402
   23      O       4.3295915399    -0.4765617805    -1.7861257677
   24      H       4.2548890112     1.1093571765     1.1434845183
   25      H       4.0677267252    -1.2129595566     1.4797503319
   26      H       4.4203751588     1.6514472179    -1.6575387622
   27      H       6.8100955448     0.8104781000    -1.4441256228
   28      H       6.4132746396     1.1823592616     0.2623794747
   29      H       6.8838205848    -1.5132310670    -0.9190552662
   30      H       6.3781156747    -1.1907362471     0.7676239217
   31      H       4.5530076522    -2.4451886900    -0.9866918046
   32      O      -1.0775197244     0.4074261216     0.3799609414
   33      C      -2.9081726195    -3.6810010015     0.8189130698
   34      C      -4.1913053151    -0.2610866820    -1.4192668397
   35      C      -5.4285679641     0.5900228581    -1.9010271245
   36      C      -4.9147521742     2.0482244922    -1.6048333749
   37      C      -3.4344630345     1.7667504512    -1.1266336975
   38      O      -3.0359984130     0.5488710415    -1.8699296633
   39      H      -5.1621617103    -0.1552263756     0.5779874307
   40      H      -4.0246964583     1.9011199625     1.0592763227
   41      H      -3.2429012682    -3.8509079947     1.8625967052
   42      H      -4.1276528688    -1.2935324891    -1.8131518487
   43      H      -5.6008056915     0.4369292637    -2.9784921618
   44      H      -6.3519219274     0.3404074198    -1.3543731466
   45      H      -4.9156277388     2.6726426569    -2.5120504645
   46      H      -5.5069103253     2.5562498630    -0.8267464327
   47      H      -2.7153149675     2.5870959255    -1.3163150824
   48      H      -1.8148966492    -3.4938203385     0.8248053527
   49      H      -3.1291449108    -4.5760822561     0.2087704554
   50      H       0.2349305294    -1.8423336785    -2.1657194227
   51      H      -0.4935314784    -1.0602877004    -0.6901166849
   52      H       0.3049846306    -2.6971995483    -0.5602354155
   53      H       0.3441716312     2.5467295422     0.3307932181
   54      H       0.8943395011     3.6475792810     1.6643348543
   55      H      -0.0522552556     0.8395578993     2.4632520208
   56      H      -0.2696448941     2.3910783827     3.3708514934
 ----------------------------------------------------------------

    9   -1510.2818432540      3.61E-09 Convergence criterion met
 Total energy in the final basis set = -1510.28184325
 Final energy is   -1510.28184325400
 **  OPTIMIZATION CONVERGED  **

                    Orbital Energies (a.u.)
 --------------------------------------------------------------

 Alpha MOs
 -- Occupied --
-18.938 -18.936 -18.922 -18.918 -18.890 -18.883 -18.877 -18.875
-18.873 -18.854 -10.102 -10.102 -10.093 -10.084 -10.068 -10.065
-10.063 -10.060 -10.060 -10.055 -10.054 -10.041 -10.040 -10.032
-10.030 -10.027 -10.023 -10.021 -10.016 -10.015  -1.017  -1.011
 -1.003  -0.993  -0.972  -0.965  -0.941  -0.934  -0.928  -0.917
 -0.765  -0.756  -0.726  -0.719  -0.712  -0.703  -0.692  -0.662
 -0.640  -0.615  -0.595  -0.577  -0.547  -0.539  -0.538  -0.532
 -0.514  -0.504  -0.478  -0.468  -0.464  -0.457  -0.454  -0.436
 -0.436  -0.429  -0.426  -0.412  -0.411  -0.403  -0.400  -0.394
 -0.390  -0.378  -0.367  -0.362  -0.357  -0.356  -0.351  -0.348
 -0.336  -0.332  -0.332  -0.327  -0.326  -0.322  -0.319  -0.314
 -0.306  -0.301  -0.301  -0.297  -0.292  -0.287  -0.278  -0.275
 -0.266  -0.258  -0.253  -0.239  -0.236  -0.229  -0.226  -0.185
 -0.178  -0.165  -0.161  -0.155  -0.150  -0.148  -0.144  -0.139
 -0.138

          Ground-State Mulliken Net Atomic Charges

     Atom                 Charge (a.u.)
  ----------------------------------------
      1 O                    -0.212509
      2 C                     0.211547
      3 C                    -0.079216
      4 C                    -0.079279
      5 C                     0.218303
      6 O                    -0.168798
      7 C                    -0.050636
      8 C                    -0.059352
      9 O                    -0.177257
     10 C                     0.215845
     11 C                    -0.078799
     12 C                    -0.077248
     13 C                     0.204783
     14 O                    -0.225228
     15 O                    -0.170059
     16 O                    -0.163034
     17 O                    -0.201220
     18 C                    -0.146540
     19 C                     0.026722
     20 C                    -0.143519
     21 C                    -0.144626
     22 C                     0.025893
     23 O                    -0.184500
     24 H                     0.084306
     25 H                     0.083550
     26 H                     0.086378
     27 H                     0.077207
     28 H                     0.072610
     29 H                     0.077335
     30 H                     0.073514
     31 H                     0.082948
     32 O                    -0.213472
     33 C                    -0.128260
     34 C                     0.023921
     35 C                    -0.142657
     36 C                    -0.144743
     37 C                     0.025872
     38 O                    -0.186124
     39 H                     0.084793
     40 H                     0.087389
     41 H                     0.089253
     42 H                     0.092642
     43 H                     0.079000
     44 H                     0.073545
     45 H                     0.079233
     46 H                     0.073930
     47 H                     0.084269
     48 H                     0.095592
     49 H                     0.091421
     50 H                     0.082926
     51 H                     0.112989
     52 H                     0.086612
     53 H                     0.104294
     54 H                     0.080167
     55 H                     0.099951
     56 H                     0.088339
  ----------------------------------------
  Sum of atomic charges =    -0.000000

                    Cartesian Multipole Moments
 -----------------------------------------------------------------
    Charge (ESU x 10^10)
                -0.0000
    Dipole Moment (Debye)
         X      -1.6508      Y       1.1314      Z       1.2806
       Tot       2.3759
    Quadrupole Moments (Debye-Ang)
        XX    -133.3080     XY       1.7389     YY    -152.0598
        XZ       5.2776     YZ       3.0518     ZZ    -166.0856

 Total job time:  73.87s(wall), 3520.66s(cpu)
        *  Thank you very much for using Q-Chem.  Have a nice day.  *
