 Q-Chem 5.0, Q-Chem, Inc., Pleasanton, CA (2017)
 Q-Chem 5.0.1 for Intel X86 EM64T Linux

User input:
--------------------------------------------------------------
$molecule
0  1
O -2.6434633211 -1.2595730086 1.8893866149
C -3.3719747131 -1.3431374817 0.8760538749
C -4.1350051909 -0.1680757688 0.1669138239
C -3.4541893098 1.2468939725 0.3780740575
C -1.9730837036 1.1306930439 0.8696697281
O -1.7270791779 2.0613725034 1.9300607892
C -0.3157823915 1.915273334 2.3716579197
C 0.7092080577 2.5907794946 1.3808576333
O 1.9887783128 1.8459438881 1.4515489772
C 2.3681653075 1.3912649913 0.1362034266
C 3.7405721741 0.651287753 0.2795731313
C 3.6875435834 -0.9270265068 0.4830826334
C 2.3076591061 -1.64798294 0.2748012831
O 1.939369054 -2.6953023974 0.856679882
O -3.6455708355 -2.5632380534 0.1845084424
O 1.6149176092 -1.0333913392 -0.8030038215
O 1.7349789404 1.6761398488 -0.9024465068
C 0.3223111965 -1.7139647165 -1.0706128863
C 4.6314290667 0.7611269219 -1.0339772938
C 6.1381142998 0.5637755001 -0.6065346705
C 6.1555402551 -0.9772771417 -0.2899939445
C 4.6791440613 -1.3896026717 -0.6765778402
O 4.3295915399 -0.4765617805 -1.7861257677
H 4.2548890112 1.1093571765 1.1434845183
H 4.0677267252 -1.2129595566 1.4797503319
H 4.4203751588 1.6514472179 -1.6575387622
H 6.8100955448 0.8104781 -1.4441256228
H 6.4132746396 1.1823592616 0.2623794747
H 6.8838205848 -1.513231067 -0.9190552662
H 6.3781156747 -1.1907362471 0.7676239217
H 4.5530076522 -2.44518869 -0.9866918046
O -1.0775197244 0.4074261216 0.3799609414
C -2.9081726195 -3.6810010015 0.8189130698
C -4.1913053151 -0.261086682 -1.4192668397
C -5.4285679641 0.5900228581 -1.9010271245
C -4.9147521742 2.0482244922 -1.6048333749
C -3.4344630345 1.7667504512 -1.1266336975
O -3.035998413 0.5488710415 -1.8699296633
H -5.1621617103 -0.1552263756 0.5779874307
H -4.0246964583 1.9011199625 1.0592763227
H -3.2429012682 -3.8509079947 1.8625967052
H -4.1276528688 -1.2935324891 -1.8131518487
H -5.6008056915 0.4369292637 -2.9784921618
H -6.3519219274 0.3404074198 -1.3543731466
H -4.9156277388 2.6726426569 -2.5120504645
H -5.5069103253 2.556249863 -0.8267464327
H -2.7153149675 2.5870959255 -1.3163150824
H -1.8148966492 -3.4938203385 0.8248053527
H -3.1291449108 -4.5760822561 0.2087704554
H 0.2349305294 -1.8423336785 -2.1657194227
H -0.4935314784 -1.0602877004 -0.6901166849
H 0.3049846306 -2.6971995483 -0.5602354155
H 0.3441716312 2.5467295422 0.3307932181
H 0.8943395011 3.647579281 1.6643348543
H -0.0522552556 0.8395578993 2.4632520208
H -0.2696448941 2.3910783827 3.3708514934
$end

$rem
JOBTYPE                   OPT
METHOD                    B3LYP
DFT_D                     d3_op
BASIS                     STO-3G
GEOM_OPT_MAX_CYCLES       100
GEOM_OPT_TOL_GRADIENT     300
GEOM_OPT_TOL_DISPLACEMENT 1200
GEOM_OPT_TOL_ENERGY       100
SYMMETRY                  False
THRESH                    12
SCF_CONVERGENCE           8
MAX_SUB_FILE_NUM          128
MEM_STATIC                400
MEM_TOTAL                 4000
$end
--------------------------------------------------------------

   16   -1510.2819633908      7.17E-09 Convergence criterion met
 Total energy in the final basis set = -1510.28196339
   14   -1510.2721335677      3.53E-09 Convergence criterion met
 Total energy in the final basis set = -1510.27213357
   14   -1510.2828230939      2.29E-09 Convergence criterion met
 Total energy in the final basis set = -1510.28282309
   13   -1510.2848714214      5.97E-09 Convergence criterion met
 Total energy in the final basis set = -1510.28487142
   14   -1510.2810102018      4.87E-09 Convergence criterion met
 Total energy in the final basis set = -1510.28101020
   14   -1510.2865064480      2.94E-09 Convergence criterion met
 Total energy in the final basis set = -1510.28650645
   14   -1510.2575045760      4.31E-09 Convergence criterion met
 Total energy in the final basis set = -1510.25750458
   14   -1510.2888008710      5.07E-09 Convergence criterion met
   11   -1510.2946969212      5.14E-09 Convergence criterion met
 Total energy in the final basis set = -1510.29469692
   11   -1510.2947051835      4.74E-09 Convergence criterion met
 Total energy in the final basis set = -1510.29470518
    9   -1510.2947100254      8.68E-09 Convergence criterion met
 Total energy in the final basis set = -1510.29471003
   10   -1510.2947231069      9.01E-09 Convergence criterion met
 Total energy in the final basis set = -1510.29472311
   11   -1510.2947275720      3.78E-09 Convergence criterion met
 Total energy in the final basis set = -1510.29472757
    9   -1510.2947297455      3.72E-09 Convergence criterion met
 Total energy in the final basis set = -1510.29472975

             Standard Nuclear Orientation (Angstroms)
    I     Atom           X                Y                Z
 ----------------------------------------------------------------
    1      O      -2.2901975426    -1.1671024901     2.2252879434
    2      C      -2.7863095689    -1.4031018916     1.1008359086
    3      C      -3.6771728733    -0.4060894530     0.2688437727
    4      C      -3.0923923343     1.0699165917     0.2621480793
    5      C      -1.6864709070     1.1822437415     0.9424105947
    6      O      -1.7553950325     2.2040559210     1.9439506972
    7      C      -0.4494316360     2.3293782969     2.6315697374
    8      C       0.6676305279     2.9966612438     1.7302113763
    9      O       1.8519306814     2.1133489549     1.6611869633
   10      C       2.0413382068     1.6059200330     0.3274632689
   11      C       3.3044242638     0.6859470212     0.3777728013
   12      C       3.0376353404    -0.8809968711     0.3304569962
   13      C       1.5616996304    -1.3510407417     0.0637949806
   14      O       0.8812812738    -2.0538869519     0.8499377919
   15      O      -2.6459447733    -2.6345782979     0.4005905142
   16      O       1.1860518379    -0.9560797742    -1.2431307191
   17      O       1.3378716253     1.9290185214    -0.6529272042
   18      C      -0.1206047925    -1.5324229481    -1.6485130927
   19      C       4.2546183272     0.8704078054    -0.8864787395
   20      C       5.6994549872     0.3850089090    -0.4743837305
   21      C       5.4864824684    -1.1737651329    -0.4267715999
   22      C       3.9776167054    -1.2927744480    -0.8846934575
   23      O       3.8057515337    -0.1715114673    -1.8344525709
   24      H       3.8372178277     0.9386962958     1.3115814345
   25      H       3.3571417079    -1.3528385873     1.2763981962
   26      H       4.2031648644     1.8703338788    -1.3589962266
   27      H       6.4328279267     0.6677641405    -1.2465823142
   28      H       6.0240068645     0.8029015495     0.4918362383
   29      H       6.1482540902    -1.6954831144    -1.1360596221
   30      H       5.6464201463    -1.5927207527     0.5794592275
   31      H       3.7060329305    -2.2520214837    -1.3657760540
   32      O      -0.6516076953     0.5378851354     0.6674465849
   33      C      -1.7038628315    -3.5207916555     1.1332370936
   34      C      -3.7391801720    -0.7215408974    -1.2824332800
   35      C      -4.9683438727     0.0513446189    -1.8974104002
   36      C      -4.4346321963     1.5328155041    -1.8860980602
   37      C      -2.9814005325     1.3347279498    -1.3004166924
   38      O      -2.5762416276     0.0150034952    -1.8354040142
   39      H      -4.6915088261    -0.4117047274     0.7092007514
   40      H      -3.7753031082     1.7845420526     0.7528506535
   41      H      -2.0333606419    -3.6825394594     2.1786985845
   42      H      -3.6662297491    -1.7982576303    -1.5268133857
   43      H      -5.1675587452    -0.2965868038    -2.9235196654
   44      H      -5.8821942202    -0.0775967894    -1.2958395754
   45      H      -4.3854062345     1.9537393273    -2.9028816219
   46      H      -5.0443738996     2.1993317807    -1.2554137164
   47      H      -2.2421083496     2.1078008456    -1.5871312618
   48      H      -0.6813440736    -3.0716605539     1.1237862460
   49      H      -1.7111922201    -4.4818413216     0.5875982136
   50      H      -0.0110642350    -1.8291127905    -2.7089382336
   51      H      -0.9471778146    -0.7837072536    -1.5605051563
   52      H      -0.3646087702    -2.4200371082    -1.0365672148
   53      H       0.2880270820     3.1663847437     0.6980515880
   54      H       0.9931427741     3.9619039359     2.1693929039
   55      H      -0.0832193546     1.3315068651     2.9591803251
   56      H      -0.6548349429     2.9527260231     3.5239213348
 ----------------------------------------------------------------

    9   -1510.2947305209      3.32E-09 Convergence criterion met
 Total energy in the final basis set = -1510.29473052
 Final energy is   -1510.29473052090
 **  OPTIMIZATION CONVERGED  **

                    Orbital Energies (a.u.)
 --------------------------------------------------------------

 Alpha MOs
 -- Occupied --
-18.931 -18.926 -18.924 -18.921 -18.902 -18.883 -18.873 -18.870
-18.864 -18.859 -10.096 -10.093 -10.092 -10.089 -10.068 -10.065
-10.063 -10.062 -10.054 -10.054 -10.038 -10.037 -10.036 -10.032
-10.029 -10.024 -10.023 -10.022 -10.016 -10.015  -1.012  -1.003
 -1.000  -0.994  -0.978  -0.964  -0.935  -0.929  -0.925  -0.920
 -0.765  -0.756  -0.726  -0.718  -0.711  -0.703  -0.692  -0.648
 -0.638  -0.616  -0.592  -0.576  -0.547  -0.540  -0.538  -0.532
 -0.509  -0.505  -0.476  -0.466  -0.462  -0.453  -0.449  -0.438
 -0.434  -0.428  -0.426  -0.413  -0.406  -0.397  -0.392  -0.387
 -0.384  -0.374  -0.367  -0.360  -0.357  -0.354  -0.344  -0.341
 -0.336  -0.335  -0.332  -0.327  -0.325  -0.321  -0.319  -0.312
 -0.305  -0.301  -0.299  -0.296  -0.290  -0.283  -0.274  -0.272
 -0.268  -0.256  -0.244  -0.241  -0.237  -0.229  -0.228  -0.179
 -0.166  -0.165  -0.163  -0.152  -0.149  -0.147  -0.142  -0.138
 -0.137

          Ground-State Mulliken Net Atomic Charges

     Atom                 Charge (a.u.)
  ----------------------------------------
      1 O                    -0.215802
      2 C                     0.211080
      3 C                    -0.079473
      4 C                    -0.080269
      5 C                     0.212703
      6 O                    -0.171541
      7 C                    -0.051305
      8 C                    -0.057256
      9 O                    -0.175361
     10 C                     0.215270
     11 C                    -0.078492
     12 C                    -0.076974
     13 C                     0.218752
     14 O                    -0.223859
     15 O                    -0.173862
     16 O                    -0.158818
     17 O                    -0.203877
     18 C                    -0.147487
     19 C                     0.026654
     20 C                    -0.143486
     21 C                    -0.144890
     22 C                     0.027084
     23 O                    -0.181944
     24 H                     0.085280
     25 H                     0.083281
     26 H                     0.084003
     27 H                     0.076930
     28 H                     0.072733
     29 H                     0.076915
     30 H                     0.073108
     31 H                     0.082567
     32 O                    -0.212428
     33 C                    -0.145790
     34 C                     0.024496
     35 C                    -0.143240
     36 C                    -0.143454
     37 C                     0.027399
     38 O                    -0.184832
     39 H                     0.084329
     40 H                     0.087034
     41 H                     0.083400
     42 H                     0.096270
     43 H                     0.079357
     44 H                     0.074727
     45 H                     0.079925
     46 H                     0.075304
     47 H                     0.089379
     48 H                     0.118735
     49 H                     0.080353
     50 H                     0.077347
     51 H                     0.116179
     52 H                     0.082926
     53 H                     0.099981
     54 H                     0.082633
     55 H                     0.100038
     56 H                     0.088266
  ----------------------------------------
  Sum of atomic charges =    -0.000000

                    Cartesian Multipole Moments
 -----------------------------------------------------------------
    Charge (ESU x 10^10)
                -0.0000
    Dipole Moment (Debye)
         X      -0.8335      Y       0.9358      Z       0.6522
       Tot       1.4127
    Quadrupole Moments (Debye-Ang)
        XX    -137.2969     XY      -2.1389     YY    -150.4786
        XZ       7.7999     YZ       4.2901     ZZ    -165.3660

 Total job time:  109.16s(wall), 5207.13s(cpu)
        *  Thank you very much for using Q-Chem.  Have a nice day.  *
