 Q-Chem 5.0, Q-Chem, Inc., Pleasanton, CA (2017)
 Q-Chem 5.0.1 for Intel X86 EM64T Linux

User input:
--------------------------------------------------------------
$molecule
0  1
O -2.2246145683 -1.0289993776 2.2936945675
C -2.6919137648 -1.3450194 1.1771571364
C -3.625332363 -0.4467930076 0.2827492013
C -3.2260965484 1.0866386831 0.2988798435
C -1.7736593695 1.3359373995 0.8256177871
O -1.7517539591 2.4958696112 1.6706598634
C -0.3758199142 2.6507063357 2.2049375076
C 0.6845498501 3.0256359697 1.0927094832
O 1.8469685025 2.1154368131 1.1866158822
C 2.1533174247 1.5875370083 -0.1208674325
C 3.38907526 0.6458215375 0.0447522657
C 3.0644999255 -0.814265304 0.5745816169
C 1.5938945327 -1.3240371535 0.3372266845
O 0.9869564874 -2.1374180391 1.0746724091
O -2.5263649978 -2.621545916 0.5646414715
O 1.1561894661 -0.842720262 -0.9210113353
O 1.5521293798 1.9195764424 -1.1643304787
C -0.1284928453 -1.4417301723 -1.3600881471
C 4.2015854749 0.3299343505 -1.2844148355
C 5.6932124786 0.0580260519 -0.8467610846
C 5.5253187046 -1.3177083894 -0.0979334344
C 4.0084787958 -1.6552464699 -0.3971908369
O 3.7459176824 -1.014460794 -1.7053737552
H 4.0504040135 1.141404065 0.778728779
H 3.3196544774 -0.9408927526 1.6409027525
H 4.0565676187 1.0621020588 -2.1021731832
H 6.3389961961 -0.0444760455 -1.7338137459
H 6.100145247 0.852223394 -0.200865682
H 6.1852523131 -2.0938286758 -0.5165412917
H 5.7203520675 -1.2357345896 0.9835342946
H 3.769022893 -2.7357469117 -0.4394684665
O -0.7569342701 0.6561118418 0.5676985383
C -1.6462734705 -3.47437475 1.4070479383
C -3.6058245125 -0.76760027 -1.2709935479
C -4.9462211941 -0.2230427088 -1.8945367794
C -4.6997771812 1.3306163824 -1.8210141926
C -3.2227669918 1.3873744469 -1.264721501
O -2.590005144 0.1647926003 -1.8181468044
H -4.6526968749 -0.5659522225 0.6755049997
H -3.9415981472 1.7146401686 0.8564213023
H -2.0243895725 -3.5378770918 2.4464907494
H -3.3438268475 -1.8154525879 -1.5115226137
H -5.0502376908 -0.5639191006 -2.937059375
H -5.8336773062 -0.5432271454 -1.3259047089
H -4.7572475303 1.7993374233 -2.8161345474
H -5.4085284238 1.8408467661 -1.1491195758
H -2.6442389694 2.2854768944 -1.5564600407
H -0.6075671498 -3.0645044276 1.4051765998
H -1.6659635976 -4.4759455532 0.9404553127
H 0.0566834219 -1.943057283 -2.3303425069
H -0.8962075755 -0.641734459 -1.4876705954
H -0.4939416397 -2.1795231288 -0.6234314285
H 0.2569967483 2.9498245879 0.0689394919
H 1.0431544292 4.065736443 1.247837961
H -0.0431453107 1.7119415099 2.699558067
H -0.4515994228 3.4556090629 2.9618354699
$end

$rem
JOBTYPE                   OPT
METHOD                    B3LYP
DFT_D                     d3_op
BASIS                     STO-3G
GEOM_OPT_MAX_CYCLES       100
GEOM_OPT_TOL_GRADIENT     300
GEOM_OPT_TOL_DISPLACEMENT 1200
GEOM_OPT_TOL_ENERGY       100
SYMMETRY                  False
THRESH                    12
SCF_CONVERGENCE           8
MAX_SUB_FILE_NUM          128
MEM_STATIC                400
MEM_TOTAL                 4000
$end
--------------------------------------------------------------

   15   -1510.2901647053      9.09E-09 Convergence criterion met
 Total energy in the final basis set = -1510.29016471
   15   -1510.2674088149      7.86E-09 Convergence criterion met
 Total energy in the final basis set = -1510.26740881
   14   -1510.2753626439      7.89E-09 Convergence criterion met
 Total energy in the final basis set = -1510.27536264
   14   -1510.2813978880      9.65E-09 Convergence criterion met
 Total energy in the final basis set = -1510.28139789
   15   -1510.2843816864      3.60E-09 Convergence criterion met
 Total energy in the final basis set = -1510.28438169
   15   -1510.0618204454      9.82E-09 Convergence criterion met
 Total energy in the final basis set = -1510.06182045
   16   -1510.2777359995      2.02E-09 Convergence criterion met
 Total energy in the final basis set = -1510.27773600
   16   -1510.2794235598      2.25E-09 Convergence criterion met
    9   -1510.2947327655      4.99E-09 Convergence criterion met
 Total energy in the final basis set = -1510.29473277
    9   -1510.2947331346      7.34E-09 Convergence criterion met
 Total energy in the final basis set = -1510.29473313
   10   -1510.2947318504      8.56E-09 Convergence criterion met
 Total energy in the final basis set = -1510.29473185
   10   -1510.2947220928      9.47E-09 Convergence criterion met
 Total energy in the final basis set = -1510.29472209
   11   -1510.2947113813      7.78E-09 Convergence criterion met
 Total energy in the final basis set = -1510.29471138
    9   -1510.2947093125      9.79E-09 Convergence criterion met
 Total energy in the final basis set = -1510.29470931

             Standard Nuclear Orientation (Angstroms)
    I     Atom           X                Y                Z
 ----------------------------------------------------------------
    1      O       2.3721338913     0.7977776240     2.5229103805
    2      C       2.7859955145     1.2595255465     1.4357138241
    3      C       3.6897218333     0.4849294030     0.4033961955
    4      C       3.1222067321    -0.9618009639     0.0719674824
    5      C       1.7267075317    -1.2465058438     0.7216278997
    6      O       1.8076660890    -2.4892233547     1.4300606723
    7      C       0.5008857469    -2.8104602964     2.0488274451
    8      C      -0.5815169503    -3.2815212355     0.9939071053
    9      O      -1.8030641169    -2.4580588440     1.1231306315
   10      C      -1.9842533931    -1.6205721995    -0.0337141739
   11      C      -3.2959797317    -0.8039809369     0.2042392258
   12      C      -3.1153081080     0.7615616381     0.4154837082
   13      C      -1.6527165212     1.3265437839     0.3076843922
   14      O      -1.0072436446     1.8277511043     1.2599220171
   15      O       2.5167579353     2.5756610796     0.9659108627
   16      O      -1.2446243974     1.2714636802    -1.0465581311
   17      O      -1.2376176060    -1.6390244569    -1.0350898548
   18      C       0.0595252582     1.9436035947    -1.2706491972
   19      C      -4.2532068977    -0.8265630335    -1.0675758664
   20      C      -5.7090711886    -0.4458562480    -0.5856659901
   21      C      -5.5514922327     1.1022098763    -0.3487016448
   22      C      -4.0390548067     1.3205834550    -0.7536722827
   23      O      -3.8284466908     0.3520507106    -1.8516800618
   24      H      -3.7930552966    -1.2477640075     1.0846534251
   25      H      -3.4967948961     1.0538236718     1.4098706614
   26      H      -4.1804123876    -1.7453470077    -1.6810392627
   27      H      -6.4448714014    -0.6606964912    -1.3769234865
   28      H      -6.0010083399    -0.9902437490     0.3263644205
   29      H      -6.2146517497     1.6822284698    -1.0101643984
   30      H      -5.7476080448     1.3965904057     0.6946239273
   31      H      -3.7837774324     2.3445740778    -1.0877556605
   32      O       0.6882307634    -0.5572088090     0.6274173521
   33      C       1.5421321042     3.2399364416     1.8703681294
   34      C       3.7358378814     1.1328185768    -1.0402975871
   35      C       4.9589330850     0.5207371856    -1.8265580093
   36      C       4.4247541533    -0.9257926191    -2.1477493989
   37      C       2.9838667261    -0.8713341166    -1.5081966617
   38      O       2.5654944464     0.5322139905    -1.7267580548
   39      H       4.7045678780     0.4051070144     0.8352831034
   40      H       3.8208941512    -1.7589741464     0.3790306006
   41      H       1.8737505489     3.1907350873     2.9263143846
   42      H       3.6585192155     2.2365010129    -1.0438490110
   43      H       5.1504203075     1.0931062479    -2.7482479351
   44      H       5.8782110188     0.5099301228    -1.2194195451
   45      H       4.3573133168    -1.0998622001    -3.2334124808
   46      H       5.0449068747    -1.7184820750    -1.6997503526
   47      H       2.2405725972    -1.5655062875    -1.9465684584
   48      H       0.5416487708     2.7544054727     1.7615149954
   49      H       1.4975337092     4.2939684900     1.5412172223
   50      H      -0.0108978641     2.4157631102    -2.2687498591
   51      H       0.9091897089     1.2159382108    -1.2724395120
   52      H       0.2413088266     2.7200252347    -0.5051986318
   53      H      -0.1867396760    -3.1754856979    -0.0411907114
   54      H      -0.8678995565    -4.3373173883     1.1770499468
   55      H       0.0956803008    -1.9285988626     2.5916092816
   56      H       0.7164417594    -3.6196748589     2.7736481431
 ----------------------------------------------------------------

    9   -1510.2947083561      3.63E-09 Convergence criterion met
 Total energy in the final basis set = -1510.29470836
 Final energy is   -1510.29470835613
 **  OPTIMIZATION CONVERGED  **

                    Orbital Energies (a.u.)
 --------------------------------------------------------------

 Alpha MOs
 -- Occupied --
-18.932 -18.925 -18.924 -18.922 -18.901 -18.884 -18.874 -18.871
-18.861 -18.861 -10.096 -10.094 -10.091 -10.090 -10.068 -10.065
-10.064 -10.061 -10.055 -10.054 -10.037 -10.036 -10.035 -10.032
-10.030 -10.024 -10.024 -10.022 -10.016 -10.015  -1.012  -1.003
 -1.000  -0.995  -0.978  -0.965  -0.936  -0.929  -0.924  -0.921
 -0.765  -0.757  -0.725  -0.719  -0.711  -0.704  -0.692  -0.647
 -0.639  -0.616  -0.592  -0.577  -0.547  -0.540  -0.538  -0.532
 -0.509  -0.506  -0.476  -0.467  -0.462  -0.454  -0.448  -0.438
 -0.435  -0.429  -0.427  -0.413  -0.406  -0.397  -0.392  -0.387
 -0.384  -0.374  -0.367  -0.360  -0.357  -0.354  -0.344  -0.341
 -0.336  -0.336  -0.332  -0.327  -0.325  -0.322  -0.319  -0.311
 -0.305  -0.302  -0.300  -0.296  -0.290  -0.283  -0.274  -0.273
 -0.269  -0.257  -0.244  -0.242  -0.237  -0.230  -0.229  -0.180
 -0.166  -0.166  -0.163  -0.152  -0.149  -0.147  -0.141  -0.139
 -0.137

          Ground-State Mulliken Net Atomic Charges

     Atom                 Charge (a.u.)
  ----------------------------------------
      1 O                    -0.217550
      2 C                     0.210592
      3 C                    -0.079439
      4 C                    -0.079986
      5 C                     0.212072
      6 O                    -0.171389
      7 C                    -0.051603
      8 C                    -0.057447
      9 O                    -0.175154
     10 C                     0.213987
     11 C                    -0.078308
     12 C                    -0.077608
     13 C                     0.218627
     14 O                    -0.221998
     15 O                    -0.173802
     16 O                    -0.159292
     17 O                    -0.203661
     18 C                    -0.145897
     19 C                     0.026713
     20 C                    -0.143895
     21 C                    -0.144573
     22 C                     0.027488
     23 O                    -0.182138
     24 H                     0.085715
     25 H                     0.083095
     26 H                     0.083095
     27 H                     0.077034
     28 H                     0.072953
     29 H                     0.076966
     30 H                     0.073126
     31 H                     0.083509
     32 O                    -0.211717
     33 C                    -0.146629
     34 C                     0.024466
     35 C                    -0.143396
     36 C                    -0.143441
     37 C                     0.027146
     38 O                    -0.184886
     39 H                     0.084137
     40 H                     0.087060
     41 H                     0.084064
     42 H                     0.095931
     43 H                     0.079219
     44 H                     0.074608
     45 H                     0.079858
     46 H                     0.075321
     47 H                     0.089332
     48 H                     0.118849
     49 H                     0.079461
     50 H                     0.078430
     51 H                     0.116696
     52 H                     0.082830
     53 H                     0.099644
     54 H                     0.083114
     55 H                     0.100061
     56 H                     0.088610
  ----------------------------------------
  Sum of atomic charges =    -0.000000

                    Cartesian Multipole Moments
 -----------------------------------------------------------------
    Charge (ESU x 10^10)
                -0.0000
    Dipole Moment (Debye)
         X       0.6876      Y      -1.0979      Z       0.2493
       Tot       1.3193
    Quadrupole Moments (Debye-Ang)
        XX    -137.3706     XY      -0.2036     YY    -149.1853
        XZ      -8.1099     YZ      -1.1924     ZZ    -167.2368

 Total job time:  137.25s(wall), 6429.24s(cpu)
        *  Thank you very much for using Q-Chem.  Have a nice day.  *
