 Q-Chem 5.0, Q-Chem, Inc., Pleasanton, CA (2017)
 Q-Chem 5.0.1 for Intel X86 EM64T Linux

User input:
--------------------------------------------------------------
$molecule
0  1
O -3.94934 -3.66094 2.70899
C -3.26408 -4.56952 2.26188
C -3.36658 -6.02376 2.66595
C -4.77583 -6.58685 2.91251
C -5.93515 -5.68318 2.5555
O -6.90998 -5.78116 3.50709
C -8.01438 -4.90052 3.27464
C -8.77558 -5.33057 2.02493
O -8.96529 -4.20334 1.1553
C -8.62704 -4.40464 -0.14247
C -8.85677 -3.18719 -1.00601
C -7.74889 -2.12603 -0.93674
C -6.44043 -2.57619 -0.31868
O -5.65768 -1.85745 0.2857
O -2.13979 -4.22621 1.57467
O -5.96278 -3.73219 -0.85864
O -8.35711 -5.50085 -0.62012
C -4.63464 -4.05427 -1.01497
C -8.86502 -3.46888 -2.52937
C -9.64792 -2.37097 -3.25019
C -8.69608 -1.20158 -3.10048
C -7.5035 -1.90518 -2.44292
O -7.55232 -3.21334 -2.95716
H -9.86601 -2.79461 -0.74532
H -8.06291 -1.19335 -0.4185
H -9.28205 -4.46471 -2.79462
H -9.68972 -2.65844 -4.32556
H -10.68113 -2.19196 -2.88246
H -8.43076 -0.83272 -4.11608
H -9.06789 -0.36259 -2.47316
H -6.56233 -1.34309 -2.6338
O -6.04018 -5.08618 1.49468
C -1.76396 -2.9316 1.27721
C -2.91058 -6.96145 1.51965
C -2.5252 -8.3315 2.0799
C -3.89004 -8.89753 2.39811
C -4.78191 -7.75483 1.90832
O -4.08703 -7.23471 0.80432
H -2.68154 -6.16077 3.53181
H -4.91104 -6.97288 3.94906
H -1.60434 -2.3557 2.21355
H -2.06296 -6.56595 0.92013
H -2.08214 -8.9284 1.25068
H -1.81202 -8.29671 2.93143
H -4.05524 -9.79671 1.76321
H -4.06443 -9.15223 3.46581
H -5.80851 -8.13304 1.70276
H -2.54121 -2.43192 0.66155
H -0.81426 -2.95173 0.70454
H -4.55528 -5.05965 -1.47648
H -4.13227 -4.07069 -0.0439
H -4.13963 -3.31222 -1.67654
H -8.31779 -6.23008 1.55639
H -9.7792 -5.68221 2.3481
H -7.65516 -3.84795 3.19931
H -8.69644 -4.94042 4.15106
$end

$opt
CONSTRAINT
tors           1           2           3           4     +38.887
tors           3           4           5           6    -139.562
tors           4           5           6           7    +176.957
tors           5           6           7           8     +67.519
tors           6           7           8           9    -129.856
tors           7           8           9          10    +130.831
tors           8           9          10          11    +179.655
tors           9          10          11          12     +81.044
tors          11          12          13          14    -150.420
ENDCONSTRAINT
$end

$rem
JOBTYPE                   OPT
METHOD                    B3LYP
DFT_D                     d3_op
BASIS                     STO-3G
GEOM_OPT_MAX_CYCLES       100
GEOM_OPT_TOL_GRADIENT     300
GEOM_OPT_TOL_DISPLACEMENT 1200
GEOM_OPT_TOL_ENERGY       100
SYMMETRY                  False
THRESH                    12
SCF_CONVERGENCE           8
MAX_SUB_FILE_NUM          128
MEM_STATIC                400
MEM_TOTAL                 4000
$end
--------------------------------------------------------------

   15   -1510.1441369626      8.03E-09 Convergence criterion met
 Total energy in the final basis set = -1510.14413696
   14   -1510.2147767399      6.96E-09 Convergence criterion met
 Total energy in the final basis set = -1510.21477674
   15   -1510.2513941534      2.16E-09 Convergence criterion met
 Total energy in the final basis set = -1510.25139415
   14   -1510.2694646012      9.96E-09 Convergence criterion met
 Total energy in the final basis set = -1510.26946460
   14   -1510.2624383456      5.81E-09 Convergence criterion met
 Total energy in the final basis set = -1510.26243835
   14   -1510.2792512749      9.30E-09 Convergence criterion met
 Total energy in the final basis set = -1510.27925127
   14   -1510.2763299576      5.69E-09 Convergence criterion met
 Total energy in the final basis set = -1510.27632996
   13   -1510.2824261030      5.31E-09 Convergence criterion met
   11   -1510.2900285942      7.16E-09 Convergence criterion met
 Total energy in the final basis set = -1510.29002859
   11   -1510.2900353034      4.43E-09 Convergence criterion met
 Total energy in the final basis set = -1510.29003530
    9   -1510.2900506803      9.93E-09 Convergence criterion met
 Total energy in the final basis set = -1510.29005068
   10   -1510.2900643318      8.91E-09 Convergence criterion met
 Total energy in the final basis set = -1510.29006433
    9   -1510.2900675127      6.06E-09 Convergence criterion met
 Total energy in the final basis set = -1510.29006751
    9   -1510.2900687882      4.64E-09 Convergence criterion met
 Total energy in the final basis set = -1510.29006879

             Standard Nuclear Orientation (Angstroms)
    I     Atom           X                Y                Z
 ----------------------------------------------------------------
    1      O      -2.2246145683    -1.0289993776     2.2936945675
    2      C      -2.6919137648    -1.3450194000     1.1771571364
    3      C      -3.6253323630    -0.4467930076     0.2827492013
    4      C      -3.2260965484     1.0866386831     0.2988798435
    5      C      -1.7736593695     1.3359373995     0.8256177871
    6      O      -1.7517539591     2.4958696112     1.6706598634
    7      C      -0.3758199142     2.6507063357     2.2049375076
    8      C       0.6845498501     3.0256359697     1.0927094832
    9      O       1.8469685025     2.1154368131     1.1866158822
   10      C       2.1533174247     1.5875370083    -0.1208674325
   11      C       3.3890752600     0.6458215375     0.0447522657
   12      C       3.0644999255    -0.8142653040     0.5745816169
   13      C       1.5938945327    -1.3240371535     0.3372266845
   14      O       0.9869564874    -2.1374180391     1.0746724091
   15      O      -2.5263649978    -2.6215459160     0.5646414715
   16      O       1.1561894661    -0.8427202620    -0.9210113353
   17      O       1.5521293798     1.9195764424    -1.1643304787
   18      C      -0.1284928453    -1.4417301723    -1.3600881471
   19      C       4.2015854749     0.3299343505    -1.2844148355
   20      C       5.6932124786     0.0580260519    -0.8467610846
   21      C       5.5253187046    -1.3177083894    -0.0979334344
   22      C       4.0084787958    -1.6552464699    -0.3971908369
   23      O       3.7459176824    -1.0144607940    -1.7053737552
   24      H       4.0504040135     1.1414040650     0.7787287790
   25      H       3.3196544774    -0.9408927526     1.6409027525
   26      H       4.0565676187     1.0621020588    -2.1021731832
   27      H       6.3389961961    -0.0444760455    -1.7338137459
   28      H       6.1001452470     0.8522233940    -0.2008656820
   29      H       6.1852523131    -2.0938286758    -0.5165412917
   30      H       5.7203520675    -1.2357345896     0.9835342946
   31      H       3.7690228930    -2.7357469117    -0.4394684665
   32      O      -0.7569342701     0.6561118418     0.5676985383
   33      C      -1.6462734705    -3.4743747500     1.4070479383
   34      C      -3.6058245125    -0.7676002700    -1.2709935479
   35      C      -4.9462211941    -0.2230427088    -1.8945367794
   36      C      -4.6997771812     1.3306163824    -1.8210141926
   37      C      -3.2227669918     1.3873744469    -1.2647215010
   38      O      -2.5900051440     0.1647926003    -1.8181468044
   39      H      -4.6526968749    -0.5659522225     0.6755049997
   40      H      -3.9415981472     1.7146401686     0.8564213023
   41      H      -2.0243895725    -3.5378770918     2.4464907494
   42      H      -3.3438268475    -1.8154525879    -1.5115226137
   43      H      -5.0502376908    -0.5639191006    -2.9370593750
   44      H      -5.8336773062    -0.5432271454    -1.3259047089
   45      H      -4.7572475303     1.7993374233    -2.8161345474
   46      H      -5.4085284238     1.8408467661    -1.1491195758
   47      H      -2.6442389694     2.2854768944    -1.5564600407
   48      H      -0.6075671498    -3.0645044276     1.4051765998
   49      H      -1.6659635976    -4.4759455532     0.9404553127
   50      H       0.0566834219    -1.9430572830    -2.3303425069
   51      H      -0.8962075755    -0.6417344590    -1.4876705954
   52      H      -0.4939416397    -2.1795231288    -0.6234314285
   53      H       0.2569967483     2.9498245879     0.0689394919
   54      H       1.0431544292     4.0657364430     1.2478379610
   55      H      -0.0431453107     1.7119415099     2.6995580670
   56      H      -0.4515994228     3.4556090629     2.9618354699
 ----------------------------------------------------------------

    9   -1510.2900690433      4.69E-09 Convergence criterion met
 Total energy in the final basis set = -1510.29006904
 Final energy is   -1510.29006904328
 **  OPTIMIZATION CONVERGED  **

                    Orbital Energies (a.u.)
 --------------------------------------------------------------

 Alpha MOs
 -- Occupied --
-18.933 -18.926 -18.923 -18.922 -18.901 -18.883 -18.873 -18.871
-18.864 -18.861 -10.097 -10.094 -10.093 -10.091 -10.068 -10.066
-10.062 -10.060 -10.055 -10.054 -10.040 -10.037 -10.037 -10.032
-10.031 -10.025 -10.024 -10.023 -10.017 -10.016  -1.014  -1.003
 -1.001  -0.995  -0.978  -0.964  -0.935  -0.929  -0.926  -0.921
 -0.766  -0.758  -0.726  -0.719  -0.712  -0.703  -0.691  -0.648
 -0.639  -0.615  -0.593  -0.577  -0.548  -0.541  -0.539  -0.532
 -0.510  -0.504  -0.476  -0.469  -0.461  -0.453  -0.451  -0.439
 -0.434  -0.428  -0.426  -0.418  -0.406  -0.397  -0.391  -0.387
 -0.386  -0.373  -0.368  -0.360  -0.359  -0.356  -0.348  -0.341
 -0.338  -0.335  -0.332  -0.326  -0.324  -0.321  -0.318  -0.313
 -0.306  -0.302  -0.300  -0.295  -0.290  -0.285  -0.278  -0.273
 -0.266  -0.258  -0.244  -0.242  -0.240  -0.229  -0.227  -0.181
 -0.167  -0.165  -0.163  -0.152  -0.150  -0.149  -0.142  -0.141
 -0.136

          Ground-State Mulliken Net Atomic Charges

     Atom                 Charge (a.u.)
  ----------------------------------------
      1 O                    -0.216129
      2 C                     0.211474
      3 C                    -0.079441
      4 C                    -0.079374
      5 C                     0.211796
      6 O                    -0.169965
      7 C                    -0.050829
      8 C                    -0.056797
      9 O                    -0.175297
     10 C                     0.218355
     11 C                    -0.078292
     12 C                    -0.075092
     13 C                     0.219528
     14 O                    -0.226362
     15 O                    -0.175220
     16 O                    -0.158674
     17 O                    -0.205248
     18 C                    -0.145575
     19 C                     0.026312
     20 C                    -0.142238
     21 C                    -0.145133
     22 C                     0.024808
     23 O                    -0.184867
     24 H                     0.083565
     25 H                     0.085211
     26 H                     0.088282
     27 H                     0.077113
     28 H                     0.072400
     29 H                     0.077334
     30 H                     0.073390
     31 H                     0.081709
     32 O                    -0.212934
     33 C                    -0.146996
     34 C                     0.024150
     35 C                    -0.142529
     36 C                    -0.144100
     37 C                     0.026814
     38 O                    -0.185973
     39 H                     0.084129
     40 H                     0.088174
     41 H                     0.083192
     42 H                     0.095767
     43 H                     0.079555
     44 H                     0.074934
     45 H                     0.079902
     46 H                     0.075347
     47 H                     0.085650
     48 H                     0.118541
     49 H                     0.081010
     50 H                     0.077203
     51 H                     0.113941
     52 H                     0.089297
     53 H                     0.102769
     54 H                     0.078189
     55 H                     0.099130
     56 H                     0.088092
  ----------------------------------------
  Sum of atomic charges =    -0.000000

                    Cartesian Multipole Moments
 -----------------------------------------------------------------
    Charge (ESU x 10^10)
                -0.0000
    Dipole Moment (Debye)
         X      -0.8871      Y       1.0840      Z       0.5138
       Tot       1.4919
    Quadrupole Moments (Debye-Ang)
        XX    -135.6794     XY      -0.3670     YY    -152.1779
        XZ       7.3387     YZ       2.2612     ZZ    -166.4953

 Total job time:  95.97s(wall), 4578.45s(cpu)
        *  Thank you very much for using Q-Chem.  Have a nice day.  *
