 Q-Chem 5.0, Q-Chem, Inc., Pleasanton, CA (2017)
 Q-Chem 5.0.1 for Intel X86 EM64T Linux

User input:
--------------------------------------------------------------
$molecule
0  1
O -2.225205209 -1.2743043534 2.347961785
C -2.6357001231 -1.5110056153 1.1912935386
C -3.5733310618 -0.5802907507 0.335099464
C -3.257310112 0.9616349069 0.4836704146
C -1.7866726845 1.2728709956 0.9278757076
O -1.7492856219 2.594815145 1.4863667674
C -0.3860970387 2.8531696929 2.0077809555
C 0.6780645838 3.1275221015 0.871021668
O 1.8410539541 2.2253266051 1.019320511
C 2.1261518635 1.596972593 -0.248677334
C 3.3636175511 0.6671037464 -0.0327071172
C 3.0445935606 -0.7467720311 0.6123764962
C 1.5706070558 -1.2604170037 0.399023434
O 0.9390994433 -2.0085943303 1.181156173
O -2.3957665099 -2.7291725583 0.4846090435
O 1.1594263354 -0.8384012818 -0.8892983433
O 1.5100652418 1.856164626 -1.3043358802
C -0.1551126794 -1.3771906834 -1.3092262696
C 4.1655736858 0.2486155397 -1.3396166939
C 5.6617899521 0.0195605939 -0.8931269831
C 5.5059055885 -1.2884273933 -0.0295562192
C 3.9894971209 -1.658903771 -0.2911706823
O 3.7164354883 -1.1287399685 -1.6464824389
H 4.0334820145 1.2172037505 0.6533944616
H 3.294906246 -0.7908868113 1.6863114639
H 4.0106600878 0.9115021556 -2.2127249471
H 6.3006268759 -0.1552643155 -1.773887848
H 6.0711896173 0.8663611909 -0.3196632036
H 6.1687900694 -2.0932734839 -0.3844178091
H 5.7049173565 -1.1143008011 1.040206266
H 3.7564094204 -2.7405752616 -0.2439991961
O -0.7771360091 0.5483551268 0.8027691147
C -1.537506693 -3.6241330734 1.3060713823
C -3.5445445997 -0.7727101449 -1.2394316974
C -4.936703971 -0.2947662104 -1.8006687416
C -4.8287560312 1.259532913 -1.5716166489
C -3.3449161874 1.3983293107 -1.0483561213
O -2.6237777618 0.2870358447 -1.7201258397
H -4.5996171464 -0.7697648841 0.7036675524
H -3.9725216849 1.4983914413 1.1298299892
H -1.9871583758 -3.810824408 2.3011986872
H -3.2018795732 -1.7715998001 -1.5697779502
H -5.0216575259 -0.5378094299 -2.8720307935
H -5.7848278628 -0.7499251511 -1.2649020408
H -4.9629075796 1.8200798301 -2.5103320101
H -5.5569009328 1.6299954166 -0.8321087985
H -2.8570341175 2.3669636735 -1.2723435306
H -0.5283184792 -3.1634881048 1.4224379045
H -1.4686408214 -4.5721572718 0.742445989
H -0.873099561 -0.5381860809 -1.4626551237
H -0.5761000732 -2.0696485194 -0.5577322529
H -0.0005741098 -1.9128536976 -2.2664234473
H 0.2412879291 2.9724529856 -0.1410264377
H 1.0396395817 4.1756796389 0.9395257979
H -0.0318710787 1.994792401 2.6192853113
H -0.4941836659 3.7440242238 2.6572226466
$end

$rem
JOBTYPE                   OPT
METHOD                    B3LYP
DFT_D                     d3_op
BASIS                     STO-3G
GEOM_OPT_MAX_CYCLES       100
GEOM_OPT_TOL_GRADIENT     300
GEOM_OPT_TOL_DISPLACEMENT 1200
GEOM_OPT_TOL_ENERGY       100
SYMMETRY                  False
THRESH                    12
SCF_CONVERGENCE           8
MAX_SUB_FILE_NUM          128
MEM_STATIC                400
MEM_TOTAL                 4000
$end
--------------------------------------------------------------

   16   -1510.2882998864      7.21E-09 Convergence criterion met
 Total energy in the final basis set = -1510.28829989
   15   -1510.2722360853      5.58E-09 Convergence criterion met
 Total energy in the final basis set = -1510.27223609
   14   -1510.2723726573      4.86E-09 Convergence criterion met
 Total energy in the final basis set = -1510.27237266
   14   -1510.2815002598      8.57E-09 Convergence criterion met
 Total energy in the final basis set = -1510.28150026
   15   -1510.2729983015      5.90E-09 Convergence criterion met
 Total energy in the final basis set = -1510.27299830
   16   -1510.2687493850      1.90E-09 Convergence criterion met
 Total energy in the final basis set = -1510.26874938
   14   -1510.2787816924      7.46E-09 Convergence criterion met
 Total energy in the final basis set = -1510.27878169
   14   -1510.2784047183      2.57E-09 Convergence criterion met
   11   -1510.2948425212      6.34E-09 Convergence criterion met
 Total energy in the final basis set = -1510.29484252
    9   -1510.2948399097      7.54E-09 Convergence criterion met
 Total energy in the final basis set = -1510.29483991
   10   -1510.2948347267      7.29E-09 Convergence criterion met
 Total energy in the final basis set = -1510.29483473
   11   -1510.2948334897      3.10E-09 Convergence criterion met
 Total energy in the final basis set = -1510.29483349
   10   -1510.2948315387      9.52E-09 Convergence criterion met
 Total energy in the final basis set = -1510.29483154
    9   -1510.2948313221      5.29E-09 Convergence criterion met
 Total energy in the final basis set = -1510.29483132

             Standard Nuclear Orientation (Angstroms)
    I     Atom           X                Y                Z
 ----------------------------------------------------------------
    1      O      -2.1998238458    -0.7499963506     2.3452255338
    2      C      -2.7280899806    -1.2510364676     1.3266450856
    3      C      -3.6665321824    -0.4853347696     0.3205363832
    4      C      -3.1192389091     0.9703584465    -0.0082286295
    5      C      -1.7207209561     1.2500720654     0.6411849250
    6      O      -1.8486205193     2.3613929108     1.5350392703
    7      C      -0.5597194981     2.6072611702     2.2222926808
    8      C       0.5576804184     3.2006186436     1.2707811847
    9      O       1.7704084371     2.3561194531     1.3382143370
   10      C       2.0273985735     1.7167924117     0.0753838979
   11      C       3.3163771659     0.8517492121     0.2652866722
   12      C       3.0951401583    -0.7168028150     0.4154831674
   13      C       1.6240628257    -1.2534407642     0.2698875033
   14      O       0.9436725187    -1.7426034165     1.2039515760
   15      O      -2.5650827211    -2.6043017833     0.9190312668
   16      O       1.2529972330    -1.2017478586    -1.0959058640
   17      O       1.3563807746     1.9096717174    -0.9605863279
   18      C      -0.0425275701    -1.8792546095    -1.3531017302
   19      C       4.2693765965     0.9009694228    -1.0076398714
   20      C       5.7190563040     0.4804044804    -0.5416598588
   21      C       5.5320741608    -1.0700864609    -0.3463089929
   22      C       4.0181391276    -1.2514785982    -0.7648542897
   23      O       3.8261197125    -0.2441547211    -1.8308312795
   24      H       3.8297128748     1.2398183665     1.1624440505
   25      H       3.4575588565    -1.0542873984     1.4028806348
   26      H       4.2084514485     1.8407401696    -1.5897209641
   27      H       6.4561842008     0.7020947584    -1.3297766339
   28      H       6.0245843042     0.9943375672     0.3834446822
   29      H       6.1889039654    -1.6448244846    -1.0185149914
   30      H       5.7161803231    -1.3947340945     0.6902009603
   31      H       3.7488959695    -2.2599189219    -1.1334258971
   32      O      -0.6493211909     0.6457495370     0.4197694280
   33      C      -1.5575727833    -3.2672348352     1.7879375966
   34      C      -3.7241239888    -1.1256567437    -1.1261854372
   35      C      -4.9626548372    -0.5227844984    -1.8945698884
   36      C      -4.4483895897     0.9320962527    -2.2110154371
   37      C      -2.9993626391     0.8901054258    -1.5885255203
   38      O      -2.5681830011    -0.5080694500    -1.8216395774
   39      H      -4.6752515136    -0.4265236877     0.7699766708
   40      H      -3.8230827577     1.7560312211     0.3161625028
   41      H      -1.8703070174    -3.2528740296     2.8510498280
   42      H      -3.6353685782    -2.2286641714    -1.1355992525
   43      H      -5.1571406045    -1.0910648557    -2.8181771932
   44      H      -5.8753960501    -0.5272654284    -1.2775665674
   45      H      -4.3961295645     1.1147988738    -3.2960546274
   46      H      -5.0728487660     1.7139231373    -1.7500078389
   47      H      -2.2690791419     1.5944582310    -2.0320954727
   48      H      -0.5693670106    -2.7582204114     1.6759815662
   49      H      -1.4995291208    -4.3122537774     1.4329161768
   50      H      -0.8995446780    -1.1602366186    -1.3581674206
   51      H      -0.2308820301    -2.6714767726    -0.6050170867
   52      H       0.0499515768    -2.3337139388    -2.3575947516
   53      H       0.2015245437     3.2315988664     0.2170345222
   54      H       0.8404282714     4.2226791044     1.5970313200
   55      H      -0.1722304012     1.6649720433     2.6687498854
   56      H      -0.8012881505     3.3219851562     3.0332496883
 ----------------------------------------------------------------

    9   -1510.2948311628      2.97E-09 Convergence criterion met
 Total energy in the final basis set = -1510.29483116
 Final energy is   -1510.29483116278
 **  OPTIMIZATION CONVERGED  **

                    Orbital Energies (a.u.)
 --------------------------------------------------------------

 Alpha MOs
 -- Occupied --
-18.930 -18.928 -18.924 -18.922 -18.901 -18.882 -18.872 -18.868
-18.865 -18.861 -10.095 -10.093 -10.093 -10.090 -10.066 -10.065
-10.062 -10.062 -10.054 -10.053 -10.038 -10.038 -10.036 -10.031
-10.029 -10.025 -10.024 -10.023 -10.016 -10.014  -1.011  -1.004
 -0.999  -0.995  -0.978  -0.963  -0.934  -0.929  -0.926  -0.921
 -0.765  -0.756  -0.725  -0.718  -0.711  -0.703  -0.691  -0.649
 -0.639  -0.615  -0.592  -0.576  -0.547  -0.540  -0.537  -0.532
 -0.509  -0.505  -0.476  -0.466  -0.462  -0.452  -0.450  -0.438
 -0.434  -0.428  -0.426  -0.413  -0.407  -0.396  -0.392  -0.386
 -0.385  -0.373  -0.367  -0.361  -0.357  -0.353  -0.344  -0.342
 -0.336  -0.335  -0.332  -0.326  -0.325  -0.321  -0.318  -0.312
 -0.305  -0.301  -0.298  -0.296  -0.290  -0.282  -0.274  -0.272
 -0.268  -0.255  -0.246  -0.240  -0.237  -0.230  -0.228  -0.178
 -0.168  -0.165  -0.162  -0.151  -0.149  -0.147  -0.142  -0.139
 -0.136

          Ground-State Mulliken Net Atomic Charges

     Atom                 Charge (a.u.)
  ----------------------------------------
      1 O                    -0.215167
      2 C                     0.211005
      3 C                    -0.079307
      4 C                    -0.080357
      5 C                     0.212595
      6 O                    -0.171124
      7 C                    -0.050871
      8 C                    -0.056893
      9 O                    -0.175049
     10 C                     0.215388
     11 C                    -0.078289
     12 C                    -0.077258
     13 C                     0.218975
     14 O                    -0.222916
     15 O                    -0.173316
     16 O                    -0.159529
     17 O                    -0.204520
     18 C                    -0.145831
     19 C                     0.026410
     20 C                    -0.143892
     21 C                    -0.144798
     22 C                     0.027436
     23 O                    -0.182275
     24 H                     0.085269
     25 H                     0.082916
     26 H                     0.083923
     27 H                     0.076865
     28 H                     0.072609
     29 H                     0.076775
     30 H                     0.072781
     31 H                     0.083361
     32 O                    -0.214364
     33 C                    -0.145486
     34 C                     0.024236
     35 C                    -0.143344
     36 C                    -0.143496
     37 C                     0.026897
     38 O                    -0.185233
     39 H                     0.084576
     40 H                     0.086616
     41 H                     0.082771
     42 H                     0.095563
     43 H                     0.079290
     44 H                     0.074632
     45 H                     0.079849
     46 H                     0.075256
     47 H                     0.089746
     48 H                     0.119224
     49 H                     0.080439
     50 H                     0.116790
     51 H                     0.080928
     52 H                     0.078664
     53 H                     0.100412
     54 H                     0.082187
     55 H                     0.100877
     56 H                     0.088054
  ----------------------------------------
  Sum of atomic charges =    -0.000000

                    Cartesian Multipole Moments
 -----------------------------------------------------------------
    Charge (ESU x 10^10)
                -0.0000
    Dipole Moment (Debye)
         X      -0.9236      Y       0.6819      Z       0.5909
       Tot       1.2912
    Quadrupole Moments (Debye-Ang)
        XX    -137.3069     XY      -0.5491     YY    -149.6658
        XZ       8.0492     YZ       1.7442     ZZ    -166.1135

 Total job time:  131.30s(wall), 6263.63s(cpu)
        *  Thank you very much for using Q-Chem.  Have a nice day.  *
