 Q-Chem 5.0, Q-Chem, Inc., Pleasanton, CA (2017)
 Q-Chem 5.0.1 for Intel X86 EM64T Linux

User input:
--------------------------------------------------------------
$molecule
0  1
O -3.94934 -3.66094 2.70899
C -3.26408 -4.56952 2.26188
C -3.36658 -6.02376 2.66595
C -4.77583 -6.58685 2.91251
C -5.93515 -5.68318 2.5555
O -7.05825 -6.08431 3.22121
C -8.17626 -5.2145 3.01449
C -8.75593 -5.42599 1.61972
O -8.83507 -4.17027 0.92705
C -8.31255 -4.16067 -0.32436
C -8.4334 -2.81654 -1.00212
C -7.36128 -1.79187 -0.60353
C -6.14828 -2.34967 0.11355
O -5.46956 -1.74683 0.93238
O -2.07316 -4.22858 1.69556
O -5.59878 -3.41008 -0.54547
O -7.96282 -5.16762 -0.92961
C -4.262 -3.70648 -0.68709
C -8.22381 -2.84367 -2.53675
C -8.91295 -1.63433 -3.1699
C -8.00744 -0.51479 -2.69771
C -6.90949 -1.32863 -2.00348
O -6.86787 -2.53347 -2.72797
H -9.47445 -2.4619 -0.8257
H -7.75848 -0.95354 0.01007
H -8.58567 -3.77833 -3.01776
H -8.80004 -1.74007 -4.27299
H -9.98979 -1.50826 -2.92629
H -7.60711 0.01342 -3.59135
H -8.47501 0.21331 -1.9999
H -5.95859 -0.75211 -1.96468
O -5.96702 -5.00496 1.54205
C -1.51602 -2.9642 1.72192
C -2.91152 -6.96365 1.52183
C -2.51568 -8.32786 2.08831
C -3.8756 -8.89626 2.42661
C -4.77798 -7.76682 1.92399
O -4.08949 -7.25226 0.81359
H -2.68351 -6.16146 3.5336
H -4.9153 -6.93996 3.95969
H -1.30358 -2.6698 2.77152
H -2.07096 -6.56235 0.91583
H -2.0817 -8.92692 1.25585
H -1.79143 -8.28915 2.93029
H -4.03795 -9.81034 1.81281
H -4.04231 -9.12733 3.50099
H -5.80251 -8.15341 1.72515
H -2.19133 -2.21121 1.27083
H -0.56175 -2.97609 1.15663
H -4.05542 -4.71062 -0.27246
H -3.62147 -2.94125 -0.21927
H -4.01759 -3.73176 -1.7686
H -8.23385 -6.25231 1.08667
H -9.7989 -5.79125 1.74149
H -7.91731 -4.15107 3.22504
H -8.95422 -5.49694 3.75643
$end

$opt
CONSTRAINT
tors           1           2           3           4     +38.887
tors           3           4           5           6    -159.387
tors           4           5           6           7    +175.477
tors           5           6           7           8     +74.678
tors           6           7           8           9    -126.622
tors           7           8           9          10    +130.383
tors           8           9          10          11    +179.655
tors           9          10          11          12     +81.044
tors          11          12          13          14    -150.420
ENDCONSTRAINT
$end

$rem
JOBTYPE                   OPT
METHOD                    B3LYP
DFT_D                     d3_op
BASIS                     STO-3G
GEOM_OPT_MAX_CYCLES       100
GEOM_OPT_TOL_GRADIENT     300
GEOM_OPT_TOL_DISPLACEMENT 1200
GEOM_OPT_TOL_ENERGY       100
SYMMETRY                  False
THRESH                    12
SCF_CONVERGENCE           8
MAX_SUB_FILE_NUM          128
MEM_STATIC                400
MEM_TOTAL                 4000
$end
--------------------------------------------------------------

   16   -1510.1327622350      1.83E-09 Convergence criterion met
 Total energy in the final basis set = -1510.13276223
   14   -1510.2024020013      5.10E-09 Convergence criterion met
 Total energy in the final basis set = -1510.20240200
   15   -1510.2328387609      3.55E-09 Convergence criterion met
 Total energy in the final basis set = -1510.23283876
   15   -1510.2604509792      1.45E-09 Convergence criterion met
 Total energy in the final basis set = -1510.26045098
   14   -1510.2719532450      6.12E-09 Convergence criterion met
 Total energy in the final basis set = -1510.27195325
   13   -1510.2770716734      9.27E-09 Convergence criterion met
 Total energy in the final basis set = -1510.27707167
   13   -1510.2822223783      7.05E-09 Convergence criterion met
 Total energy in the final basis set = -1510.28222238
   13   -1510.2789577325      7.62E-09 Convergence criterion met
   10   -1510.2882914590      8.41E-09 Convergence criterion met
 Total energy in the final basis set = -1510.28829146
   10   -1510.2883087989      4.45E-09 Convergence criterion met
 Total energy in the final basis set = -1510.28830880
    9   -1510.2883165558      8.15E-09 Convergence criterion met
 Total energy in the final basis set = -1510.28831656
    9   -1510.2883219870      6.65E-09 Convergence criterion met
 Total energy in the final basis set = -1510.28832199
    9   -1510.2883244646      4.13E-09 Convergence criterion met
 Total energy in the final basis set = -1510.28832446
    9   -1510.2883255064      3.18E-09 Convergence criterion met
 Total energy in the final basis set = -1510.28832551

             Standard Nuclear Orientation (Angstroms)
    I     Atom           X                Y                Z
 ----------------------------------------------------------------
    1      O      -2.2252052090    -1.2743043534     2.3479617850
    2      C      -2.6357001231    -1.5110056153     1.1912935386
    3      C      -3.5733310618    -0.5802907507     0.3350994640
    4      C      -3.2573101120     0.9616349069     0.4836704146
    5      C      -1.7866726845     1.2728709956     0.9278757076
    6      O      -1.7492856219     2.5948151450     1.4863667674
    7      C      -0.3860970387     2.8531696929     2.0077809555
    8      C       0.6780645838     3.1275221015     0.8710216680
    9      O       1.8410539541     2.2253266051     1.0193205110
   10      C       2.1261518635     1.5969725930    -0.2486773340
   11      C       3.3636175511     0.6671037464    -0.0327071172
   12      C       3.0445935606    -0.7467720311     0.6123764962
   13      C       1.5706070558    -1.2604170037     0.3990234340
   14      O       0.9390994433    -2.0085943303     1.1811561730
   15      O      -2.3957665099    -2.7291725583     0.4846090435
   16      O       1.1594263354    -0.8384012818    -0.8892983433
   17      O       1.5100652418     1.8561646260    -1.3043358802
   18      C      -0.1551126794    -1.3771906834    -1.3092262696
   19      C       4.1655736858     0.2486155397    -1.3396166939
   20      C       5.6617899521     0.0195605939    -0.8931269831
   21      C       5.5059055885    -1.2884273933    -0.0295562192
   22      C       3.9894971209    -1.6589037710    -0.2911706823
   23      O       3.7164354883    -1.1287399685    -1.6464824389
   24      H       4.0334820145     1.2172037505     0.6533944616
   25      H       3.2949062460    -0.7908868113     1.6863114639
   26      H       4.0106600878     0.9115021556    -2.2127249471
   27      H       6.3006268759    -0.1552643155    -1.7738878480
   28      H       6.0711896173     0.8663611909    -0.3196632036
   29      H       6.1687900694    -2.0932734839    -0.3844178091
   30      H       5.7049173565    -1.1143008011     1.0402062660
   31      H       3.7564094204    -2.7405752616    -0.2439991961
   32      O      -0.7771360091     0.5483551268     0.8027691147
   33      C      -1.5375066930    -3.6241330734     1.3060713823
   34      C      -3.5445445997    -0.7727101449    -1.2394316974
   35      C      -4.9367039710    -0.2947662104    -1.8006687416
   36      C      -4.8287560312     1.2595329130    -1.5716166489
   37      C      -3.3449161874     1.3983293107    -1.0483561213
   38      O      -2.6237777618     0.2870358447    -1.7201258397
   39      H      -4.5996171464    -0.7697648841     0.7036675524
   40      H      -3.9725216849     1.4983914413     1.1298299892
   41      H      -1.9871583758    -3.8108244080     2.3011986872
   42      H      -3.2018795732    -1.7715998001    -1.5697779502
   43      H      -5.0216575259    -0.5378094299    -2.8720307935
   44      H      -5.7848278628    -0.7499251511    -1.2649020408
   45      H      -4.9629075796     1.8200798301    -2.5103320101
   46      H      -5.5569009328     1.6299954166    -0.8321087985
   47      H      -2.8570341175     2.3669636735    -1.2723435306
   48      H      -0.5283184792    -3.1634881048     1.4224379045
   49      H      -1.4686408214    -4.5721572718     0.7424459890
   50      H      -0.8730995610    -0.5381860809    -1.4626551237
   51      H      -0.5761000732    -2.0696485194    -0.5577322529
   52      H      -0.0005741098    -1.9128536976    -2.2664234473
   53      H       0.2412879291     2.9724529856    -0.1410264377
   54      H       1.0396395817     4.1756796389     0.9395257979
   55      H      -0.0318710787     1.9947924010     2.6192853113
   56      H      -0.4941836659     3.7440242238     2.6572226466
 ----------------------------------------------------------------

    8   -1510.2883255779      8.74E-09 Convergence criterion met
 Total energy in the final basis set = -1510.28832558
 Final energy is   -1510.28832557789
 **  OPTIMIZATION CONVERGED  **

                    Orbital Energies (a.u.)
 --------------------------------------------------------------

 Alpha MOs
 -- Occupied --
-18.933 -18.924 -18.924 -18.921 -18.898 -18.882 -18.877 -18.873
-18.864 -18.861 -10.099 -10.094 -10.092 -10.091 -10.070 -10.066
-10.062 -10.061 -10.055 -10.054 -10.040 -10.037 -10.037 -10.032
-10.030 -10.026 -10.025 -10.023 -10.017 -10.016  -1.015  -1.004
 -1.001  -0.994  -0.977  -0.964  -0.938  -0.930  -0.925  -0.922
 -0.766  -0.758  -0.727  -0.719  -0.712  -0.703  -0.692  -0.648
 -0.640  -0.616  -0.593  -0.577  -0.547  -0.541  -0.539  -0.532
 -0.511  -0.504  -0.477  -0.470  -0.460  -0.453  -0.451  -0.439
 -0.435  -0.428  -0.426  -0.418  -0.405  -0.399  -0.392  -0.386
 -0.385  -0.375  -0.369  -0.360  -0.357  -0.356  -0.347  -0.340
 -0.338  -0.335  -0.331  -0.325  -0.323  -0.320  -0.317  -0.313
 -0.305  -0.302  -0.300  -0.299  -0.293  -0.284  -0.279  -0.272
 -0.266  -0.257  -0.244  -0.242  -0.240  -0.229  -0.227  -0.184
 -0.166  -0.165  -0.163  -0.153  -0.151  -0.149  -0.141  -0.141
 -0.135

          Ground-State Mulliken Net Atomic Charges

     Atom                 Charge (a.u.)
  ----------------------------------------
      1 O                    -0.213723
      2 C                     0.213033
      3 C                    -0.080226
      4 C                    -0.078082
      5 C                     0.213444
      6 O                    -0.173104
      7 C                    -0.051318
      8 C                    -0.058232
      9 O                    -0.175239
     10 C                     0.217774
     11 C                    -0.077931
     12 C                    -0.075173
     13 C                     0.220857
     14 O                    -0.223553
     15 O                    -0.176181
     16 O                    -0.161282
     17 O                    -0.205726
     18 C                    -0.145213
     19 C                     0.026400
     20 C                    -0.142076
     21 C                    -0.145191
     22 C                     0.024555
     23 O                    -0.184952
     24 H                     0.083334
     25 H                     0.085387
     26 H                     0.088312
     27 H                     0.077116
     28 H                     0.072349
     29 H                     0.077274
     30 H                     0.073378
     31 H                     0.081638
     32 O                    -0.209156
     33 C                    -0.146249
     34 C                     0.023880
     35 C                    -0.142006
     36 C                    -0.144394
     37 C                     0.025894
     38 O                    -0.188246
     39 H                     0.083439
     40 H                     0.089173
     41 H                     0.082645
     42 H                     0.095200
     43 H                     0.079388
     44 H                     0.074837
     45 H                     0.079804
     46 H                     0.075281
     47 H                     0.085390
     48 H                     0.118727
     49 H                     0.080884
     50 H                     0.108244
     51 H                     0.093564
     52 H                     0.077588
     53 H                     0.102556
     54 H                     0.079097
     55 H                     0.098829
     56 H                     0.087982
  ----------------------------------------
  Sum of atomic charges =    -0.000000

                    Cartesian Multipole Moments
 -----------------------------------------------------------------
    Charge (ESU x 10^10)
                 0.0000
    Dipole Moment (Debye)
         X      -0.8594      Y       1.1810      Z       0.4807
       Tot       1.5377
    Quadrupole Moments (Debye-Ang)
        XX    -135.6548     XY       0.0868     YY    -151.6031
        XZ       6.4986     YZ       2.8998     ZZ    -167.3358

 Total job time:  79.17s(wall), 3356.04s(cpu)
        *  Thank you very much for using Q-Chem.  Have a nice day.  *
