 Q-Chem 5.0, Q-Chem, Inc., Pleasanton, CA (2017)
 Q-Chem 5.0.1 for Intel X86 EM64T Linux

User input:
--------------------------------------------------------------
$molecule
0  1
O -2.1825114004 -1.0303267 2.2885998565
C -2.6540800641 -1.3620568669 1.1785796636
C -3.5831202097 -0.4726338915 0.2714672569
C -3.1566026311 1.05204797 0.2277349702
C -1.7081913986 1.3204367551 0.7628756724
O -1.7254857925 2.5204466924 1.5432765773
C -0.3824141124 2.7590299489 2.1231692534
C 0.7364956463 3.0755535672 1.0515329122
O 1.8450725321 2.0978351664 1.1280377866
C 2.1933224045 1.6300040985 -0.1900992893
C 3.3713872688 0.6147469326 -0.0117880869
C 3.0227840414 -0.7815265354 0.6431762556
C 1.5579522479 -1.2981833686 0.3992445403
O 0.9528268932 -2.1177275206 1.1306448861
O -2.5088789049 -2.6531057911 0.5919703532
O 1.1325156134 -0.8265413283 -0.8674856917
O 1.661151662 2.0409241737 -1.2425605366
C -0.1114039454 -1.483614325 -1.3388708291
C 4.1405204046 0.1727557985 -1.3312049387
C 5.6426401512 -0.0627789531 -0.9098858796
C 5.4854247511 -1.3435123258 -0.0062087994
C 3.9650510242 -1.7137197567 -0.2461672086
O 3.6798336827 -1.2076437955 -1.6087690913
H 4.0847057127 1.1268479409 0.6612242814
H 3.2567160989 -0.8202413784 1.7208783508
H 3.9711240444 0.8255668702 -2.2092790918
H 6.2602641132 -0.2731988451 -1.7980122727
H 6.0759399652 0.7939711484 -0.3696276455
H 6.1414119033 -2.1625737247 -0.340659549
H 5.6923725332 -1.1385019742 1.0565692827
H 3.7289852359 -2.7935361574 -0.1757503665
O -0.6795570481 0.6414952511 0.5617777174
C -1.6429898689 -3.5021411032 1.4523623368
C -3.5987786021 -0.8449444031 -1.2708869194
C -4.933487522 -0.2835637163 -1.8925192568
C -4.6406792526 1.2640622911 -1.8842729146
C -3.1570596892 1.2986193762 -1.3442894016
O -2.567649289 0.0412123097 -1.8648878986
H -4.6053715011 -0.5578181555 0.6858406298
H -3.8663780116 1.7089301989 0.758745567
H -2.0351312274 -3.5564024332 2.4872017503
H -3.3690093622 -1.9067762985 -1.480988011
H -5.0667820344 -0.6613193955 -2.9188795189
H -5.8197005886 -0.5550538748 -1.2970934937
H -4.693304426 1.6921791191 -2.8978089957
H -5.3274004677 1.8227976891 -1.2283180371
H -2.5567112119 2.1695436613 -1.6719819256
H -0.6046372529 -3.0923672828 1.4600882178
H -1.6597684232 -4.5072667517 0.9934292288
H 0.1280859989 -1.9982484146 -2.2901554761
H -0.9067368166 -0.7187897719 -1.5108012049
H -0.4721102497 -2.2200760823 -0.5984228662
H 0.3253948885 3.0688641108 0.0176674627
H 1.1563515724 4.0857707698 1.2484253078
H -0.0565994031 1.8782940991 2.7200647111
H -0.519545506 3.6245373047 2.8004510448
$end

$rem
JOBTYPE                   OPT
METHOD                    B3LYP
DFT_D                     d3_op
BASIS                     STO-3G
GEOM_OPT_MAX_CYCLES       100
GEOM_OPT_TOL_GRADIENT     300
GEOM_OPT_TOL_DISPLACEMENT 1200
GEOM_OPT_TOL_ENERGY       100
SYMMETRY                  False
THRESH                    12
SCF_CONVERGENCE           8
MAX_SUB_FILE_NUM          128
MEM_STATIC                400
MEM_TOTAL                 4000
$end
--------------------------------------------------------------

   16   -1510.2895050296      6.13E-09 Convergence criterion met
 Total energy in the final basis set = -1510.28950503
   14   -1510.2803092432      8.57E-09 Convergence criterion met
 Total energy in the final basis set = -1510.28030924
   14   -1510.2816512715      4.81E-09 Convergence criterion met
 Total energy in the final basis set = -1510.28165127
   14   -1510.2411937917      6.75E-09 Convergence criterion met
 Total energy in the final basis set = -1510.24119379
   14   -1510.2755501587      6.33E-09 Convergence criterion met
 Total energy in the final basis set = -1510.27555016
   14   -1510.2823660949      5.46E-09 Convergence criterion met
 Total energy in the final basis set = -1510.28236609
   14   -1510.2839870930      3.32E-09 Convergence criterion met
 Total energy in the final basis set = -1510.28398709
   13   -1510.2863121802      6.72E-09 Convergence criterion met
   12   -1510.2945977080      4.35E-09 Convergence criterion met
 Total energy in the final basis set = -1510.29459771
   12   -1510.2945773473      5.43E-09 Convergence criterion met
 Total energy in the final basis set = -1510.29457735
   11   -1510.2945764100      6.27E-09 Convergence criterion met
 Total energy in the final basis set = -1510.29457641
   11   -1510.2945814426      3.02E-09 Convergence criterion met
 Total energy in the final basis set = -1510.29458144
   11   -1510.2945751952      5.38E-09 Convergence criterion met
 Total energy in the final basis set = -1510.29457520
   10   -1510.2945691747      7.26E-09 Convergence criterion met
 Total energy in the final basis set = -1510.29456917

             Standard Nuclear Orientation (Angstroms)
    I     Atom           X                Y                Z
 ----------------------------------------------------------------
    1      O       2.5294457591     0.7480816404     2.5736426254
    2      C       2.8643299118     1.1944061106     1.4534747047
    3      C       3.7200673893     0.4182710030     0.3816308175
    4      C       3.1153705720    -1.0104915099     0.0392302067
    5      C       1.7313153491    -1.2838071073     0.7160517115
    6      O       1.7793405897    -2.5844512007     1.3159435217
    7      C       0.4743485918    -2.9125858236     1.9347105424
    8      C      -0.6206079784    -3.3128490486     0.8639148169
    9      O      -1.8356898544    -2.4896468921     1.0460960132
   10      C      -1.9841828902    -1.5537385705    -0.0382528274
   11      C      -3.2916703436    -0.7433195140     0.2381882297
   12      C      -3.1079901657     0.8204717234     0.4573729585
   13      C      -1.6417190782     1.3759714543     0.3537021249
   14      O      -0.9839662599     1.8429591652     1.3147065682
   15      O       2.5443505900     2.4966715665     0.9762124773
   16      O      -1.2435055524     1.3510004422    -1.0042761049
   17      O      -1.2139933145    -1.4963093068    -1.0203521964
   18      C       0.0769506487     1.9934380666    -1.2185121382
   19      C      -4.2685975007    -0.7559761028    -1.0192190476
   20      C      -5.7147674719    -0.3646739893    -0.5167932295
   21      C      -5.5451954126     1.1833036077    -0.2880362419
   22      C      -4.0343949717     1.3891081257    -0.7049266543
   23      O      -3.8427417340     0.4201334960    -1.8062469899
   24      H      -3.7720187942    -1.1986488073     1.1220300920
   25      H      -3.4869823907     1.1069562594     1.4543975524
   26      H      -4.2125596481    -1.6743919679    -1.6349710772
   27      H      -6.4638783306    -0.5787050218    -1.2956442398
   28      H      -5.9952912618    -0.9039515865     0.4018287772
   29      H      -6.2088679693     1.7644546898    -0.9480146774
   30      H      -5.7323450523     1.4841569460     0.7550760283
   31      H      -3.7725057968     2.4110867420    -1.0399659232
   32      O       0.7249361811    -0.5423050529     0.7205668863
   33      C       1.6115318762     3.1645653995     1.9208099756
   34      C       3.7415299009     1.0918462830    -1.0509520284
   35      C       4.9327973608     0.4711522537    -1.8782797536
   36      C       4.3637513381    -0.9592919837    -2.2108024266
   37      C       2.9395568396    -0.8887111838    -1.5359766826
   38      O       2.5433692611     0.5259694537    -1.7189413753
   39      H       4.7441718815     0.3084767526     0.7839988090
   40      H       3.8058178843    -1.8271448989     0.3119081928
   41      H       1.9683829477     3.0803929312     2.9660562649
   42      H       3.6853428256     2.1965359160    -1.0331772266
   43      H       5.1124833913     1.0558611261    -2.7946266284
   44      H       5.8664844562     0.4326570281    -1.2946830525
   45      H       4.2674938566    -1.1139235217    -3.2972643030
   46      H       4.9784517227    -1.7709787489    -1.7903302864
   47      H       2.1725745373    -1.5609254397    -1.9678662721
   48      H       0.5972738477     2.7059810695     1.8241704817
   49      H       1.5839686399     4.2269784808     1.6176579175
   50      H       0.0168825244     2.4859995407    -2.2073329625
   51      H       0.9076457335     1.2443315728    -1.2364848342
   52      H       0.2811095987     2.7499159675    -0.4390057255
   53      H      -0.2288926621    -3.1450492278    -0.1641804336
   54      H      -0.9147720982    -4.3751737140     0.9847854795
   55      H       0.0891700816    -2.0501817869     2.5211921050
   56      H       0.6809002204    -3.7593243086     2.6181203647
 ----------------------------------------------------------------

    9   -1510.2945684483      4.21E-09 Convergence criterion met
 Total energy in the final basis set = -1510.29456845
 Final energy is   -1510.29456844826
 **  OPTIMIZATION CONVERGED  **

                    Orbital Energies (a.u.)
 --------------------------------------------------------------

 Alpha MOs
 -- Occupied --
-18.932 -18.926 -18.923 -18.922 -18.901 -18.884 -18.874 -18.873
-18.861 -18.860 -10.097 -10.094 -10.090 -10.090 -10.069 -10.065
-10.064 -10.061 -10.056 -10.054 -10.037 -10.036 -10.034 -10.033
-10.030 -10.024 -10.024 -10.022 -10.017 -10.016  -1.013  -1.004
 -0.999  -0.995  -0.977  -0.965  -0.937  -0.930  -0.923  -0.921
 -0.764  -0.757  -0.726  -0.719  -0.711  -0.704  -0.693  -0.646
 -0.639  -0.617  -0.592  -0.577  -0.547  -0.540  -0.538  -0.533
 -0.509  -0.506  -0.477  -0.467  -0.462  -0.454  -0.448  -0.439
 -0.436  -0.429  -0.427  -0.413  -0.406  -0.397  -0.392  -0.387
 -0.383  -0.374  -0.367  -0.359  -0.358  -0.354  -0.344  -0.341
 -0.336  -0.336  -0.331  -0.327  -0.324  -0.322  -0.320  -0.311
 -0.305  -0.302  -0.300  -0.296  -0.291  -0.283  -0.274  -0.272
 -0.270  -0.257  -0.243  -0.242  -0.236  -0.231  -0.229  -0.181
 -0.166  -0.165  -0.163  -0.153  -0.150  -0.146  -0.141  -0.139
 -0.137

          Ground-State Mulliken Net Atomic Charges

     Atom                 Charge (a.u.)
  ----------------------------------------
      1 O                    -0.218644
      2 C                     0.210675
      3 C                    -0.079546
      4 C                    -0.079807
      5 C                     0.211837
      6 O                    -0.171695
      7 C                    -0.052087
      8 C                    -0.057884
      9 O                    -0.175039
     10 C                     0.212930
     11 C                    -0.078266
     12 C                    -0.077829
     13 C                     0.218259
     14 O                    -0.221187
     15 O                    -0.173974
     16 O                    -0.159409
     17 O                    -0.203521
     18 C                    -0.145683
     19 C                     0.026783
     20 C                    -0.143949
     21 C                    -0.144473
     22 C                     0.027544
     23 O                    -0.182183
     24 H                     0.085979
     25 H                     0.083120
     26 H                     0.082661
     27 H                     0.077131
     28 H                     0.073143
     29 H                     0.077054
     30 H                     0.073228
     31 H                     0.083967
     32 O                    -0.210388
     33 C                    -0.147189
     34 C                     0.024606
     35 C                    -0.143409
     36 C                    -0.143421
     37 C                     0.027248
     38 O                    -0.184836
     39 H                     0.083896
     40 H                     0.087189
     41 H                     0.084967
     42 H                     0.095980
     43 H                     0.079114
     44 H                     0.074562
     45 H                     0.079798
     46 H                     0.075310
     47 H                     0.089175
     48 H                     0.118591
     49 H                     0.078937
     50 H                     0.078459
     51 H                     0.116677
     52 H                     0.083604
     53 H                     0.099473
     54 H                     0.083651
     55 H                     0.100083
     56 H                     0.088788
  ----------------------------------------
  Sum of atomic charges =    -0.000000

                    Cartesian Multipole Moments
 -----------------------------------------------------------------
    Charge (ESU x 10^10)
                -0.0000
    Dipole Moment (Debye)
         X       0.5364      Y      -1.2310      Z       0.0513
       Tot       1.3438
    Quadrupole Moments (Debye-Ang)
        XX    -137.7927     XY      -0.2415     YY    -149.0099
        XZ      -8.7089     YZ      -0.7029     ZZ    -167.4349

 Total job time:  143.81s(wall), 6866.16s(cpu)
        *  Thank you very much for using Q-Chem.  Have a nice day.  *
