 Q-Chem 5.0, Q-Chem, Inc., Pleasanton, CA (2017)
 Q-Chem 5.0.1 for Intel X86 EM64T Linux

User input:
--------------------------------------------------------------
$molecule
0  1
O -3.94934 -3.66094 2.70899
C -3.26408 -4.56952 2.26188
C -3.36658 -6.02376 2.66595
C -4.77761 -6.59615 2.87859
C -5.9339 -5.70109 2.49135
O -6.9313 -5.80422 3.4187
C -8.03562 -4.93161 3.15738
C -8.7418 -5.34814 1.87133
O -8.73669 -4.25879 0.93529
C -8.37497 -4.58025 -0.33158
C -8.39722 -3.39588 -1.26829
C -7.28176 -2.36618 -1.03647
C -6.12614 -2.82737 -0.17129
O -5.37521 -2.09559 0.45733
O -2.08444 -4.22214 1.6753
O -5.60396 -3.98325 -0.66988
O -8.15133 -5.72122 -0.71874
C -4.29086 -4.17405 -1.03779
C -8.1655 -3.7172 -2.76474
C -8.78903 -2.61686 -3.6242
C -7.84355 -1.4654 -3.34033
C -6.79026 -2.18144 -2.48657
O -6.79406 -3.49987 -2.97987
H -9.41527 -2.95299 -1.17823
H -7.66526 -1.4242 -0.5861
H -8.56009 -4.70959 -3.07288
H -8.66041 -2.92748 -4.68617
H -9.86367 -2.40513 -3.43676
H -7.40966 -1.12169 -4.3054
H -8.29059 -0.60676 -2.79391
H -5.81626 -1.64609 -2.53008
O -6.02939 -5.14371 1.42294
C -1.64787 -2.92508 1.48667
C -2.87551 -6.95956 1.53328
C -2.49048 -8.32397 2.10687
C -3.85717 -8.90088 2.39829
C -4.74871 -7.76959 1.88146
O -4.03256 -7.24749 0.79199
H -2.70576 -6.15384 3.55167
H -4.93398 -6.97517 3.91477
H -1.53003 -2.41642 2.467
H -2.01916 -6.55554 0.9519
H -2.02509 -8.91922 1.28879
H -1.79557 -8.28097 2.973
H -3.99925 -9.80624 1.76662
H -4.05342 -9.1492 3.4637
H -5.76669 -8.15808 1.65367
H -2.36581 -2.35512 0.86027
H -0.66427 -2.94387 0.97419
H -4.15838 -5.21876 -1.38531
H -3.61936 -3.98896 -0.19812
H -4.02657 -3.48394 -1.86628
H -8.4121 -6.34651 1.50441
H -9.81169 -5.49706 2.13478
H -7.73382 -3.85946 3.1571
H -8.74264 -5.0642 4.00496
$end

$opt
CONSTRAINT
tors           1           2           3           4     +40.362
tors           3           4           5           6    -139.562
tors           4           5           6           7    +176.957
tors           5           6           7           8     +66.122
tors           6           7           8           9    -121.499
tors           7           8           9          10    +133.329
tors           8           9          10          11    +179.655
tors           9          10          11          12     +71.106
tors          11          12          13          14    -156.487
ENDCONSTRAINT
$end

$rem
JOBTYPE                   OPT
METHOD                    B3LYP
DFT_D                     d3_op
BASIS                     STO-3G
GEOM_OPT_MAX_CYCLES       100
GEOM_OPT_TOL_GRADIENT     300
GEOM_OPT_TOL_DISPLACEMENT 1200
GEOM_OPT_TOL_ENERGY       100
SYMMETRY                  False
THRESH                    12
SCF_CONVERGENCE           8
MAX_SUB_FILE_NUM          128
MEM_STATIC                400
MEM_TOTAL                 4000
$end
--------------------------------------------------------------

   15   -1510.1263897484      8.87E-09 Convergence criterion met
 Total energy in the final basis set = -1510.12638975
   14   -1510.1978159014      4.59E-09 Convergence criterion met
 Total energy in the final basis set = -1510.19781590
   15   -1510.2322478506      2.72E-09 Convergence criterion met
 Total energy in the final basis set = -1510.23224785
   15   -1510.2598222244      1.79E-09 Convergence criterion met
 Total energy in the final basis set = -1510.25982222
   14   -1510.2589740383      7.69E-09 Convergence criterion met
 Total energy in the final basis set = -1510.25897404
   14   -1510.2757348575      5.28E-09 Convergence criterion met
 Total energy in the final basis set = -1510.27573486
   13   -1510.2800289769      5.76E-09 Convergence criterion met
 Total energy in the final basis set = -1510.28002898
   13   -1510.2821204695      9.87E-09 Convergence criterion met
   11   -1510.2894461660      6.52E-09 Convergence criterion met
 Total energy in the final basis set = -1510.28944617
    9   -1510.2894509395      8.93E-09 Convergence criterion met
 Total energy in the final basis set = -1510.28945094
    9   -1510.2894525626      5.37E-09 Convergence criterion met
 Total energy in the final basis set = -1510.28945256
    9   -1510.2894530894      3.97E-09 Convergence criterion met
 Total energy in the final basis set = -1510.28945309
    9   -1510.2894524738      2.28E-09 Convergence criterion met
 Total energy in the final basis set = -1510.28945247
    8   -1510.2894542622      7.61E-09 Convergence criterion met
 Total energy in the final basis set = -1510.28945426

             Standard Nuclear Orientation (Angstroms)
    I     Atom           X                Y                Z
 ----------------------------------------------------------------
    1      O      -2.1825114004    -1.0303267000     2.2885998565
    2      C      -2.6540800641    -1.3620568669     1.1785796636
    3      C      -3.5831202097    -0.4726338915     0.2714672569
    4      C      -3.1566026311     1.0520479700     0.2277349702
    5      C      -1.7081913986     1.3204367551     0.7628756724
    6      O      -1.7254857925     2.5204466924     1.5432765773
    7      C      -0.3824141124     2.7590299489     2.1231692534
    8      C       0.7364956463     3.0755535672     1.0515329122
    9      O       1.8450725321     2.0978351664     1.1280377866
   10      C       2.1933224045     1.6300040985    -0.1900992893
   11      C       3.3713872688     0.6147469326    -0.0117880869
   12      C       3.0227840414    -0.7815265354     0.6431762556
   13      C       1.5579522479    -1.2981833686     0.3992445403
   14      O       0.9528268932    -2.1177275206     1.1306448861
   15      O      -2.5088789049    -2.6531057911     0.5919703532
   16      O       1.1325156134    -0.8265413283    -0.8674856917
   17      O       1.6611516620     2.0409241737    -1.2425605366
   18      C      -0.1114039454    -1.4836143250    -1.3388708291
   19      C       4.1405204046     0.1727557985    -1.3312049387
   20      C       5.6426401512    -0.0627789531    -0.9098858796
   21      C       5.4854247511    -1.3435123258    -0.0062087994
   22      C       3.9650510242    -1.7137197567    -0.2461672086
   23      O       3.6798336827    -1.2076437955    -1.6087690913
   24      H       4.0847057127     1.1268479409     0.6612242814
   25      H       3.2567160989    -0.8202413784     1.7208783508
   26      H       3.9711240444     0.8255668702    -2.2092790918
   27      H       6.2602641132    -0.2731988451    -1.7980122727
   28      H       6.0759399652     0.7939711484    -0.3696276455
   29      H       6.1414119033    -2.1625737247    -0.3406595490
   30      H       5.6923725332    -1.1385019742     1.0565692827
   31      H       3.7289852359    -2.7935361574    -0.1757503665
   32      O      -0.6795570481     0.6414952511     0.5617777174
   33      C      -1.6429898689    -3.5021411032     1.4523623368
   34      C      -3.5987786021    -0.8449444031    -1.2708869194
   35      C      -4.9334875220    -0.2835637163    -1.8925192568
   36      C      -4.6406792526     1.2640622911    -1.8842729146
   37      C      -3.1570596892     1.2986193762    -1.3442894016
   38      O      -2.5676492890     0.0412123097    -1.8648878986
   39      H      -4.6053715011    -0.5578181555     0.6858406298
   40      H      -3.8663780116     1.7089301989     0.7587455670
   41      H      -2.0351312274    -3.5564024332     2.4872017503
   42      H      -3.3690093622    -1.9067762985    -1.4809880110
   43      H      -5.0667820344    -0.6613193955    -2.9188795189
   44      H      -5.8197005886    -0.5550538748    -1.2970934937
   45      H      -4.6933044260     1.6921791191    -2.8978089957
   46      H      -5.3274004677     1.8227976891    -1.2283180371
   47      H      -2.5567112119     2.1695436613    -1.6719819256
   48      H      -0.6046372529    -3.0923672828     1.4600882178
   49      H      -1.6597684232    -4.5072667517     0.9934292288
   50      H       0.1280859989    -1.9982484146    -2.2901554761
   51      H      -0.9067368166    -0.7187897719    -1.5108012049
   52      H      -0.4721102497    -2.2200760823    -0.5984228662
   53      H       0.3253948885     3.0688641108     0.0176674627
   54      H       1.1563515724     4.0857707698     1.2484253078
   55      H      -0.0565994031     1.8782940991     2.7200647111
   56      H      -0.5195455060     3.6245373047     2.8004510448
 ----------------------------------------------------------------

    8   -1510.2894546579      6.89E-09 Convergence criterion met
 Total energy in the final basis set = -1510.28945466
 Final energy is   -1510.28945465789
 **  OPTIMIZATION CONVERGED  **

                    Orbital Energies (a.u.)
 --------------------------------------------------------------

 Alpha MOs
 -- Occupied --
-18.933 -18.925 -18.923 -18.920 -18.903 -18.881 -18.873 -18.872
-18.864 -18.860 -10.098 -10.095 -10.093 -10.090 -10.071 -10.067
-10.063 -10.063 -10.055 -10.053 -10.040 -10.038 -10.037 -10.031
-10.030 -10.025 -10.024 -10.021 -10.017 -10.015  -1.014  -1.003
 -1.001  -0.994  -0.979  -0.963  -0.936  -0.929  -0.926  -0.920
 -0.766  -0.757  -0.727  -0.719  -0.712  -0.703  -0.692  -0.648
 -0.638  -0.616  -0.593  -0.577  -0.548  -0.542  -0.538  -0.532
 -0.511  -0.503  -0.477  -0.469  -0.462  -0.452  -0.449  -0.440
 -0.434  -0.426  -0.426  -0.417  -0.406  -0.398  -0.392  -0.387
 -0.385  -0.375  -0.368  -0.359  -0.359  -0.356  -0.347  -0.341
 -0.338  -0.335  -0.331  -0.326  -0.324  -0.320  -0.316  -0.314
 -0.306  -0.302  -0.300  -0.296  -0.291  -0.286  -0.277  -0.273
 -0.265  -0.256  -0.244  -0.241  -0.240  -0.228  -0.226  -0.182
 -0.166  -0.165  -0.163  -0.152  -0.151  -0.149  -0.142  -0.140
 -0.134

          Ground-State Mulliken Net Atomic Charges

     Atom                 Charge (a.u.)
  ----------------------------------------
      1 O                    -0.215366
      2 C                     0.211444
      3 C                    -0.079735
      4 C                    -0.079387
      5 C                     0.212843
      6 O                    -0.171754
      7 C                    -0.050291
      8 C                    -0.055562
      9 O                    -0.175125
     10 C                     0.220170
     11 C                    -0.077531
     12 C                    -0.074537
     13 C                     0.222720
     14 O                    -0.226917
     15 O                    -0.175253
     16 O                    -0.159525
     17 O                    -0.208295
     18 C                    -0.147456
     19 C                     0.025877
     20 C                    -0.141724
     21 C                    -0.145393
     22 C                     0.024149
     23 O                    -0.186174
     24 H                     0.082068
     25 H                     0.085878
     26 H                     0.089167
     27 H                     0.076908
     28 H                     0.072053
     29 H                     0.077250
     30 H                     0.073233
     31 H                     0.081745
     32 O                    -0.211254
     33 C                    -0.147047
     34 C                     0.024352
     35 C                    -0.142575
     36 C                    -0.143903
     37 C                     0.026972
     38 O                    -0.185548
     39 H                     0.084306
     40 H                     0.088366
     41 H                     0.082582
     42 H                     0.096395
     43 H                     0.079649
     44 H                     0.075039
     45 H                     0.080054
     46 H                     0.075542
     47 H                     0.086290
     48 H                     0.119440
     49 H                     0.080851
     50 H                     0.076381
     51 H                     0.113290
     52 H                     0.088287
     53 H                     0.100961
     54 H                     0.078698
     55 H                     0.098433
     56 H                     0.088961
  ----------------------------------------
  Sum of atomic charges =    -0.000000

                    Cartesian Multipole Moments
 -----------------------------------------------------------------
    Charge (ESU x 10^10)
                -0.0000
    Dipole Moment (Debye)
         X      -0.9751      Y       1.2347      Z       0.5438
       Tot       1.6646
    Quadrupole Moments (Debye-Ang)
        XX    -136.0056     XY      -0.2034     YY    -152.2441
        XZ       7.3511     YZ       2.4668     ZZ    -166.0758

 Total job time:  101.64s(wall), 4846.54s(cpu)
        *  Thank you very much for using Q-Chem.  Have a nice day.  *
