 Q-Chem 5.0, Q-Chem, Inc., Pleasanton, CA (2017)
 Q-Chem 5.0.1 for Intel X86 EM64T Linux

User input:
--------------------------------------------------------------
$molecule
0  1
O -3.94934 -3.66094 2.70899
C -3.26408 -4.56952 2.26188
C -3.36658 -6.02376 2.66595
C -4.74199 -6.52808 3.13259
C -5.9011 -5.56914 2.97457
O -6.80824 -5.7687 3.97592
C -7.93268 -4.8859 3.90129
C -8.76818 -5.20225 2.66518
O -8.72866 -4.09499 1.75124
C -8.25506 -4.37807 0.5124
C -8.24627 -3.17684 -0.40281
C -7.04995 -2.2317 -0.21893
C -5.88309 -2.7888 0.57149
O -5.02136 -2.12328 1.12743
O -2.10687 -4.23684 1.62658
O -5.44278 -3.92757 -0.04628
O -8.08243 -5.51531 0.08824
C -4.25512 -4.06026 -0.74585
C -8.13306 -3.46221 -1.92114
C -8.74767 -2.30007 -2.70317
C -7.7247 -1.20946 -2.44166
C -6.6541 -2.0136 -1.6933
O -6.77199 -3.30946 -2.2303
H -9.22777 -2.67134 -0.25158
H -7.35299 -1.29413 0.29713
H -8.60269 -4.42111 -2.22986
H -8.69959 -2.5806 -3.78018
H -9.79633 -2.03723 -2.44623
H -7.34412 -0.84372 -3.42093
H -8.08645 -0.35613 -1.82793
H -5.65619 -1.53207 -1.78756
O -6.14309 -5.01364 1.94718
C -1.63321 -2.94961 1.47055
C -3.14165 -6.96381 1.45811
C -2.72701 -8.35459 1.94021
C -4.0428 -8.86796 2.47974
C -4.9569 -7.68809 2.14174
O -4.42852 -7.18541 0.94141
H -2.55643 -6.20573 3.40686
H -4.72446 -6.90745 4.18006
H -1.44454 -2.49202 2.46488
H -2.38388 -6.58889 0.73686
H -2.45555 -8.95711 1.04379
H -1.8801 -8.36264 2.6596
H -4.34411 -9.75882 1.88446
H -4.04982 -9.11686 3.56291
H -6.01777 -8.02297 2.10441
H -2.35805 -2.32492 0.91299
H -0.67932 -2.97986 0.90542
H -4.48021 -4.35316 -1.7908
H -3.64443 -4.869 -0.3178
H -3.68033 -3.11267 -0.7793
H -8.55171 -6.21811 2.26321
H -9.83009 -5.25423 2.98982
H -7.65752 -3.81059 3.98817
H -8.54983 -5.1309 4.79265
$end

$opt
CONSTRAINT
tors           1           2           3           4     +29.227
tors           3           4           5           6    -147.897
tors           4           5           6           7    +179.446
tors           5           6           7           8     +67.115
tors           6           7           8           9    -114.754
tors           7           8           9          10    +121.686
tors           8           9          10          11    +179.655
tors           9          10          11          12     +81.044
tors          11          12          13          14    -159.279
ENDCONSTRAINT
$end

$rem
JOBTYPE                   OPT
METHOD                    B3LYP
DFT_D                     d3_op
BASIS                     STO-3G
GEOM_OPT_MAX_CYCLES       100
GEOM_OPT_TOL_GRADIENT     300
GEOM_OPT_TOL_DISPLACEMENT 1200
GEOM_OPT_TOL_ENERGY       100
SYMMETRY                  False
THRESH                    12
SCF_CONVERGENCE           8
MAX_SUB_FILE_NUM          128
MEM_STATIC                400
MEM_TOTAL                 4000
$end
--------------------------------------------------------------

   15   -1510.1036469384      9.97E-09 Convergence criterion met
 Total energy in the final basis set = -1510.10364694
   14   -1510.1691305075      6.18E-09 Convergence criterion met
 Total energy in the final basis set = -1510.16913051
   15   -1510.2177714345      2.72E-09 Convergence criterion met
 Total energy in the final basis set = -1510.21777143
   14   -1510.2415826886      8.27E-09 Convergence criterion met
 Total energy in the final basis set = -1510.24158269
   14   -1510.2563817399      1.82E-09 Convergence criterion met
 Total energy in the final basis set = -1510.25638174
   14   -1510.2665329528      5.00E-09 Convergence criterion met
 Total energy in the final basis set = -1510.26653295
   13   -1510.2748111632      7.86E-09 Convergence criterion met
 Total energy in the final basis set = -1510.27481116
   13   -1510.2801116015      6.45E-09 Convergence criterion met
   10   -1510.2880644833      5.54E-09 Convergence criterion met
 Total energy in the final basis set = -1510.28806448
   10   -1510.2880691119      8.06E-09 Convergence criterion met
 Total energy in the final basis set = -1510.28806911
    9   -1510.2880720727      4.36E-09 Convergence criterion met
 Total energy in the final basis set = -1510.28807207
    9   -1510.2880751530      6.97E-09 Convergence criterion met
 Total energy in the final basis set = -1510.28807515
    9   -1510.2880772161      4.14E-09 Convergence criterion met
 Total energy in the final basis set = -1510.28807722
    9   -1510.2880779796      2.46E-09 Convergence criterion met
 Total energy in the final basis set = -1510.28807798

             Standard Nuclear Orientation (Angstroms)
    I     Atom           X                Y                Z
 ----------------------------------------------------------------
    1      O       1.9109683764     1.0755295165     2.2487363369
    2      C       2.5160856982     1.4857595827     1.2344178091
    3      C       3.4615596031     0.6328968364     0.3107964254
    4      C       3.0947483618    -0.9057516789     0.2564378750
    5      C       1.6491394478    -1.2732007433     0.7504863781
    6      O       1.7352285170    -2.5752376621     1.3398209421
    7      C       0.4223389198    -3.0210241057     1.8558939473
    8      C      -0.6959302257    -3.2998133988     0.7713627719
    9      O      -1.8296929908    -2.3580337855     0.8818506513
   10      C      -2.0244572434    -1.6287295952    -0.3468992281
   11      C      -3.2495782600    -0.6845681741    -0.0939379604
   12      C      -2.9766682077     0.6674884424     0.6798875182
   13      C      -1.5543598782     1.2980128528     0.4448160147
   14      O      -0.9896241272     2.1251413599     1.1994158110
   15      O       2.4782439789     2.8304671482     0.7614200629
   16      O      -1.1366507862     0.9229135758    -0.8545118752
   17      O      -1.3705149748    -1.8325532331    -1.3908291712
   18      C       0.0958258607     1.6185460907    -1.2890145558
   19      C      -4.0581680079    -0.1739627059    -1.3658261388
   20      C      -5.5683986631    -0.0808619049    -0.9169825709
   21      C      -5.4847720090     1.1143115249     0.1059713935
   22      C      -3.9962094305     1.6095633731    -0.1085882365
   23      O      -3.6970881001     1.2548204191    -1.5154954951
   24      H      -3.9301245501    -1.2876800734     0.5354766353
   25      H      -3.1864452149     0.5947377267     1.7607905088
   26      H      -3.8563825217    -0.7280988853    -2.3029824743
   27      H      -6.2076182246     0.1742333930    -1.7776864429
   28      H      -5.9393268012    -1.0129062598    -0.4616677856
   29      H      -6.1994984370     1.9147395752    -0.1419849785
   30      H      -5.6625695074     0.7930670531     1.1450775898
   31      H      -3.8353257529     2.6919933140     0.0621359481
   32      O       0.5823637733    -0.6403667237     0.6130678381
   33      C       1.5475278037     3.6252310971     1.6061986297
   34      C       3.4869733716     1.0172990830    -1.2282509223
   35      C       4.8556567558     0.5185066252    -1.8285080214
   36      C       4.6332207298    -1.0407243546    -1.8251348991
   37      C       3.1411002516    -1.1443120145    -1.3173078305
   38      O       2.5092834577     0.0890879132    -1.8473829005
   39      H       4.4813109531     0.7437754337     0.7261950625
   40      H       3.8226110738    -1.5349418145     0.7962381223
   41      H       1.8990967529     3.6708966406     2.6563414961
   42      H       3.2155644732     2.0694171179    -1.4381144762
   43      H       4.9864711269     0.9026195776    -2.8527985550
   44      H       5.7192723697     0.8297622860    -1.2196527859
   45      H       4.7276591635    -1.4660834840    -2.8367780929
   46      H       5.3301640499    -1.5678201878    -1.1539761528
   47      H       2.5866902514    -2.0387823838    -1.6622270737
   48      H       0.5260187987     3.1763926653     1.5698335746
   49      H       1.5438093907     4.6414202996     1.1721556488
   50      H      -0.1416366297     2.1603184641    -2.2253182063
   51      H       0.8995923735     0.8660392772    -1.4790474946
   52      H       0.4310570037     2.3369120793    -0.5194950639
   53      H      -0.2777582343    -3.2312925007    -0.2585430453
   54      H      -1.0985413542    -4.3233728082     0.9252917772
   55      H       0.0213087703    -2.2792889332     2.5827352239
   56      H       0.6495140012    -3.9602393798     2.3982697570
 ----------------------------------------------------------------

    9   -1510.2880785388      2.10E-09 Convergence criterion met
 Total energy in the final basis set = -1510.28807854
 Final energy is   -1510.28807853876
 **  OPTIMIZATION CONVERGED  **

                    Orbital Energies (a.u.)
 --------------------------------------------------------------

 Alpha MOs
 -- Occupied --
-18.931 -18.924 -18.921 -18.919 -18.904 -18.881 -18.874 -18.872
-18.865 -18.857 -10.098 -10.094 -10.092 -10.088 -10.070 -10.067
-10.064 -10.063 -10.054 -10.052 -10.040 -10.037 -10.037 -10.030
-10.029 -10.026 -10.024 -10.020 -10.016 -10.014  -1.013  -1.002
 -1.000  -0.993  -0.980  -0.962  -0.937  -0.928  -0.925  -0.919
 -0.767  -0.756  -0.727  -0.718  -0.713  -0.703  -0.691  -0.648
 -0.637  -0.617  -0.592  -0.576  -0.548  -0.542  -0.537  -0.531
 -0.511  -0.502  -0.475  -0.470  -0.460  -0.452  -0.449  -0.440
 -0.433  -0.426  -0.425  -0.416  -0.405  -0.399  -0.391  -0.386
 -0.383  -0.375  -0.369  -0.359  -0.359  -0.356  -0.346  -0.339
 -0.337  -0.335  -0.331  -0.326  -0.323  -0.319  -0.316  -0.314
 -0.305  -0.300  -0.299  -0.296  -0.291  -0.287  -0.275  -0.273
 -0.264  -0.255  -0.243  -0.241  -0.239  -0.227  -0.224  -0.182
 -0.166  -0.165  -0.162  -0.153  -0.151  -0.147  -0.141  -0.139
 -0.133

          Ground-State Mulliken Net Atomic Charges

     Atom                 Charge (a.u.)
  ----------------------------------------
      1 O                    -0.211592
      2 C                     0.210960
      3 C                    -0.080479
      4 C                    -0.078832
      5 C                     0.215646
      6 O                    -0.174744
      7 C                    -0.051023
      8 C                    -0.056802
      9 O                    -0.176772
     10 C                     0.221802
     11 C                    -0.077345
     12 C                    -0.074320
     13 C                     0.223916
     14 O                    -0.227490
     15 O                    -0.176197
     16 O                    -0.159301
     17 O                    -0.206451
     18 C                    -0.148956
     19 C                     0.026243
     20 C                    -0.141611
     21 C                    -0.145457
     22 C                     0.024010
     23 O                    -0.186252
     24 H                     0.082430
     25 H                     0.085868
     26 H                     0.087958
     27 H                     0.076667
     28 H                     0.072083
     29 H                     0.077083
     30 H                     0.073203
     31 H                     0.081880
     32 O                    -0.209044
     33 C                    -0.146263
     34 C                     0.024951
     35 C                    -0.142265
     36 C                    -0.143896
     37 C                     0.027273
     38 O                    -0.184840
     39 H                     0.083900
     40 H                     0.088652
     41 H                     0.081044
     42 H                     0.095587
     43 H                     0.079941
     44 H                     0.075424
     45 H                     0.080213
     46 H                     0.075676
     47 H                     0.087240
     48 H                     0.119673
     49 H                     0.081000
     50 H                     0.076523
     51 H                     0.113021
     52 H                     0.085948
     53 H                     0.099693
     54 H                     0.080851
     55 H                     0.095548
     56 H                     0.088024
  ----------------------------------------
  Sum of atomic charges =    -0.000000

                    Cartesian Multipole Moments
 -----------------------------------------------------------------
    Charge (ESU x 10^10)
                -0.0000
    Dipole Moment (Debye)
         X       1.1388      Y      -1.5489      Z       0.4944
       Tot       1.9851
    Quadrupole Moments (Debye-Ang)
        XX    -136.7559     XY       1.0447     YY    -151.4236
        XZ      -6.0494     YZ      -1.7374     ZZ    -165.7004

 Total job time:  73.75s(wall), 3517.13s(cpu)
        *  Thank you very much for using Q-Chem.  Have a nice day.  *
