 Q-Chem 5.0, Q-Chem, Inc., Pleasanton, CA (2017)
 Q-Chem 5.0.1 for Intel X86 EM64T Linux

User input:
--------------------------------------------------------------
$molecule
0  1
O 1.9109683764 1.0755295165 2.2487363369
C 2.5160856982 1.4857595827 1.2344178091
C 3.4615596031 0.6328968364 0.3107964254
C 3.0947483618 -0.9057516789 0.256437875
C 1.6491394478 -1.2732007433 0.7504863781
O 1.735228517 -2.5752376621 1.3398209421
C 0.4223389198 -3.0210241057 1.8558939473
C -0.6959302257 -3.2998133988 0.7713627719
O -1.8296929908 -2.3580337855 0.8818506513
C -2.0244572434 -1.6287295952 -0.3468992281
C -3.24957826 -0.6845681741 -0.0939379604
C -2.9766682077 0.6674884424 0.6798875182
C -1.5543598782 1.2980128528 0.4448160147
O -0.9896241272 2.1251413599 1.199415811
O 2.4782439789 2.8304671482 0.7614200629
O -1.1366507862 0.9229135758 -0.8545118752
O -1.3705149748 -1.8325532331 -1.3908291712
C 0.0958258607 1.6185460907 -1.2890145558
C -4.0581680079 -0.1739627059 -1.3658261388
C -5.5683986631 -0.0808619049 -0.9169825709
C -5.484772009 1.1143115249 0.1059713935
C -3.9962094305 1.6095633731 -0.1085882365
O -3.6970881001 1.2548204191 -1.5154954951
H -3.9301245501 -1.2876800734 0.5354766353
H -3.1864452149 0.5947377267 1.7607905088
H -3.8563825217 -0.7280988853 -2.3029824743
H -6.2076182246 0.174233393 -1.7776864429
H -5.9393268012 -1.0129062598 -0.4616677856
H -6.199498437 1.9147395752 -0.1419849785
H -5.6625695074 0.7930670531 1.1450775898
H -3.8353257529 2.691993314 0.0621359481
O 0.5823637733 -0.6403667237 0.6130678381
C 1.5475278037 3.6252310971 1.6061986297
C 3.4869733716 1.017299083 -1.2282509223
C 4.8556567558 0.5185066252 -1.8285080214
C 4.6332207298 -1.0407243546 -1.8251348991
C 3.1411002516 -1.1443120145 -1.3173078305
O 2.5092834577 0.0890879132 -1.8473829005
H 4.4813109531 0.7437754337 0.7261950625
H 3.8226110738 -1.5349418145 0.7962381223
H 1.8990967529 3.6708966406 2.6563414961
H 3.2155644732 2.0694171179 -1.4381144762
H 4.9864711269 0.9026195776 -2.852798555
H 5.7192723697 0.829762286 -1.2196527859
H 4.7276591635 -1.466083484 -2.8367780929
H 5.3301640499 -1.5678201878 -1.1539761528
H 2.5866902514 -2.0387823838 -1.6622270737
H 0.5260187987 3.1763926653 1.5698335746
H 1.5438093907 4.6414202996 1.1721556488
H -0.1416366297 2.1603184641 -2.2253182063
H 0.8995923735 0.8660392772 -1.4790474946
H 0.4310570037 2.3369120793 -0.5194950639
H -0.2777582343 -3.2312925007 -0.2585430453
H -1.0985413542 -4.3233728082 0.9252917772
H 0.0213087703 -2.2792889332 2.5827352239
H 0.6495140012 -3.9602393798 2.398269757
$end

$rem
JOBTYPE                   OPT
METHOD                    B3LYP
DFT_D                     d3_op
BASIS                     STO-3G
GEOM_OPT_MAX_CYCLES       100
GEOM_OPT_TOL_GRADIENT     300
GEOM_OPT_TOL_DISPLACEMENT 1200
GEOM_OPT_TOL_ENERGY       100
SYMMETRY                  False
THRESH                    12
SCF_CONVERGENCE           8
MAX_SUB_FILE_NUM          128
MEM_STATIC                400
MEM_TOTAL                 4000
$end
--------------------------------------------------------------

   16   -1510.2880790531      5.61E-09 Convergence criterion met
 Total energy in the final basis set = -1510.28807905
   15   -1510.2783015474      6.15E-09 Convergence criterion met
 Total energy in the final basis set = -1510.27830155
   15   -1510.2316016405      5.52E-09 Convergence criterion met
 Total energy in the final basis set = -1510.23160164
   14   -1510.2822585251      8.06E-09 Convergence criterion met
 Total energy in the final basis set = -1510.28225853
   15   -1510.2798865751      6.72E-09 Convergence criterion met
 Total energy in the final basis set = -1510.27988658
   14   -1510.2646796450      9.33E-09 Convergence criterion met
 Total energy in the final basis set = -1510.26467965
   14   -1510.2834610897      4.54E-09 Convergence criterion met
 Total energy in the final basis set = -1510.28346109
   14   -1510.2862067690      2.62E-09 Convergence criterion met
   11   -1510.2946321756      6.08E-09 Convergence criterion met
 Total energy in the final basis set = -1510.29463218
   11   -1510.2946226072      7.84E-09 Convergence criterion met
 Total energy in the final basis set = -1510.29462261
   10   -1510.2946222506      7.85E-09 Convergence criterion met
 Total energy in the final basis set = -1510.29462225
    9   -1510.2946205210      6.63E-09 Convergence criterion met
 Total energy in the final basis set = -1510.29462052
    9   -1510.2946191666      4.40E-09 Convergence criterion met
 Total energy in the final basis set = -1510.29461917
    9   -1510.2946183954      2.13E-09 Convergence criterion met
 Total energy in the final basis set = -1510.29461840

             Standard Nuclear Orientation (Angstroms)
    I     Atom           X                Y                Z
 ----------------------------------------------------------------
    1      O       2.4975534303     0.7627102090     2.5895104340
    2      C       2.8526200016     1.1939012324     1.4695771170
    3      C       3.7198489716     0.3995280162     0.4206980891
    4      C       3.1131230777    -1.0315665201     0.0913334956
    5      C       1.7201372367    -1.2905618285     0.7550267433
    6      O       1.7588171229    -2.5793623666     1.3806629059
    7      C       0.4442137159    -2.8959931949     1.9846635113
    8      C      -0.6349500695    -3.3132721026     0.9041487016
    9      O      -1.8514298993    -2.4863465669     1.0559134044
   10      C      -1.9852796443    -1.5671230373    -0.0444870568
   11      C      -3.2925992017    -0.7486785615     0.2082332838
   12      C      -3.1047129614     0.8156523576     0.4200615671
   13      C      -1.6364096325     1.3668111487     0.3218539159
   14      O      -0.9870305627     1.8468195637     1.2821674333
   15      O       2.5469798453     2.4918236175     0.9717786951
   16      O      -1.2259181637     1.3223172006    -1.0319380425
   17      O      -1.2047397310    -1.5269768291    -1.0191357070
   18      C       0.0972419713     1.9602602592    -1.2431409725
   19      C      -4.2564398107    -0.7652678022    -1.0592236702
   20      C      -5.7066947577    -0.3698096173    -0.5721963832
   21      C      -5.5359915489     1.1783663252    -0.3456850352
   22      C      -4.0216288247     1.3807058886    -0.7515396442
   23      O      -3.8220926341     0.4070587231    -1.8472448342
   24      H      -3.7853375339    -1.1954647609     1.0895222400
   25      H      -3.4888706754     1.1092570940     1.4130004882
   26      H      -4.1956647129    -1.6863000279    -1.6706276626
   27      H      -6.4484616447    -0.5841385073    -1.3579842514
   28      H      -5.9975033418    -0.9062843317     0.3448582572
   29      H      -6.1937195986     1.7593164692    -1.0117544915
   30      H      -5.7303022489     1.4817477773     0.6953850302
   31      H      -3.7559904231     2.4010581612    -1.0886469092
   32      O       0.7139338540    -0.5492665586     0.7301910079
   33      C       1.6026613701     3.1753411720     1.8935112673
   34      C       3.7628553793     1.0515209453    -1.0213044351
   35      C       4.9601558669     0.4121104159    -1.8253063928
   36      C       4.3864361586    -1.0191720597    -2.1455182411
   37      C       2.9554256854    -0.9313988215    -1.4873066738
   38      O       2.5692653372     0.4827054515    -1.6949083732
   39      H       4.7380611678     0.2914184639     0.8381184787
   40      H       3.7968468332    -1.8469906233     0.3837927167
   41      H       1.9459846604     3.1079328365     2.9445202447
   42      H       3.7131008015     2.1567100404    -1.0211078955
   43      H       5.1543199409     0.9834231820    -2.7471116851
   44      H       5.8866016721     0.3760790308    -1.2301102388
   45      H       4.3007634347    -1.1868902003    -3.2309209129
   46      H       4.9919173155    -1.8291198150    -1.7085322880
   47      H       2.1894008702    -1.6054922391    -1.9179807393
   48      H       0.5891951006     2.7160598925     1.7914056853
   49      H       1.5801309224     4.2327747923     1.5729953804
   50      H       0.0489359984     2.4318169209    -2.2427763093
   51      H       0.9282812506     1.2114344028    -1.2357427065
   52      H       0.2918862494     2.7333899149    -0.4775770845
   53      H      -0.2277630931    -3.1635705827    -0.1207351463
   54      H      -0.9317579546    -4.3732911627     1.0382742459
   55      H       0.0507035942    -2.0236362632     2.5505589693
   56      H       0.6392933856    -3.7313184920     2.6852508828
 ----------------------------------------------------------------

    9   -1510.2946173988      3.28E-09 Convergence criterion met
 Total energy in the final basis set = -1510.29461740
 Final energy is   -1510.29461739884
 **  OPTIMIZATION CONVERGED  **

                    Orbital Energies (a.u.)
 --------------------------------------------------------------

 Alpha MOs
 -- Occupied --
-18.932 -18.926 -18.923 -18.922 -18.901 -18.884 -18.874 -18.873
-18.861 -18.860 -10.097 -10.094 -10.090 -10.090 -10.069 -10.065
-10.064 -10.061 -10.056 -10.055 -10.037 -10.036 -10.034 -10.033
-10.030 -10.024 -10.023 -10.022 -10.017 -10.016  -1.013  -1.004
 -0.999  -0.995  -0.977  -0.965  -0.937  -0.930  -0.924  -0.921
 -0.764  -0.757  -0.726  -0.719  -0.711  -0.704  -0.693  -0.646
 -0.639  -0.617  -0.592  -0.577  -0.547  -0.540  -0.538  -0.533
 -0.509  -0.506  -0.477  -0.467  -0.462  -0.454  -0.448  -0.439
 -0.436  -0.429  -0.427  -0.413  -0.406  -0.397  -0.392  -0.387
 -0.384  -0.374  -0.367  -0.359  -0.358  -0.354  -0.344  -0.341
 -0.336  -0.336  -0.331  -0.327  -0.324  -0.322  -0.320  -0.311
 -0.305  -0.302  -0.300  -0.296  -0.291  -0.283  -0.274  -0.272
 -0.270  -0.257  -0.243  -0.242  -0.236  -0.231  -0.229  -0.181
 -0.166  -0.165  -0.163  -0.153  -0.150  -0.146  -0.141  -0.139
 -0.137

          Ground-State Mulliken Net Atomic Charges

     Atom                 Charge (a.u.)
  ----------------------------------------
      1 O                    -0.218568
      2 C                     0.210619
      3 C                    -0.079526
      4 C                    -0.079855
      5 C                     0.211866
      6 O                    -0.171682
      7 C                    -0.052052
      8 C                    -0.057757
      9 O                    -0.175145
     10 C                     0.213047
     11 C                    -0.078320
     12 C                    -0.077803
     13 C                     0.218343
     14 O                    -0.221184
     15 O                    -0.173948
     16 O                    -0.159310
     17 O                    -0.203499
     18 C                    -0.145465
     19 C                     0.026776
     20 C                    -0.143911
     21 C                    -0.144492
     22 C                     0.027532
     23 O                    -0.182190
     24 H                     0.085977
     25 H                     0.083144
     26 H                     0.082730
     27 H                     0.077123
     28 H                     0.073132
     29 H                     0.077057
     30 H                     0.073238
     31 H                     0.083861
     32 O                    -0.210558
     33 C                    -0.147183
     34 C                     0.024610
     35 C                    -0.143439
     36 C                    -0.143421
     37 C                     0.027214
     38 O                    -0.184883
     39 H                     0.083926
     40 H                     0.087183
     41 H                     0.084831
     42 H                     0.095897
     43 H                     0.079109
     44 H                     0.074561
     45 H                     0.079795
     46 H                     0.075306
     47 H                     0.089185
     48 H                     0.118662
     49 H                     0.078923
     50 H                     0.078648
     51 H                     0.116620
     52 H                     0.083427
     53 H                     0.099343
     54 H                     0.083660
     55 H                     0.100061
     56 H                     0.088786
  ----------------------------------------
  Sum of atomic charges =    -0.000000

                    Cartesian Multipole Moments
 -----------------------------------------------------------------
    Charge (ESU x 10^10)
                -0.0000
    Dipole Moment (Debye)
         X       0.5357      Y      -1.2381      Z       0.0847
       Tot       1.3517
    Quadrupole Moments (Debye-Ang)
        XX    -137.6279     XY      -0.3826     YY    -149.0155
        XZ      -8.3751     YZ      -0.9114     ZZ    -167.5814

 Total job time:  142.97s(wall), 6385.92s(cpu)
        *  Thank you very much for using Q-Chem.  Have a nice day.  *
