 Q-Chem 5.0, Q-Chem, Inc., Pleasanton, CA (2017)
 Q-Chem 5.0.1 for Intel X86 EM64T Linux

User input:
--------------------------------------------------------------
$molecule
0  1
O -2.2861010646 -0.6000989404 2.1670413066
C -2.9555056139 -1.0236829214 1.1964893832
C -3.8170554865 -0.1294095794 0.2254471591
C -3.1223138206 1.2761206284 -0.0444877076
C -1.7153692439 1.3674399867 0.6318195833
O -1.6705730448 2.4779101545 1.5401268585
C -0.3533804181 2.4426087955 2.2197908096
C 0.8149057008 2.9816302895 1.3066756499
O 1.876048309 1.9481192937 1.3720350748
C 2.351269308 1.5827351119 0.0687867101
C 3.4592592197 0.5031123563 0.317072586
C 2.9580079656 -0.9806768177 0.5854454235
C 1.5112895996 -1.3887572385 0.1202081775
O 0.8636546244 -2.3539073709 0.5976129314
O -2.9653009316 -2.3761447158 0.7567862115
O 1.1821464997 -0.7023171158 -1.0751368071
O 1.961860157 2.0990026962 -0.998941072
C 0.0146598055 -1.3285649611 -1.7491755506
C 4.4584283463 0.2876450848 -0.8987006931
C 5.8329001671 -0.1912507637 -0.2897166789
C 5.4438145028 -1.637358282 0.1956706071
C 3.9697827959 -1.7700736364 -0.3641864302
O 3.9670241457 -0.9306924503 -1.5830229838
H 4.0160454149 0.8446722832 1.2082224901
H 3.072846135 -1.2634375401 1.646495704
H 4.5094133654 1.1360538761 -1.6082849528
H 6.6078751367 -0.2254258721 -1.0723786325
H 6.1823207312 0.4568714222 0.5297559259
H 6.0968243919 -2.4060764101 -0.2468384466
H 5.4750934543 -1.7380756843 1.292618536
H 3.6526282963 -2.8039858109 -0.6033525387
O -0.71764488 0.6596378439 0.3702026007
C -1.9275254473 -3.1547245245 1.4821182662
C -3.9142346138 -0.7079601045 -1.2464078436
C -5.0772616611 0.0405886346 -2.0040912473
C -4.4225674212 1.4493449275 -2.2582472732
C -2.9912744279 1.2432076324 -1.6253910817
O -2.6940731169 -0.1804506076 -1.905920511
H -4.8214570282 0.0094069094 0.6664731243
H -3.7451484866 2.1169663439 0.3061990983
H -2.0259303989 -3.03419918 2.5791704321
H -3.933066823 -1.8133247725 -1.2959316001
H -5.3091533431 -0.4718495653 -2.9513293974
H -5.996776441 0.0993798195 -1.3999803011
H -4.3380957391 1.6670340946 -3.334777491
H -4.9744393002 2.2705656107 -1.7735882633
H -2.1916145504 1.8901453152 -2.0354567531
H -0.9036247537 -2.8384669371 1.1616929455
H -2.0995220743 -4.2112462345 1.2070626032
H 0.2436386838 -1.3197909291 -2.8314838414
H -0.9295234423 -0.7602744728 -1.5653360472
H -0.1113104796 -2.370341916 -1.3960081656
H 0.4912602853 3.1174898552 0.2518432881
H 1.2185362067 3.9420165826 1.6910319727
H -0.0978093605 1.4060118965 2.5260879039
H -0.4737837964 3.0765316335 3.1205488023
$end

$rem
JOBTYPE                   OPT
METHOD                    B3LYP
DFT_D                     d3_op
BASIS                     STO-3G
GEOM_OPT_MAX_CYCLES       100
GEOM_OPT_TOL_GRADIENT     300
GEOM_OPT_TOL_DISPLACEMENT 1200
GEOM_OPT_TOL_ENERGY       100
SYMMETRY                  False
THRESH                    12
SCF_CONVERGENCE           8
MAX_SUB_FILE_NUM          128
MEM_STATIC                400
MEM_TOTAL                 4000
$end
--------------------------------------------------------------

   15   -1510.2882935519      9.30E-09 Convergence criterion met
 Total energy in the final basis set = -1510.28829355
   15   -1510.0894893295      7.62E-09 Convergence criterion met
 Total energy in the final basis set = -1510.08948933
   16   -1510.2754907442      2.34E-09 Convergence criterion met
 Total energy in the final basis set = -1510.27549074
   15   -1510.2814109231      9.62E-09 Convergence criterion met
 Total energy in the final basis set = -1510.28141092
   14   -1510.2542165565      5.96E-09 Convergence criterion met
 Total energy in the final basis set = -1510.25421656
   14   -1510.2827534639      4.47E-09 Convergence criterion met
 Total energy in the final basis set = -1510.28275346
   14   -1510.2823073101      3.12E-09 Convergence criterion met
 Total energy in the final basis set = -1510.28230731
   13   -1510.2851121816      6.48E-09 Convergence criterion met
   12   -1510.2970464576      8.23E-09 Convergence criterion met
 Total energy in the final basis set = -1510.29704646
   12   -1510.2971234802      7.80E-09 Convergence criterion met
 Total energy in the final basis set = -1510.29712348
   11   -1510.2971330058      8.40E-09 Convergence criterion met
 Total energy in the final basis set = -1510.29713301
   11   -1510.2971418883      4.60E-09 Convergence criterion met
 Total energy in the final basis set = -1510.29714189
   11   -1510.2971439022      2.16E-09 Convergence criterion met
 Total energy in the final basis set = -1510.29714390
   10   -1510.2971446658      8.35E-09 Convergence criterion met
 Total energy in the final basis set = -1510.29714467

             Standard Nuclear Orientation (Angstroms)
    I     Atom           X                Y                Z
 ----------------------------------------------------------------
    1      O       1.9766671447     0.9572625441     1.7967831748
    2      C       3.1105800833     1.0041432033     1.2687043963
    3      C       3.6031808636     0.2765473638    -0.0270206004
    4      C       2.6547816371    -0.8919782849    -0.5224525016
    5      C       1.3334671832    -1.0520974562     0.3114043121
    6      O       1.6027010088    -1.7328859947     1.5401579500
    7      C       0.3793291889    -1.7214121032     2.3817633457
    8      C      -0.7107639047    -2.7689174504     1.9120377961
    9      O      -1.9931972327    -2.0633691954     1.6840494232
   10      C      -2.2898592242    -1.9774390024     0.2858606218
   11      C      -3.5668857017    -1.0833639167     0.1266128128
   12      C      -3.3657367870     0.4781395500     0.3812738767
   13      C      -1.8944431347     0.9358262395     0.7246289974
   14      O      -1.3048272576     0.7562157751     1.8169783019
   15      O       4.1891007267     1.7949649098     1.7717912117
   16      O      -1.3608167335     1.6549519414    -0.3806608853
   17      O      -1.6645301282    -2.5808287667    -0.6129218329
   18      C      -0.0022686275     2.1777148858    -0.0948665153
   19      C      -4.0929998378    -1.0806452039    -1.3697846671
   20      C      -5.6065830399    -0.6330164512    -1.3607825954
   21      C      -5.4598759044     0.9035066498    -1.0553187735
   22      C      -3.8871205503     1.0601204846    -0.9984969315
   23      O      -3.3993870424     0.0717575570    -1.9878221005
   24      H      -4.3320230423    -1.4745975620     0.8219506399
   25      H      -4.0030836838     0.7983725774     1.2259850221
   26      H      -3.8658299967    -2.0106814412    -1.9263989620
   27      H      -6.0637888320    -0.8063054528    -2.3479980236
   28      H      -6.1972412306    -1.1664583202    -0.5990227038
   29      H      -5.8799098266     1.5196005586    -1.8660111032
   30      H      -5.9389478062     1.1947796650    -0.1069474808
   31      H      -3.4999794295     2.0685022853    -1.2362705266
   32      O       0.1945415054    -0.7094192489    -0.0696987971
   33      C       3.7495619229     2.5410461626     2.9747398212
   34      C       3.5621144229     1.2493443994    -1.2882534422
   35      C       4.4581105169     0.6235315896    -2.4256187080
   36      C       3.5425720525    -0.5586886121    -2.9201005048
   37      C       2.2880986657    -0.3904935932    -1.9801479638
   38      O       2.1869825095     1.0817598203    -1.8116983815
   39      H       4.6322375860    -0.0820180112     0.1521704513
   40      H       3.1946302751    -1.8555372748    -0.5330675030
   41      H       3.4159328793     1.8548685391     3.7795213691
   42      H       3.7655505899     2.3126088629    -1.0549827284
   43      H       4.6307219745     1.3612193067    -3.2252444893
   44      H       5.4324044162     0.2788940420    -2.0440298777
   45      H       3.2532895324    -0.4310305106    -3.9752824997
   46      H       4.0191423569    -1.5448916092    -2.8015940029
   47      H       1.3314391467    -0.7932367725    -2.3659305677
   48      H       2.9191282839     3.2378768467     2.7399015090
   49      H       4.6305806090     3.1148190839     3.3160051711
   50      H      -0.0399738983     3.2828340671    -0.1648957261
   51      H       0.7210797641     1.7701546829    -0.8428344103
   52      H       0.3211690808     1.8688386204     0.9201852937
   53      H      -0.3983114066    -3.2669385328     0.9679303131
   54      H      -0.8881243110    -3.5324777866     2.6963146425
   55      H      -0.1009470661    -0.7111129020     2.3634337102
   56      H       0.7318597620    -1.9588347746     3.4041901920
 ----------------------------------------------------------------

    8   -1510.2971448094      7.87E-09 Convergence criterion met
 Total energy in the final basis set = -1510.29714481
 Final energy is   -1510.29714480939
 **  OPTIMIZATION CONVERGED  **

                    Orbital Energies (a.u.)
 --------------------------------------------------------------

 Alpha MOs
 -- Occupied --
-18.944 -18.918 -18.918 -18.914 -18.902 -18.888 -18.873 -18.863
-18.862 -18.853 -10.108 -10.090 -10.088 -10.083 -10.070 -10.069
-10.061 -10.054 -10.047 -10.046 -10.044 -10.044 -10.037 -10.026
-10.025 -10.024 -10.023 -10.016 -10.010 -10.009  -1.021  -1.004
 -0.994  -0.987  -0.979  -0.956  -0.944  -0.927  -0.920  -0.913
 -0.767  -0.750  -0.727  -0.713  -0.710  -0.696  -0.684  -0.668
 -0.633  -0.610  -0.591  -0.572  -0.548  -0.539  -0.531  -0.525
 -0.513  -0.497  -0.477  -0.462  -0.459  -0.455  -0.448  -0.437
 -0.429  -0.428  -0.420  -0.417  -0.413  -0.400  -0.393  -0.384
 -0.380  -0.379  -0.367  -0.359  -0.358  -0.349  -0.347  -0.344
 -0.338  -0.332  -0.331  -0.322  -0.319  -0.317  -0.316  -0.312
 -0.306  -0.301  -0.297  -0.294  -0.281  -0.277  -0.275  -0.266
 -0.263  -0.260  -0.247  -0.240  -0.231  -0.226  -0.217  -0.185
 -0.169  -0.163  -0.161  -0.153  -0.147  -0.143  -0.139  -0.135
 -0.128

          Ground-State Mulliken Net Atomic Charges

     Atom                 Charge (a.u.)
  ----------------------------------------
      1 O                    -0.205034
      2 C                     0.213850
      3 C                    -0.079108
      4 C                    -0.081260
      5 C                     0.215712
      6 O                    -0.177712
      7 C                    -0.061053
      8 C                    -0.056204
      9 O                    -0.172408
     10 C                     0.217497
     11 C                    -0.077727
     12 C                    -0.076099
     13 C                     0.219350
     14 O                    -0.223179
     15 O                    -0.168958
     16 O                    -0.165958
     17 O                    -0.213077
     18 C                    -0.155137
     19 C                     0.024278
     20 C                    -0.144169
     21 C                    -0.145322
     22 C                     0.024969
     23 O                    -0.186759
     24 H                     0.082442
     25 H                     0.081090
     26 H                     0.086358
     27 H                     0.075735
     28 H                     0.070880
     29 H                     0.075475
     30 H                     0.070750
     31 H                     0.090224
     32 O                    -0.214491
     33 C                    -0.128538
     34 C                     0.026518
     35 C                    -0.142634
     36 C                    -0.143916
     37 C                     0.027028
     38 O                    -0.185055
     39 H                     0.088527
     40 H                     0.085776
     41 H                     0.092544
     42 H                     0.085753
     43 H                     0.079978
     44 H                     0.075404
     45 H                     0.080898
     46 H                     0.075467
     47 H                     0.098883
     48 H                     0.090900
     49 H                     0.092127
     50 H                     0.067542
     51 H                     0.107301
     52 H                     0.099821
     53 H                     0.097822
     54 H                     0.081191
     55 H                     0.120144
     56 H                     0.081562
  ----------------------------------------
  Sum of atomic charges =     0.000000

                    Cartesian Multipole Moments
 -----------------------------------------------------------------
    Charge (ESU x 10^10)
                -0.0000
    Dipole Moment (Debye)
         X       2.3296      Y       0.3930      Z       1.0608
       Tot       2.5898
    Quadrupole Moments (Debye-Ang)
        XX    -136.8239     XY       2.4812     YY    -153.1360
        XZ      -2.5952     YZ       1.7770     ZZ    -159.2275

 Total job time:  168.81s(wall), 8055.85s(cpu)
        *  Thank you very much for using Q-Chem.  Have a nice day.  *
