 Q-Chem 5.0, Q-Chem, Inc., Pleasanton, CA (2017)
 Q-Chem 5.0.1 for Intel X86 EM64T Linux

User input:
--------------------------------------------------------------
$molecule
0  1
O -3.94934 -3.66094 2.70899
C -3.26408 -4.56952 2.26188
C -3.36658 -6.02376 2.66595
C -4.77037 -6.57034 2.97329
C -5.93309 -5.6513 2.67075
O -6.66172 -5.43581 3.80569
C -7.72558 -4.49576 3.62188
C -8.89323 -5.15828 2.89814
O -9.30408 -4.34666 1.78668
C -9.4443 -5.00103 0.60716
C -9.88534 -4.09637 -0.51878
C -8.76254 -3.27015 -1.16296
C -7.34914 -3.71717 -0.84802
O -6.34966 -3.01803 -0.93044
O -2.40847 -4.27629 1.24601
O -7.14628 -5.06254 -0.9412
O -9.41837 -6.22123 0.4913
C -5.95283 -5.65523 -1.3102
C -10.41752 -4.84253 -1.76765
C -11.33399 -3.91652 -2.56792
C -10.32356 -2.93919 -3.13251
C -9.02106 -3.58583 -2.64844
O -9.30965 -4.96193 -2.62245
H -10.72556 -3.47881 -0.12738
H -8.83023 -2.18352 -0.93607
H -10.95454 -5.78563 -1.52645
H -11.74964 -4.52037 -3.40658
H -12.17242 -3.45773 -2.00101
H -10.39236 -2.96516 -4.24269
H -10.4171 -1.89351 -2.76712
H -8.16861 -3.28073 -3.2954
O -6.15057 -5.13258 1.58808
C -2.23293 -3.0172 0.71097
C -2.93367 -7.01371 1.55922
C -2.55943 -8.36389 2.17496
C -3.9287 -8.90558 2.52401
C -4.81615 -7.77001 2.01146
O -4.12834 -7.30201 0.8772
H -2.69562 -6.12847 3.54734
H -4.84836 -6.91128 4.03194
H -1.87207 -2.31585 1.49344
H -2.08821 -6.65396 0.93519
H -2.12366 -9.00265 1.3737
H -1.8437 -8.29393 3.02222
H -4.11298 -9.81738 1.91272
H -4.09139 -9.13496 3.59925
H -5.8522 -8.13756 1.83872
H -3.18966 -2.6462 0.28472
H -1.47706 -3.06864 -0.09922
H -6.06334 -6.75777 -1.26062
H -5.12382 -5.33997 -0.64403
H -5.69957 -5.36898 -2.35298
H -8.63833 -6.21207 2.64609
H -9.74642 -5.23026 3.60714
H -7.37092 -3.56495 3.12092
H -8.07956 -4.17565 4.6255
$end

$opt
CONSTRAINT
tors           1           2           3           4     +36.238
tors           3           4           5           6    -121.961
tors           4           5           6           7    +175.702
tors           5           6           7           8     +77.282
tors           6           7           8           9    -129.856
tors           7           8           9          10    +130.831
tors           8           9          10          11    +179.655
tors           9          10          11          12     +80.727
tors          11          12          13          14    -158.225
ENDCONSTRAINT
$end

$rem
JOBTYPE                   OPT
METHOD                    B3LYP
DFT_D                     d3_op
BASIS                     STO-3G
GEOM_OPT_MAX_CYCLES       100
GEOM_OPT_TOL_GRADIENT     300
GEOM_OPT_TOL_DISPLACEMENT 1200
GEOM_OPT_TOL_ENERGY       100
SYMMETRY                  False
THRESH                    12
SCF_CONVERGENCE           8
MAX_SUB_FILE_NUM          128
MEM_STATIC                400
MEM_TOTAL                 4000
$end
--------------------------------------------------------------

   16   -1510.1497139079      1.72E-09 Convergence criterion met
 Total energy in the final basis set = -1510.14971391
   13   -1510.2201000727      8.80E-09 Convergence criterion met
 Total energy in the final basis set = -1510.22010007
   14   -1510.2575550112      2.42E-09 Convergence criterion met
 Total energy in the final basis set = -1510.25755501
    2   -1510.2575550111      5.67E-09 Convergence criterion met
 Total energy in the final basis set = -1510.25755501
   14   -1510.2697759172      5.38E-09 Convergence criterion met
 Total energy in the final basis set = -1510.26977592
   13   -1510.2803789443      9.82E-09 Convergence criterion met
 Total energy in the final basis set = -1510.28037894
   14   -1510.2759573624      7.78E-09 Convergence criterion met
 Total energy in the final basis set = -1510.27595736
   13   -1510.2841383386      8.82E-09 Convergence criterion met
   11   -1510.2881308824      7.68E-09 Convergence criterion met
 Total energy in the final basis set = -1510.28813088
   10   -1510.2881403093      6.85E-09 Convergence criterion met
 Total energy in the final basis set = -1510.28814031
   11   -1510.2881422127      5.37E-09 Convergence criterion met
 Total energy in the final basis set = -1510.28814221
    9   -1510.2881452727      6.74E-09 Convergence criterion met
 Total energy in the final basis set = -1510.28814527
    9   -1510.2881479637      7.66E-09 Convergence criterion met
 Total energy in the final basis set = -1510.28814796
    9   -1510.2881484958      3.43E-09 Convergence criterion met
 Total energy in the final basis set = -1510.28814850

             Standard Nuclear Orientation (Angstroms)
    I     Atom           X                Y                Z
 ----------------------------------------------------------------
    1      O      -2.2861010646    -0.6000989404     2.1670413066
    2      C      -2.9555056139    -1.0236829214     1.1964893832
    3      C      -3.8170554865    -0.1294095794     0.2254471591
    4      C      -3.1223138206     1.2761206284    -0.0444877076
    5      C      -1.7153692439     1.3674399867     0.6318195833
    6      O      -1.6705730448     2.4779101545     1.5401268585
    7      C      -0.3533804181     2.4426087955     2.2197908096
    8      C       0.8149057008     2.9816302895     1.3066756499
    9      O       1.8760483090     1.9481192937     1.3720350748
   10      C       2.3512693080     1.5827351119     0.0687867101
   11      C       3.4592592197     0.5031123563     0.3170725860
   12      C       2.9580079656    -0.9806768177     0.5854454235
   13      C       1.5112895996    -1.3887572385     0.1202081775
   14      O       0.8636546244    -2.3539073709     0.5976129314
   15      O      -2.9653009316    -2.3761447158     0.7567862115
   16      O       1.1821464997    -0.7023171158    -1.0751368071
   17      O       1.9618601570     2.0990026962    -0.9989410720
   18      C       0.0146598055    -1.3285649611    -1.7491755506
   19      C       4.4584283463     0.2876450848    -0.8987006931
   20      C       5.8329001671    -0.1912507637    -0.2897166789
   21      C       5.4438145028    -1.6373582820     0.1956706071
   22      C       3.9697827959    -1.7700736364    -0.3641864302
   23      O       3.9670241457    -0.9306924503    -1.5830229838
   24      H       4.0160454149     0.8446722832     1.2082224901
   25      H       3.0728461350    -1.2634375401     1.6464957040
   26      H       4.5094133654     1.1360538761    -1.6082849528
   27      H       6.6078751367    -0.2254258721    -1.0723786325
   28      H       6.1823207312     0.4568714222     0.5297559259
   29      H       6.0968243919    -2.4060764101    -0.2468384466
   30      H       5.4750934543    -1.7380756843     1.2926185360
   31      H       3.6526282963    -2.8039858109    -0.6033525387
   32      O      -0.7176448800     0.6596378439     0.3702026007
   33      C      -1.9275254473    -3.1547245245     1.4821182662
   34      C      -3.9142346138    -0.7079601045    -1.2464078436
   35      C      -5.0772616611     0.0405886346    -2.0040912473
   36      C      -4.4225674212     1.4493449275    -2.2582472732
   37      C      -2.9912744279     1.2432076324    -1.6253910817
   38      O      -2.6940731169    -0.1804506076    -1.9059205110
   39      H      -4.8214570282     0.0094069094     0.6664731243
   40      H      -3.7451484866     2.1169663439     0.3061990983
   41      H      -2.0259303989    -3.0341991800     2.5791704321
   42      H      -3.9330668230    -1.8133247725    -1.2959316001
   43      H      -5.3091533431    -0.4718495653    -2.9513293974
   44      H      -5.9967764410     0.0993798195    -1.3999803011
   45      H      -4.3380957391     1.6670340946    -3.3347774910
   46      H      -4.9744393002     2.2705656107    -1.7735882633
   47      H      -2.1916145504     1.8901453152    -2.0354567531
   48      H      -0.9036247537    -2.8384669371     1.1616929455
   49      H      -2.0995220743    -4.2112462345     1.2070626032
   50      H       0.2436386838    -1.3197909291    -2.8314838414
   51      H      -0.9295234423    -0.7602744728    -1.5653360472
   52      H      -0.1113104796    -2.3703419160    -1.3960081656
   53      H       0.4912602853     3.1174898552     0.2518432881
   54      H       1.2185362067     3.9420165826     1.6910319727
   55      H      -0.0978093605     1.4060118965     2.5260879039
   56      H      -0.4737837964     3.0765316335     3.1205488023
 ----------------------------------------------------------------

    9   -1510.2881492398      2.89E-09 Convergence criterion met
 Total energy in the final basis set = -1510.28814924
 Final energy is   -1510.28814923985
 **  OPTIMIZATION CONVERGED  **

                    Orbital Energies (a.u.)
 --------------------------------------------------------------

 Alpha MOs
 -- Occupied --
-18.930 -18.929 -18.922 -18.921 -18.901 -18.882 -18.870 -18.870
-18.864 -18.857 -10.096 -10.094 -10.093 -10.089 -10.066 -10.065
-10.063 -10.063 -10.055 -10.053 -10.041 -10.039 -10.038 -10.031
-10.030 -10.025 -10.024 -10.023 -10.016 -10.015  -1.012  -1.005
 -1.000  -0.995  -0.978  -0.964  -0.934  -0.929  -0.926  -0.919
 -0.766  -0.756  -0.726  -0.719  -0.712  -0.703  -0.691  -0.650
 -0.637  -0.614  -0.592  -0.577  -0.548  -0.541  -0.538  -0.532
 -0.510  -0.504  -0.478  -0.466  -0.463  -0.453  -0.449  -0.438
 -0.433  -0.427  -0.425  -0.410  -0.407  -0.398  -0.394  -0.390
 -0.384  -0.374  -0.365  -0.360  -0.358  -0.355  -0.347  -0.341
 -0.337  -0.336  -0.332  -0.326  -0.324  -0.324  -0.318  -0.313
 -0.306  -0.302  -0.300  -0.296  -0.288  -0.282  -0.277  -0.274
 -0.264  -0.255  -0.245  -0.241  -0.239  -0.229  -0.227  -0.180
 -0.168  -0.164  -0.161  -0.152  -0.149  -0.147  -0.144  -0.140
 -0.137

          Ground-State Mulliken Net Atomic Charges

     Atom                 Charge (a.u.)
  ----------------------------------------
      1 O                    -0.215316
      2 C                     0.211478
      3 C                    -0.078876
      4 C                    -0.081226
      5 C                     0.211560
      6 O                    -0.171021
      7 C                    -0.049987
      8 C                    -0.054552
      9 O                    -0.176751
     10 C                     0.218958
     11 C                    -0.078480
     12 C                    -0.075006
     13 C                     0.218838
     14 O                    -0.230057
     15 O                    -0.171932
     16 O                    -0.157679
     17 O                    -0.208060
     18 C                    -0.144337
     19 C                     0.025394
     20 C                    -0.142606
     21 C                    -0.145043
     22 C                     0.024807
     23 O                    -0.186078
     24 H                     0.083674
     25 H                     0.084324
     26 H                     0.087408
     27 H                     0.077007
     28 H                     0.072326
     29 H                     0.077254
     30 H                     0.073361
     31 H                     0.082042
     32 O                    -0.218086
     33 C                    -0.142577
     34 C                     0.024542
     35 C                    -0.143414
     36 C                    -0.143526
     37 C                     0.026667
     38 O                    -0.186447
     39 H                     0.084736
     40 H                     0.086456
     41 H                     0.085457
     42 H                     0.096487
     43 H                     0.079497
     44 H                     0.074795
     45 H                     0.079930
     46 H                     0.075451
     47 H                     0.088506
     48 H                     0.115885
     49 H                     0.083372
     50 H                     0.080623
     51 H                     0.113978
     52 H                     0.083452
     53 H                     0.100681
     54 H                     0.081250
     55 H                     0.104464
     56 H                     0.086399
  ----------------------------------------
  Sum of atomic charges =    -0.000000

                    Cartesian Multipole Moments
 -----------------------------------------------------------------
    Charge (ESU x 10^10)
                -0.0000
    Dipole Moment (Debye)
         X      -1.1426      Y       0.9509      Z       0.9232
       Tot       1.7498
    Quadrupole Moments (Debye-Ang)
        XX    -137.5379     XY      -2.2014     YY    -154.1717
        XZ       9.6136     YZ       1.3237     ZZ    -163.0035

 Total job time:  78.88s(wall), 3755.56s(cpu)
        *  Thank you very much for using Q-Chem.  Have a nice day.  *
