 Q-Chem 5.0, Q-Chem, Inc., Pleasanton, CA (2017)
 Q-Chem 5.0.1 for Intel X86 EM64T Linux

User input:
--------------------------------------------------------------
$molecule
0  1
O -2.4064902055 -0.9719591941 2.3172076387
C -2.8839688247 -1.2904417215 1.2055994027
C -3.7315220371 -0.3544407849 0.2623580663
C -3.2045766793 1.1409961762 0.2297632557
C -1.7733614398 1.2890636231 0.8420005553
O -1.6671048926 2.536151607 1.5430427241
C -0.3221126869 2.5949699296 2.1650974536
C 0.783379681 3.0533222626 1.1372285738
O 1.8980329392 2.0804480761 1.2187403625
C 2.2811914019 1.6303505555 -0.0917735433
C 3.4603548324 0.6236635489 0.1152013098
C 3.0538985382 -0.8470071535 0.5556390411
C 1.5719117302 -1.3021966964 0.2864670841
O 0.9434771451 -2.1355961088 0.9834910549
O -2.7166843169 -2.5655735602 0.5923960019
O 1.1506452344 -0.7756618867 -0.9605042395
O 1.7702018906 2.0436907061 -1.153760091
C -0.098294249 -1.4158250774 -1.4465070429
C 4.327972607 0.3377964243 -1.1851434003
C 5.7786634137 -0.0459148822 -0.6948647399
C 5.502943562 -1.4584435696 -0.0562399072
C 3.9831793615 -1.6818597922 -0.4358869286
O 3.8153572457 -0.948079474 -1.7095074279
H 4.0970391607 1.0599696503 0.9062296349
H 3.2888400536 -1.0376701051 1.6173075027
H 4.2672339165 1.1243362935 -1.9621388731
H 6.4648335841 -0.1216080587 -1.5537035969
H 6.1893029545 0.6790518266 0.0258169291
H 6.1341190644 -2.2403231531 -0.5072542666
H 5.6569431195 -1.4675214827 1.0347825489
H 3.6823471647 -2.7410401991 -0.5552324672
O -0.8127360942 0.5013042501 0.7005561882
C -1.7756929288 -3.3899781245 1.3948328784
C -3.7024754458 -0.7338713719 -1.2776767152
C -4.9668424563 -0.0865882832 -1.9605684389
C -4.5697383077 1.4376758142 -1.9468332579
C -3.1127907887 1.3756051283 -1.3408059695
O -2.5888466864 0.0776644521 -1.8279589553
H -4.7738943404 -0.3711214881 0.6323251144
H -3.893743686 1.8484184977 0.7219424378
H -2.095884767 -3.4528152795 2.4536905126
H -3.533789757 -1.8096566232 -1.4745814044
H -5.0812565839 -0.4621115386 -2.9900689567
H -5.8946808987 -0.2923857973 -1.4032965265
H -4.5469845874 1.8609603828 -2.9635100234
H -5.2454204773 2.0464619857 -1.3249036541
H -2.4389321209 2.2007895677 -1.6433579218
H -0.7450353941 -2.9627609968 1.337474994
H -1.7966228182 -4.3967287695 0.9391992954
H 0.1089868813 -1.7862525319 -2.4693710779
H -0.9377431556 -0.6792256965 -1.478852394
H -0.3761153222 -2.262002458 -0.7915767834
H 0.3919365837 3.0685229627 0.0959260502
H 1.1676846608 4.0635318599 1.3917598258
H -0.0317819364 1.6004406957 2.5658412731
H -0.4123004702 3.3223675407 2.9956936847
$end

$rem
JOBTYPE                   OPT
METHOD                    B3LYP
DFT_D                     d3_op
BASIS                     STO-3G
GEOM_OPT_MAX_CYCLES       100
GEOM_OPT_TOL_GRADIENT     300
GEOM_OPT_TOL_DISPLACEMENT 1200
GEOM_OPT_TOL_ENERGY       100
SYMMETRY                  False
THRESH                    12
SCF_CONVERGENCE           8
MAX_SUB_FILE_NUM          128
MEM_STATIC                400
MEM_TOTAL                 4000
$end
--------------------------------------------------------------

   16   -1510.2906053453      7.58E-09 Convergence criterion met
 Total energy in the final basis set = -1510.29060535
   14   -1510.2192186714      5.72E-09 Convergence criterion met
 Total energy in the final basis set = -1510.21921867
   15   -1510.2908684916      4.64E-09 Convergence criterion met
 Total energy in the final basis set = -1510.29086849
   15   -1510.2619358270      5.82E-09 Convergence criterion met
 Total energy in the final basis set = -1510.26193583
   15   -1510.2711737364      6.89E-09 Convergence criterion met
 Total energy in the final basis set = -1510.27117374
   14   -1510.2789350843      9.38E-09 Convergence criterion met
 Total energy in the final basis set = -1510.27893508
   14   -1510.2893643162      5.76E-09 Convergence criterion met
 Total energy in the final basis set = -1510.28936432
   13   -1510.2877324204      6.10E-09 Convergence criterion met
   11   -1510.2947325610      4.59E-09 Convergence criterion met
 Total energy in the final basis set = -1510.29473256
   11   -1510.2947384655      8.49E-09 Convergence criterion met
 Total energy in the final basis set = -1510.29473847
   11   -1510.2947444781      8.59E-09 Convergence criterion met
 Total energy in the final basis set = -1510.29474448
   11   -1510.2947511618      8.85E-09 Convergence criterion met
 Total energy in the final basis set = -1510.29475116
   11   -1510.2947604053      5.48E-09 Convergence criterion met
 Total energy in the final basis set = -1510.29476041
   11   -1510.2947619883      5.24E-09 Convergence criterion met
 Total energy in the final basis set = -1510.29476199

             Standard Nuclear Orientation (Angstroms)
    I     Atom           X                Y                Z
 ----------------------------------------------------------------
    1      O      -2.1904791543    -0.5570238597     2.3326698422
    2      C      -2.7524093594    -1.0935388019     1.3506259085
    3      C      -3.6679656524    -0.3484472226     0.3089157045
    4      C      -3.0806940499     1.0764033323    -0.0800955053
    5      C      -1.6722244166     1.3338055727     0.5574275579
    6      O      -1.7699827869     2.4528811382     1.4453752437
    7      C      -0.4807955631     2.6516227232     2.1473191452
    8      C       0.6721966678     3.1966962904     1.2094319011
    9      O       1.8519084658     2.3086222670     1.3043492757
   10      C       2.1082838561     1.6528555833     0.0503642818
   11      C       3.3618026759     0.7420771840     0.2649008223
   12      C       3.0801638316    -0.8152483376     0.4356861808
   13      C       1.5859799641    -1.2891950016     0.3079005429
   14      O       0.8704168620    -1.6740735592     1.2641569111
   15      O      -2.6499074394    -2.4739874800     1.0217139018
   16      O       1.2296169979    -1.3150531020    -1.0627864052
   17      O       1.4646582087     1.8637124069    -0.9994738598
   18      C      -0.1000418531    -1.9363483435    -1.2856355864
   19      C       4.3195355750     0.7376176589    -1.0044110794
   20      C       5.7495061619     0.2640255267    -0.5290553756
   21      C       5.5003882853    -1.2756805754    -0.3203860230
   22      C       3.9803143464    -1.4003218164    -0.7381161044
   23      O       3.8309893567    -0.3978700580    -1.8157381007
   24      H       3.8849522320     1.1237118659     1.1590604454
   25      H       3.4325456042    -1.1518372281     1.4271267925
   26      H       4.2980114019     1.6723957632    -1.5970594496
   27      H       6.4983720520     0.4491522294    -1.3154796068
   28      H       6.0709032919     0.7736934347     0.3930489525
   29      H       6.1332023267    -1.8818442110    -0.9881077372
   30      H       5.6725307539    -1.5990409246     0.7186112428
   31      H       3.6705960479    -2.4010254240    -1.0958884023
   32      O      -0.6164506350     0.7033685809     0.3339294567
   33      C      -1.6608977877    -3.1254520044     1.9201643287
   34      C      -3.7367015086    -1.0511899175    -1.1083333110
   35      C      -4.9611315725    -0.4562253298    -1.9041959982
   36      C      -4.4176616147     0.9748939445    -2.2759702485
   37      C      -2.9676868004     0.9270488839    -1.6551151373
   38      O      -2.5678568309    -0.4892278899    -1.8290545808
   39      H      -4.6766902242    -0.2452678663     0.7503599757
   40      H      -3.7594728313     1.8950725316     0.2145444633
   41      H      -1.9750443822    -3.0590152536     2.9809459846
   42      H      -3.6714918619    -2.1551054756    -1.0672892686
   43      H      -5.1637778095    -1.0567872025    -2.8054350002
   44      H      -5.8758948420    -0.4192397536    -1.2912413084
   45      H      -4.3653675782     1.1165980189    -3.3671166794
   46      H      -5.0241968596     1.7859160802    -1.8423509327
   47      H      -2.2234238424     1.5955044795    -2.1298055736
   48      H      -0.6601674959    -2.6463828977     1.7901525944
   49      H      -1.6289014718    -4.1855141345     1.6092681934
   50      H      -0.0304107739    -2.4535087989    -2.2611447590
   51      H      -0.9183686827    -1.1751834717    -1.3356210290
   52      H      -0.3316057301    -2.6716049088    -0.4927937408
   53      H       0.3350950433     3.2314397410     0.1497005981
   54      H       0.9869621821     4.2104698376     1.5323134052
   55      H      -0.1369101089     1.6961783902     2.6014951047
   56      H      -0.7041692003     3.3781685710     2.9529237723
 ----------------------------------------------------------------

    9   -1510.2947629251      8.79E-09 Convergence criterion met
 Total energy in the final basis set = -1510.29476293
 Final energy is   -1510.29476292511
 **  OPTIMIZATION CONVERGED  **

                    Orbital Energies (a.u.)
 --------------------------------------------------------------

 Alpha MOs
 -- Occupied --
-18.929 -18.928 -18.923 -18.922 -18.901 -18.882 -18.871 -18.867
-18.866 -18.861 -10.094 -10.094 -10.092 -10.090 -10.065 -10.064
-10.062 -10.062 -10.053 -10.053 -10.040 -10.038 -10.036 -10.031
-10.029 -10.025 -10.024 -10.023 -10.015 -10.014  -1.011  -1.004
 -0.999  -0.995  -0.978  -0.963  -0.934  -0.929  -0.926  -0.921
 -0.765  -0.756  -0.725  -0.718  -0.711  -0.703  -0.691  -0.649
 -0.639  -0.615  -0.592  -0.576  -0.547  -0.540  -0.537  -0.531
 -0.509  -0.505  -0.476  -0.466  -0.462  -0.452  -0.450  -0.438
 -0.434  -0.428  -0.426  -0.414  -0.407  -0.396  -0.392  -0.386
 -0.385  -0.373  -0.367  -0.361  -0.357  -0.352  -0.345  -0.343
 -0.336  -0.334  -0.332  -0.326  -0.325  -0.321  -0.318  -0.312
 -0.305  -0.301  -0.298  -0.296  -0.290  -0.281  -0.274  -0.271
 -0.268  -0.255  -0.246  -0.240  -0.238  -0.231  -0.227  -0.177
 -0.168  -0.165  -0.162  -0.151  -0.149  -0.146  -0.143  -0.139
 -0.136

          Ground-State Mulliken Net Atomic Charges

     Atom                 Charge (a.u.)
  ----------------------------------------
      1 O                    -0.214608
      2 C                     0.211208
      3 C                    -0.079298
      4 C                    -0.080369
      5 C                     0.212633
      6 O                    -0.171156
      7 C                    -0.050787
      8 C                    -0.056828
      9 O                    -0.174908
     10 C                     0.215321
     11 C                    -0.078247
     12 C                    -0.077292
     13 C                     0.218781
     14 O                    -0.222949
     15 O                    -0.173180
     16 O                    -0.159852
     17 O                    -0.204684
     18 C                    -0.145833
     19 C                     0.026253
     20 C                    -0.143964
     21 C                    -0.144793
     22 C                     0.027413
     23 O                    -0.182396
     24 H                     0.085160
     25 H                     0.082781
     26 H                     0.083978
     27 H                     0.076818
     28 H                     0.072513
     29 H                     0.076695
     30 H                     0.072600
     31 H                     0.083826
     32 O                    -0.214777
     33 C                    -0.145109
     34 C                     0.024128
     35 C                    -0.143253
     36 C                    -0.143548
     37 C                     0.026865
     38 O                    -0.185322
     39 H                     0.084673
     40 H                     0.086571
     41 H                     0.082710
     42 H                     0.095457
     43 H                     0.079274
     44 H                     0.074605
     45 H                     0.079806
     46 H                     0.075197
     47 H                     0.089743
     48 H                     0.119106
     49 H                     0.080737
     50 H                     0.078632
     51 H                     0.117035
     52 H                     0.080714
     53 H                     0.100691
     54 H                     0.081979
     55 H                     0.101396
     56 H                     0.087854
  ----------------------------------------
  Sum of atomic charges =    -0.000000

                    Cartesian Multipole Moments
 -----------------------------------------------------------------
    Charge (ESU x 10^10)
                -0.0000
    Dipole Moment (Debye)
         X      -0.9617      Y       0.5753      Z       0.6533
       Tot       1.2972
    Quadrupole Moments (Debye-Ang)
        XX    -137.4126     XY      -0.7514     YY    -149.5854
        XZ       8.2542     YZ       0.8267     ZZ    -165.9600

 Total job time:  120.26s(wall), 5741.37s(cpu)
        *  Thank you very much for using Q-Chem.  Have a nice day.  *
