 Q-Chem 5.0, Q-Chem, Inc., Pleasanton, CA (2017)
 Q-Chem 5.0.1 for Intel X86 EM64T Linux

User input:
--------------------------------------------------------------
$molecule
0  1
O -3.94934 -3.66094 2.70899
C -3.26408 -4.56952 2.26188
C -3.36658 -6.02376 2.66595
C -4.77596 -6.5874 2.91049
C -5.93512 -5.68424 2.55168
O -6.95257 -5.85758 3.4462
C -8.06243 -4.98406 3.21289
C -8.95407 -5.54951 2.11227
O -9.21618 -4.53806 1.1268
C -9.01601 -4.91294 -0.16105
C -9.31603 -3.81017 -1.14825
C -8.20565 -2.76081 -1.30375
C -6.85062 -3.1447 -0.74409
O -6.01999 -2.36482 -0.3009
O -2.39572 -4.26955 1.25811
O -6.40332 -4.37251 -1.1339
O -8.79779 -6.06569 -0.51635
C -5.07515 -4.72113 -1.28356
C -9.44748 -4.28385 -2.61696
C -10.28225 -3.27721 -3.40908
C -9.31728 -2.11214 -3.48889
C -8.07909 -2.74066 -2.83998
O -8.17159 -4.10348 -3.1745
H -10.29981 -3.3767 -0.85714
H -8.47411 -1.76404 -0.88972
H -9.88774 -5.29965 -2.71843
H -10.41278 -3.69985 -4.43139
H -11.28114 -3.03803 -2.98504
H -9.13104 -1.8835 -4.56174
H -9.63532 -1.19284 -2.95092
H -7.15463 -2.22017 -3.17585
O -6.04479 -5.08351 1.49544
C -2.18637 -3.00123 0.75682
C -2.85455 -7.00014 1.58521
C -2.51663 -8.35541 2.21139
C -3.90364 -8.91152 2.44245
C -4.75718 -7.76115 1.90848
O -4.00337 -7.27301 0.8254
H -2.75285 -6.10853 3.58989
H -4.9192 -6.98042 3.94369
H -1.80892 -2.33125 1.55853
H -1.97038 -6.63041 1.02373
H -2.00771 -8.98661 1.44832
H -1.87723 -8.27761 3.11711
H -4.04373 -9.7941 1.77843
H -4.13768 -9.19266 3.49184
H -5.77846 -8.12945 1.66296
H -3.13048 -2.59077 0.33986
H -1.43059 -3.05098 -0.05348
H -5.01092 -5.78525 -1.58939
H -4.51578 -4.58518 -0.34033
H -4.60852 -4.09392 -2.07247
H -8.51565 -6.49314 1.71668
H -9.923 -5.84873 2.56765
H -7.73161 -3.9377 3.0136
H -8.66045 -4.9293 4.14799
$end

$opt
CONSTRAINT
tors           1           2           3           4     +38.975
tors           3           4           5           6    -144.118
tors           4           5           6           7    +176.957
tors           5           6           7           8     +81.629
tors           6           7           8           9    -129.856
tors           7           8           9          10    +130.831
tors           8           9          10          11    +179.655
tors           9          10          11          12     +79.637
tors          11          12          13          14    -150.420
ENDCONSTRAINT
$end

$rem
JOBTYPE                   OPT
METHOD                    B3LYP
DFT_D                     d3_op
BASIS                     STO-3G
GEOM_OPT_MAX_CYCLES       100
GEOM_OPT_TOL_GRADIENT     300
GEOM_OPT_TOL_DISPLACEMENT 1200
GEOM_OPT_TOL_ENERGY       100
SYMMETRY                  False
THRESH                    12
SCF_CONVERGENCE           8
MAX_SUB_FILE_NUM          128
MEM_STATIC                400
MEM_TOTAL                 4000
$end
--------------------------------------------------------------

   16   -1510.1501457706      1.71E-09 Convergence criterion met
 Total energy in the final basis set = -1510.15014577
   14   -1510.2209278918      6.97E-09 Convergence criterion met
 Total energy in the final basis set = -1510.22092789
   14   -1510.2594649682      2.84E-09 Convergence criterion met
 Total energy in the final basis set = -1510.25946497
   14   -1510.2700467155      4.76E-09 Convergence criterion met
 Total energy in the final basis set = -1510.27004672
   13   -1510.2795889694      8.56E-09 Convergence criterion met
 Total energy in the final basis set = -1510.27958897
   14   -1510.2833827455      3.97E-09 Convergence criterion met
 Total energy in the final basis set = -1510.28338275
   14   -1510.2841976082      5.20E-09 Convergence criterion met
 Total energy in the final basis set = -1510.28419761
   13   -1510.2843568983      9.29E-09 Convergence criterion met
   11   -1510.2906079965      4.01E-09 Convergence criterion met
 Total energy in the final basis set = -1510.29060800
   10   -1510.2906238370      5.09E-09 Convergence criterion met
 Total energy in the final basis set = -1510.29062384
   10   -1510.2906376667      8.46E-09 Convergence criterion met
 Total energy in the final basis set = -1510.29063767
    9   -1510.2906411044      3.26E-09 Convergence criterion met
 Total energy in the final basis set = -1510.29064110
    9   -1510.2906435668      4.21E-09 Convergence criterion met
 Total energy in the final basis set = -1510.29064357
    9   -1510.2906445952      3.81E-09 Convergence criterion met
 Total energy in the final basis set = -1510.29064460

             Standard Nuclear Orientation (Angstroms)
    I     Atom           X                Y                Z
 ----------------------------------------------------------------
    1      O      -2.4064902055    -0.9719591941     2.3172076387
    2      C      -2.8839688247    -1.2904417215     1.2055994027
    3      C      -3.7315220371    -0.3544407849     0.2623580663
    4      C      -3.2045766793     1.1409961762     0.2297632557
    5      C      -1.7733614398     1.2890636231     0.8420005553
    6      O      -1.6671048926     2.5361516070     1.5430427241
    7      C      -0.3221126869     2.5949699296     2.1650974536
    8      C       0.7833796810     3.0533222626     1.1372285738
    9      O       1.8980329392     2.0804480761     1.2187403625
   10      C       2.2811914019     1.6303505555    -0.0917735433
   11      C       3.4603548324     0.6236635489     0.1152013098
   12      C       3.0538985382    -0.8470071535     0.5556390411
   13      C       1.5719117302    -1.3021966964     0.2864670841
   14      O       0.9434771451    -2.1355961088     0.9834910549
   15      O      -2.7166843169    -2.5655735602     0.5923960019
   16      O       1.1506452344    -0.7756618867    -0.9605042395
   17      O       1.7702018906     2.0436907061    -1.1537600910
   18      C      -0.0982942490    -1.4158250774    -1.4465070429
   19      C       4.3279726070     0.3377964243    -1.1851434003
   20      C       5.7786634137    -0.0459148822    -0.6948647399
   21      C       5.5029435620    -1.4584435696    -0.0562399072
   22      C       3.9831793615    -1.6818597922    -0.4358869286
   23      O       3.8153572457    -0.9480794740    -1.7095074279
   24      H       4.0970391607     1.0599696503     0.9062296349
   25      H       3.2888400536    -1.0376701051     1.6173075027
   26      H       4.2672339165     1.1243362935    -1.9621388731
   27      H       6.4648335841    -0.1216080587    -1.5537035969
   28      H       6.1893029545     0.6790518266     0.0258169291
   29      H       6.1341190644    -2.2403231531    -0.5072542666
   30      H       5.6569431195    -1.4675214827     1.0347825489
   31      H       3.6823471647    -2.7410401991    -0.5552324672
   32      O      -0.8127360942     0.5013042501     0.7005561882
   33      C      -1.7756929288    -3.3899781245     1.3948328784
   34      C      -3.7024754458    -0.7338713719    -1.2776767152
   35      C      -4.9668424563    -0.0865882832    -1.9605684389
   36      C      -4.5697383077     1.4376758142    -1.9468332579
   37      C      -3.1127907887     1.3756051283    -1.3408059695
   38      O      -2.5888466864     0.0776644521    -1.8279589553
   39      H      -4.7738943404    -0.3711214881     0.6323251144
   40      H      -3.8937436860     1.8484184977     0.7219424378
   41      H      -2.0958847670    -3.4528152795     2.4536905126
   42      H      -3.5337897570    -1.8096566232    -1.4745814044
   43      H      -5.0812565839    -0.4621115386    -2.9900689567
   44      H      -5.8946808987    -0.2923857973    -1.4032965265
   45      H      -4.5469845874     1.8609603828    -2.9635100234
   46      H      -5.2454204773     2.0464619857    -1.3249036541
   47      H      -2.4389321209     2.2007895677    -1.6433579218
   48      H      -0.7450353941    -2.9627609968     1.3374749940
   49      H      -1.7966228182    -4.3967287695     0.9391992954
   50      H       0.1089868813    -1.7862525319    -2.4693710779
   51      H      -0.9377431556    -0.6792256965    -1.4788523940
   52      H      -0.3761153222    -2.2620024580    -0.7915767834
   53      H       0.3919365837     3.0685229627     0.0959260502
   54      H       1.1676846608     4.0635318599     1.3917598258
   55      H      -0.0317819364     1.6004406957     2.5658412731
   56      H      -0.4123004702     3.3223675407     2.9956936847
 ----------------------------------------------------------------

    9   -1510.2906447080      2.29E-09 Convergence criterion met
 Total energy in the final basis set = -1510.29064471
 Final energy is   -1510.29064470795
 **  OPTIMIZATION CONVERGED  **

                    Orbital Energies (a.u.)
 --------------------------------------------------------------

 Alpha MOs
 -- Occupied --
-18.933 -18.925 -18.924 -18.920 -18.903 -18.883 -18.873 -18.872
-18.863 -18.860 -10.097 -10.095 -10.092 -10.090 -10.068 -10.068
-10.063 -10.063 -10.055 -10.054 -10.041 -10.038 -10.037 -10.032
-10.031 -10.026 -10.024 -10.022 -10.017 -10.016  -1.014  -1.004
 -1.001  -0.994  -0.980  -0.964  -0.936  -0.930  -0.925  -0.920
 -0.767  -0.757  -0.727  -0.719  -0.712  -0.703  -0.692  -0.648
 -0.638  -0.615  -0.593  -0.577  -0.549  -0.542  -0.539  -0.532
 -0.511  -0.505  -0.478  -0.467  -0.462  -0.453  -0.451  -0.440
 -0.435  -0.428  -0.426  -0.414  -0.406  -0.398  -0.394  -0.388
 -0.385  -0.374  -0.368  -0.359  -0.358  -0.356  -0.347  -0.341
 -0.338  -0.337  -0.332  -0.326  -0.325  -0.322  -0.318  -0.314
 -0.306  -0.302  -0.300  -0.296  -0.291  -0.285  -0.278  -0.274
 -0.265  -0.256  -0.244  -0.242  -0.240  -0.229  -0.227  -0.183
 -0.167  -0.165  -0.163  -0.152  -0.151  -0.149  -0.142  -0.140
 -0.136

          Ground-State Mulliken Net Atomic Charges

     Atom                 Charge (a.u.)
  ----------------------------------------
      1 O                    -0.216424
      2 C                     0.211902
      3 C                    -0.079715
      4 C                    -0.079450
      5 C                     0.211861
      6 O                    -0.171573
      7 C                    -0.051601
      8 C                    -0.056257
      9 O                    -0.175983
     10 C                     0.217190
     11 C                    -0.078340
     12 C                    -0.075345
     13 C                     0.219237
     14 O                    -0.225538
     15 O                    -0.174814
     16 O                    -0.161152
     17 O                    -0.207450
     18 C                    -0.147189
     19 C                     0.025972
     20 C                    -0.142590
     21 C                    -0.145108
     22 C                     0.025204
     23 O                    -0.185098
     24 H                     0.083760
     25 H                     0.084781
     26 H                     0.087852
     27 H                     0.077117
     28 H                     0.072337
     29 H                     0.077293
     30 H                     0.073442
     31 H                     0.081719
     32 O                    -0.212078
     33 C                    -0.144751
     34 C                     0.024592
     35 C                    -0.142561
     36 C                    -0.143744
     37 C                     0.027220
     38 O                    -0.185622
     39 H                     0.083593
     40 H                     0.088061
     41 H                     0.084193
     42 H                     0.097066
     43 H                     0.079709
     44 H                     0.075110
     45 H                     0.080335
     46 H                     0.075723
     47 H                     0.087225
     48 H                     0.116894
     49 H                     0.081114
     50 H                     0.077285
     51 H                     0.114135
     52 H                     0.086414
     53 H                     0.100891
     54 H                     0.081217
     55 H                     0.104430
     56 H                     0.087508
  ----------------------------------------
  Sum of atomic charges =    -0.000000

                    Cartesian Multipole Moments
 -----------------------------------------------------------------
    Charge (ESU x 10^10)
                -0.0000
    Dipole Moment (Debye)
         X      -0.9033      Y       1.1525      Z       0.5232
       Tot       1.5550
    Quadrupole Moments (Debye-Ang)
        XX    -135.9831     XY      -1.3019     YY    -152.5463
        XZ       8.6280     YZ       2.7062     ZZ    -166.0893

 Total job time:  89.30s(wall), 4258.26s(cpu)
        *  Thank you very much for using Q-Chem.  Have a nice day.  *
