 Q-Chem 5.0, Q-Chem, Inc., Pleasanton, CA (2017)
 Q-Chem 5.0.1 for Intel X86 EM64T Linux

User input:
--------------------------------------------------------------
$molecule
0  1
O -3.94934 -3.66094 2.70899
C -3.26408 -4.56952 2.26188
C -3.36658 -6.02376 2.66595
C -4.77596 -6.5874 2.91049
C -5.93512 -5.68424 2.55168
O -6.95257 -5.85758 3.4462
C -8.0037 -4.89738 3.29649
C -8.88993 -5.26857 2.11203
O -9.06427 -4.12913 1.25521
C -8.84442 -4.35263 -0.0642
C -9.05021 -3.11996 -0.91205
C -7.88465 -2.12023 -0.89446
C -6.57366 -2.64337 -0.3428
O -5.67724 -1.95652 0.12541
O -2.22446 -4.23677 1.44908
O -6.21234 -3.85086 -0.86337
O -8.67779 -5.46301 -0.55615
C -4.91617 -4.2667 -1.09064
C -9.14599 -3.39233 -2.43406
C -9.90229 -2.25022 -3.11326
C -8.88325 -1.13399 -3.00587
C -7.69969 -1.90358 -2.4089
O -7.84284 -3.20482 -2.9232
H -10.02202 -2.67439 -0.59964
H -8.12406 -1.17951 -0.35167
H -9.628 -4.36285 -2.68243
H -10.0104 -2.52919 -4.18625
H -10.90581 -2.01845 -2.69612
H -8.64787 -0.77362 -4.03183
H -9.17908 -0.28029 -2.35826
H -6.74008 -1.39135 -2.64322
O -6.04309 -5.0824 1.49694
C -1.91561 -2.9498 1.05838
C -2.89125 -6.97542 1.54121
C -2.52223 -8.34092 2.12444
C -3.89547 -8.90294 2.41219
C -4.77345 -7.75709 1.90667
O -4.05803 -7.24777 0.80985
H -2.70313 -6.14387 3.55079
H -4.9162 -6.97545 3.94567
H -1.68021 -2.32665 1.94732
H -2.02997 -6.5912 0.9544
H -2.05585 -8.94978 1.31711
H -1.83409 -8.29215 2.99572
H -4.05261 -9.79631 1.76697
H -4.09126 -9.16656 3.47396
H -5.79837 -8.13173 1.68689
H -2.76482 -2.50013 0.50171
H -1.02756 -2.97502 0.3943
H -4.93186 -5.29431 -1.5076
H -4.33547 -4.27202 -0.15445
H -4.42528 -3.59013 -1.82188
H -8.50195 -6.1842 1.61204
H -9.88786 -5.56108 2.50477
H -7.59644 -3.86173 3.22374
H -8.626 -4.91483 4.21706
$end

$opt
CONSTRAINT
tors           1           2           3           4     +38.975
tors           3           4           5           6    -144.118
tors           4           5           6           7    +171.122
tors           5           6           7           8     +77.931
tors           6           7           8           9    -129.909
tors           7           8           9          10    +130.831
tors           8           9          10          11    +179.710
tors           9          10          11          12     +78.982
tors          11          12          13          14    -156.786
ENDCONSTRAINT
$end

$rem
JOBTYPE                   OPT
METHOD                    B3LYP
DFT_D                     d3_op
BASIS                     STO-3G
GEOM_OPT_MAX_CYCLES       100
GEOM_OPT_TOL_GRADIENT     300
GEOM_OPT_TOL_DISPLACEMENT 1200
GEOM_OPT_TOL_ENERGY       100
SYMMETRY                  False
THRESH                    12
SCF_CONVERGENCE           8
MAX_SUB_FILE_NUM          128
MEM_STATIC                400
MEM_TOTAL                 4000
$end
--------------------------------------------------------------

   15   -1510.1446195484      7.32E-09 Convergence criterion met
 Total energy in the final basis set = -1510.14461955
   14   -1510.2158089096      7.82E-09 Convergence criterion met
 Total energy in the final basis set = -1510.21580891
   15   -1510.2532520272      2.42E-09 Convergence criterion met
 Total energy in the final basis set = -1510.25325203
   14   -1510.2698465881      9.33E-09 Convergence criterion met
 Total energy in the final basis set = -1510.26984659
   13   -1510.2797434101      6.88E-09 Convergence criterion met
 Total energy in the final basis set = -1510.27974341
   14   -1510.2684459484      5.49E-09 Convergence criterion met
 Total energy in the final basis set = -1510.26844595
   14   -1510.2809289035      6.91E-09 Convergence criterion met
 Total energy in the final basis set = -1510.28092890
   14   -1510.2781360749      3.88E-09 Convergence criterion met
    9   -1510.2894621079      9.41E-09 Convergence criterion met
 Total energy in the final basis set = -1510.28946211
    9   -1510.2894732628      9.68E-09 Convergence criterion met
 Total energy in the final basis set = -1510.28947326
    9   -1510.2894792975      8.50E-09 Convergence criterion met
 Total energy in the final basis set = -1510.28947930
    9   -1510.2894832821      5.14E-09 Convergence criterion met
 Total energy in the final basis set = -1510.28948328
    9   -1510.2894862334      3.79E-09 Convergence criterion met
 Total energy in the final basis set = -1510.28948623
    9   -1510.2894872631      2.74E-09 Convergence criterion met
 Total energy in the final basis set = -1510.28948726

             Standard Nuclear Orientation (Angstroms)
    I     Atom           X                Y                Z
 ----------------------------------------------------------------
    1      O      -2.2304401033    -0.9980766452     2.3286143603
    2      C      -2.7327739697    -1.3175798134     1.2285389772
    3      C      -3.6668755087    -0.4161126553     0.3365478885
    4      C      -3.2431320025     1.1103273222     0.3041555368
    5      C      -1.7787614671     1.3475890066     0.8016248852
    6      O      -1.6962076392     2.5838620073     1.5262399348
    7      C      -0.3529555244     2.6504271137     2.1533314679
    8      C       0.7620390585     3.0553942256     1.1096630409
    9      O       1.8865996309     2.0966885575     1.2014958690
   10      C       2.2416576917     1.6256330743    -0.1130803890
   11      C       3.4334702902     0.6302653296     0.0690173971
   12      C       3.0567594962    -0.8318863916     0.5541439992
   13      C       1.5880844214    -1.3235027098     0.2775958670
   14      O       1.0109039900    -2.2286634792     0.9275982310
   15      O      -2.5877850721    -2.5950585805     0.6140548099
   16      O       1.1240142154    -0.7380571325    -0.9266297366
   17      O       1.7093632269     2.0304841933    -1.1680675618
   18      C      -0.1228591249    -1.3740117234    -1.4240570278
   19      C       4.2686763124     0.3245152906    -1.2485890633
   20      C       5.7418364445    -0.0033290298    -0.7867681096
   21      C       5.5171957304    -1.3925378177    -0.0796057779
   22      C       3.9982547910    -1.6754476363    -0.4193424354
   23      O       3.7808691451    -0.9934284390    -1.7147388471
   24      H       4.0914645864     1.0860325114     0.8314428307
   25      H       3.2905453930    -0.9916150377     1.6210335665
   26      H       4.1630957914     1.0821929699    -2.0490542871
   27      H       6.4038970625    -0.1018231877    -1.6621599203
   28      H       6.1569298322     0.7613627883    -0.1111422669
   29      H       6.1624757982    -2.1769601133    -0.5055123444
   30      H       5.6904905695    -1.3459904002     1.0076390797
   31      H       3.7275413922    -2.7468653675    -0.4934434676
   32      O      -0.7925815602     0.6044874670     0.6076642790
   33      C      -1.6639683695    -3.4412138123     1.4134564544
   34      C      -3.6793244554    -0.7767327662    -1.2091939293
   35      C      -5.0209939115    -0.2275558525    -1.8255805731
   36      C      -4.7502597102     1.3234975820    -1.7958519786
   37      C      -3.2634261275     1.3715598077    -1.2659667170
   38      O      -2.6584557828     0.1253613031    -1.7967531191
   39      H      -4.6894817303    -0.5057815055     0.7490323597
   40      H      -3.9383902500     1.7648681342     0.8569061998
   41      H      -1.9773501975    -3.4870096642     2.4751458251
   42      H      -3.4362396316    -1.8343878216    -1.4250390514
   43      H      -5.1466356922    -0.5931878610    -2.8573002243
   44      H      -5.9042504875    -0.5196938898    -1.2356282786
   45      H      -4.8176356380     1.7675045689    -2.8016287048
   46      H      -5.4394481937     1.8615771564    -1.1253483774
   47      H      -2.6767378006     2.2531394211    -1.5899915861
   48      H      -0.6229943348    -3.0428045096     1.3415564938
   49      H      -1.7183910814    -4.4496027036     0.9645278711
   50      H       0.0904477736    -1.7596751817    -2.4403179738
   51      H      -0.9481601581    -0.6237539091    -1.4715679610
   52      H      -0.4206274651    -2.2086600647    -0.7631779170
   53      H       0.3683127488     3.0433005294     0.0692765466
   54      H       1.1467420961     4.0737175384     1.3306745317
   55      H      -0.0782185084     1.6714705166     2.6013625517
   56      H      -0.4397399139     3.4143380476     2.9507084948
 ----------------------------------------------------------------

    8   -1510.2894873566      8.40E-09 Convergence criterion met
 Total energy in the final basis set = -1510.28948736
 Final energy is   -1510.28948735660
 **  OPTIMIZATION CONVERGED  **

                    Orbital Energies (a.u.)
 --------------------------------------------------------------

 Alpha MOs
 -- Occupied --
-18.932 -18.924 -18.923 -18.923 -18.901 -18.883 -18.873 -18.872
-18.863 -18.861 -10.097 -10.094 -10.092 -10.092 -10.068 -10.067
-10.062 -10.061 -10.056 -10.054 -10.040 -10.037 -10.036 -10.032
-10.031 -10.025 -10.025 -10.023 -10.017 -10.016  -1.014  -1.003
 -1.001  -0.996  -0.979  -0.965  -0.936  -0.929  -0.925  -0.922
 -0.766  -0.758  -0.727  -0.719  -0.712  -0.703  -0.692  -0.648
 -0.639  -0.614  -0.593  -0.577  -0.548  -0.541  -0.539  -0.533
 -0.511  -0.505  -0.477  -0.468  -0.461  -0.453  -0.451  -0.440
 -0.434  -0.429  -0.426  -0.416  -0.405  -0.398  -0.393  -0.389
 -0.386  -0.374  -0.368  -0.360  -0.359  -0.356  -0.347  -0.340
 -0.338  -0.335  -0.332  -0.326  -0.325  -0.322  -0.318  -0.313
 -0.306  -0.303  -0.301  -0.296  -0.291  -0.284  -0.278  -0.273
 -0.265  -0.257  -0.243  -0.241  -0.240  -0.229  -0.228  -0.183
 -0.167  -0.164  -0.163  -0.152  -0.151  -0.150  -0.142  -0.142
 -0.137

          Ground-State Mulliken Net Atomic Charges

     Atom                 Charge (a.u.)
  ----------------------------------------
      1 O                    -0.217471
      2 C                     0.211742
      3 C                    -0.079713
      4 C                    -0.079353
      5 C                     0.211732
      6 O                    -0.171761
      7 C                    -0.050786
      8 C                    -0.056657
      9 O                    -0.175672
     10 C                     0.218598
     11 C                    -0.078454
     12 C                    -0.074908
     13 C                     0.220591
     14 O                    -0.226911
     15 O                    -0.175528
     16 O                    -0.159009
     17 O                    -0.206813
     18 C                    -0.145189
     19 C                     0.026003
     20 C                    -0.142329
     21 C                    -0.145157
     22 C                     0.024733
     23 O                    -0.186109
     24 H                     0.083593
     25 H                     0.085487
     26 H                     0.088450
     27 H                     0.077178
     28 H                     0.072470
     29 H                     0.077488
     30 H                     0.073542
     31 H                     0.082180
     32 O                    -0.211328
     33 C                    -0.146668
     34 C                     0.024097
     35 C                    -0.142582
     36 C                    -0.144061
     37 C                     0.026740
     38 O                    -0.186605
     39 H                     0.083799
     40 H                     0.088246
     41 H                     0.083277
     42 H                     0.096681
     43 H                     0.079544
     44 H                     0.075032
     45 H                     0.079993
     46 H                     0.075484
     47 H                     0.086131
     48 H                     0.117854
     49 H                     0.080770
     50 H                     0.078115
     51 H                     0.113698
     52 H                     0.088501
     53 H                     0.102137
     54 H                     0.079381
     55 H                     0.101936
     56 H                     0.087862
  ----------------------------------------
  Sum of atomic charges =    -0.000000

                    Cartesian Multipole Moments
 -----------------------------------------------------------------
    Charge (ESU x 10^10)
                -0.0000
    Dipole Moment (Debye)
         X      -0.9213      Y       1.0693      Z       0.6432
       Tot       1.5511
    Quadrupole Moments (Debye-Ang)
        XX    -135.4370     XY      -0.7803     YY    -153.2369
        XZ       7.4046     YZ       2.7398     ZZ    -165.9587

 Total job time:  98.49s(wall), 4698.42s(cpu)
        *  Thank you very much for using Q-Chem.  Have a nice day.  *
