 Q-Chem 5.0, Q-Chem, Inc., Pleasanton, CA (2017)
 Q-Chem 5.0.1 for Intel X86 EM64T Linux

User input:
--------------------------------------------------------------
$molecule
0  1
O -2.2304401033 -0.9980766452 2.3286143603
C -2.7327739697 -1.3175798134 1.2285389772
C -3.6668755087 -0.4161126553 0.3365478885
C -3.2431320025 1.1103273222 0.3041555368
C -1.7787614671 1.3475890066 0.8016248852
O -1.6962076392 2.5838620073 1.5262399348
C -0.3529555244 2.6504271137 2.1533314679
C 0.7620390585 3.0553942256 1.1096630409
O 1.8865996309 2.0966885575 1.201495869
C 2.2416576917 1.6256330743 -0.113080389
C 3.4334702902 0.6302653296 0.0690173971
C 3.0567594962 -0.8318863916 0.5541439992
C 1.5880844214 -1.3235027098 0.277595867
O 1.01090399 -2.2286634792 0.927598231
O -2.5877850721 -2.5950585805 0.6140548099
O 1.1240142154 -0.7380571325 -0.9266297366
O 1.7093632269 2.0304841933 -1.1680675618
C -0.1228591249 -1.3740117234 -1.4240570278
C 4.2686763124 0.3245152906 -1.2485890633
C 5.7418364445 -0.0033290298 -0.7867681096
C 5.5171957304 -1.3925378177 -0.0796057779
C 3.998254791 -1.6754476363 -0.4193424354
O 3.7808691451 -0.993428439 -1.7147388471
H 4.0914645864 1.0860325114 0.8314428307
H 3.290545393 -0.9916150377 1.6210335665
H 4.1630957914 1.0821929699 -2.0490542871
H 6.4038970625 -0.1018231877 -1.6621599203
H 6.1569298322 0.7613627883 -0.1111422669
H 6.1624757982 -2.1769601133 -0.5055123444
H 5.6904905695 -1.3459904002 1.0076390797
H 3.7275413922 -2.7468653675 -0.4934434676
O -0.7925815602 0.604487467 0.607664279
C -1.6639683695 -3.4412138123 1.4134564544
C -3.6793244554 -0.7767327662 -1.2091939293
C -5.0209939115 -0.2275558525 -1.8255805731
C -4.7502597102 1.323497582 -1.7958519786
C -3.2634261275 1.3715598077 -1.265966717
O -2.6584557828 0.1253613031 -1.7967531191
H -4.6894817303 -0.5057815055 0.7490323597
H -3.93839025 1.7648681342 0.8569061998
H -1.9773501975 -3.4870096642 2.4751458251
H -3.4362396316 -1.8343878216 -1.4250390514
H -5.1466356922 -0.593187861 -2.8573002243
H -5.9042504875 -0.5196938898 -1.2356282786
H -4.817635638 1.7675045689 -2.8016287048
H -5.4394481937 1.8615771564 -1.1253483774
H -2.6767378006 2.2531394211 -1.5899915861
H -0.6229943348 -3.0428045096 1.3415564938
H -1.7183910814 -4.4496027036 0.9645278711
H 0.0904477736 -1.7596751817 -2.4403179738
H -0.9481601581 -0.6237539091 -1.471567961
H -0.4206274651 -2.2086600647 -0.763177917
H 0.3683127488 3.0433005294 0.0692765466
H 1.1467420961 4.0737175384 1.3306745317
H -0.0782185084 1.6714705166 2.6013625517
H -0.4397399139 3.4143380476 2.9507084948
$end

$rem
JOBTYPE                   OPT
METHOD                    B3LYP
DFT_D                     d3_op
BASIS                     STO-3G
GEOM_OPT_MAX_CYCLES       100
GEOM_OPT_TOL_GRADIENT     300
GEOM_OPT_TOL_DISPLACEMENT 1200
GEOM_OPT_TOL_ENERGY       100
SYMMETRY                  False
THRESH                    12
SCF_CONVERGENCE           8
MAX_SUB_FILE_NUM          128
MEM_STATIC                400
MEM_TOTAL                 4000
$end
--------------------------------------------------------------

   16   -1510.2896181164      7.22E-09 Convergence criterion met
 Total energy in the final basis set = -1510.28961812
   14   -1510.2587862934      9.19E-09 Convergence criterion met
 Total energy in the final basis set = -1510.25878629
   14   -1510.2792564122      3.03E-09 Convergence criterion met
 Total energy in the final basis set = -1510.27925641
   15   -1510.2874077324      8.31E-09 Convergence criterion met
 Total energy in the final basis set = -1510.28740773
   15   -1510.1912349771      6.65E-09 Convergence criterion met
 Total energy in the final basis set = -1510.19123498
   15   -1510.2842113641      6.69E-09 Convergence criterion met
 Total energy in the final basis set = -1510.28421136
   15   -1510.2829990799      6.40E-09 Convergence criterion met
 Total energy in the final basis set = -1510.28299908
   14   -1510.2857765226      7.70E-09 Convergence criterion met
    9   -1510.2974070777      6.81E-09 Convergence criterion met
 Total energy in the final basis set = -1510.29740708
    9   -1510.2974095084      8.52E-09 Convergence criterion met
 Total energy in the final basis set = -1510.29740951
   11   -1510.2974184130      2.80E-09 Convergence criterion met
 Total energy in the final basis set = -1510.29741841
   10   -1510.2974247379      8.18E-09 Convergence criterion met
 Total energy in the final basis set = -1510.29742474
    9   -1510.2974275536      7.81E-09 Convergence criterion met
 Total energy in the final basis set = -1510.29742755
    9   -1510.2974279087      2.85E-09 Convergence criterion met
 Total energy in the final basis set = -1510.29742791

             Standard Nuclear Orientation (Angstroms)
    I     Atom           X                Y                Z
 ----------------------------------------------------------------
    1      O       3.6613318814     1.1991287008     2.7699580112
    2      C       3.3296505691     1.2766376403     1.5655395563
    3      C       3.9150594851     0.4138726104     0.3840415689
    4      C       3.1252337197    -0.9441346550     0.1656048100
    5      C       1.9410473433    -1.1793306060     1.1562833209
    6      O       1.6271932294    -2.5781093589     1.1088811878
    7      C       0.4075224254    -2.8694405115     1.8949467563
    8      C      -0.7282451584    -3.3716625701     0.9142092027
    9      O      -1.9802847755    -2.5861251448     0.9978501325
   10      C      -1.8169844341    -1.2887494442     0.4107325397
   11      C      -3.2198780797    -0.5979195139     0.4199438261
   12      C      -3.1687261328     0.9710702209     0.2163584495
   13      C      -1.7162638792     1.5845606330     0.2405886004
   14      O      -1.0843505772     1.8647933775     1.2868499487
   15      O       2.3837667627     2.1950248700     1.0288601455
   16      O      -1.3020036635     1.8700672447    -1.0853530688
   17      O      -0.7409357632    -0.8532260362    -0.0543038559
   18      C       0.0432269349     2.4954330403    -1.1158841921
   19      C      -4.0460448094    -1.0372545846    -0.8694474911
   20      C      -5.5531785394    -0.6046251543    -0.6733538353
   21      C      -5.4611777045     0.9448113182    -0.9320117690
   22      C      -3.9112909968     1.1192177116    -1.1788901748
   23      O      -3.5429615961    -0.1161187068    -1.9111605346
   24      H      -3.7430585336    -0.8813967100     1.3500751454
   25      H      -3.7373561083     1.4675838642     1.0231240099
   26      H      -3.8941264793    -2.0922670219    -1.1702200975
   27      H      -6.1960467300    -1.1034285512    -1.4159161138
   28      H      -5.9248188486    -0.8466732412     0.3352513091
   29      H      -6.0283869473     1.2371322064    -1.8300450570
   30      H      -5.8181264653     1.5423238945    -0.0780839408
   31      H      -3.6164803671     2.0134785062    -1.7595874171
   32      O       1.3378317008    -0.3440511023     1.8643292219
   33      C       1.6066851970     2.8532401889     2.1070492967
   34      C       3.7224350651     1.0962626495    -1.0334098272
   35      C       4.6138384750     0.3379392703    -2.0958115357
   36      C       3.7814149123    -0.9811760510    -2.3149532548
   37      C       2.5807622032    -0.7498456778    -1.3191592046
   38      O       2.3446067543     0.7059287639    -1.4140541503
   39      H       4.9780783173     0.2090483373     0.6020427433
   40      H       3.7944716770    -1.8207210925     0.2218478534
   41      H       1.9706043518     2.5084550912     3.0944237693
   42      H       3.8216005526     2.1983044965    -1.0298633822
   43      H       4.6889208074     0.9257888664    -3.0243182125
   44      H       5.6304097181     0.1418506481    -1.7189887699
   45      H       3.4115966712    -1.0571358509    -3.3500305794
   46      H       4.3526097192    -1.8921249857    -2.0747260586
   47      H       1.6502894506    -1.3076063587    -1.5434024995
   48      H       0.5394491980     2.5724618220     1.9482529125
   49      H       1.7383282356     3.9497353013     2.0207803226
   50      H       0.1170340803     2.9849413238    -2.1046326136
   51      H       0.8589885003     1.7351600127    -1.0208472464
   52      H       0.1467005161     3.2565339938    -0.3192283069
   53      H      -0.3199752782    -3.3544605752    -0.1206184293
   54      H      -1.0275975943    -4.4080992632     1.1666251290
   55      H       0.0935041669    -1.9439277309     2.4267345954
   56      H       0.6579149873    -3.6573434929     2.6344002887
 ----------------------------------------------------------------

    8   -1510.2974278220      8.04E-09 Convergence criterion met
 Total energy in the final basis set = -1510.29742782
 Final energy is   -1510.29742782197
 **  OPTIMIZATION CONVERGED  **

                    Orbital Energies (a.u.)
 --------------------------------------------------------------

 Alpha MOs
 -- Occupied --
-18.938 -18.932 -18.920 -18.909 -18.898 -18.885 -18.883 -18.882
-18.858 -18.850 -10.103 -10.101 -10.090 -10.083 -10.077 -10.069
-10.063 -10.060 -10.060 -10.054 -10.038 -10.037 -10.031 -10.030
-10.026 -10.022 -10.021 -10.020 -10.019 -10.017  -1.019  -1.011
 -0.995  -0.989  -0.974  -0.968  -0.944  -0.937  -0.921  -0.914
 -0.763  -0.760  -0.727  -0.721  -0.712  -0.705  -0.695  -0.640
 -0.636  -0.619  -0.592  -0.578  -0.545  -0.542  -0.537  -0.534
 -0.511  -0.507  -0.481  -0.467  -0.462  -0.455  -0.448  -0.440
 -0.434  -0.432  -0.429  -0.410  -0.400  -0.397  -0.395  -0.387
 -0.384  -0.379  -0.369  -0.362  -0.353  -0.352  -0.350  -0.345
 -0.338  -0.332  -0.328  -0.328  -0.323  -0.320  -0.316  -0.311
 -0.309  -0.302  -0.301  -0.296  -0.294  -0.278  -0.277  -0.274
 -0.271  -0.261  -0.247  -0.240  -0.234  -0.230  -0.223  -0.187
 -0.171  -0.161  -0.159  -0.157  -0.151  -0.147  -0.143  -0.135
 -0.134

          Ground-State Mulliken Net Atomic Charges

     Atom                 Charge (a.u.)
  ----------------------------------------
      1 O                    -0.223977
      2 C                     0.213865
      3 C                    -0.080620
      4 C                    -0.078334
      5 C                     0.219311
      6 O                    -0.176038
      7 C                    -0.057056
      8 C                    -0.050954
      9 O                    -0.173396
     10 C                     0.212483
     11 C                    -0.078178
     12 C                    -0.080408
     13 C                     0.219142
     14 O                    -0.222153
     15 O                    -0.174522
     16 O                    -0.167407
     17 O                    -0.207286
     18 C                    -0.145057
     19 C                     0.025337
     20 C                    -0.143972
     21 C                    -0.144182
     22 C                     0.025557
     23 O                    -0.188108
     24 H                     0.087060
     25 H                     0.082438
     26 H                     0.081828
     27 H                     0.077534
     28 H                     0.073633
     29 H                     0.077314
     30 H                     0.073160
     31 H                     0.090923
     32 O                    -0.200201
     33 C                    -0.148833
     34 C                     0.028736
     35 C                    -0.144302
     36 C                    -0.143020
     37 C                     0.029400
     38 O                    -0.184137
     39 H                     0.082721
     40 H                     0.087093
     41 H                     0.092989
     42 H                     0.090126
     43 H                     0.078350
     44 H                     0.074410
     45 H                     0.079128
     46 H                     0.074647
     47 H                     0.091803
     48 H                     0.116064
     49 H                     0.070897
     50 H                     0.077774
     51 H                     0.121975
     52 H                     0.081811
     53 H                     0.092416
     54 H                     0.089964
     55 H                     0.106248
     56 H                     0.086004
  ----------------------------------------
  Sum of atomic charges =     0.000000

                    Cartesian Multipole Moments
 -----------------------------------------------------------------
    Charge (ESU x 10^10)
                 0.0000
    Dipole Moment (Debye)
         X      -0.8798      Y      -2.1184      Z      -1.2525
       Tot       2.6135
    Quadrupole Moments (Debye-Ang)
        XX    -143.2328     XY      -2.5519     YY    -149.3949
        XZ     -11.9280     YZ      -4.1231     ZZ    -167.9277

 Total job time:  184.18s(wall), 8793.26s(cpu)
        *  Thank you very much for using Q-Chem.  Have a nice day.  *
