 Q-Chem 5.0, Q-Chem, Inc., Pleasanton, CA (2017)
 Q-Chem 5.0.1 for Intel X86 EM64T Linux

User input:
--------------------------------------------------------------
$molecule
0  1
O -2.5587196402 -0.8636284631 2.3082521047
C -3.0475188706 -1.200050174 1.2069098901
C -3.813317276 -0.2519142409 0.2063182084
C -3.1733007964 1.1968401326 0.1094024836
C -1.7626805812 1.2769739234 0.7804443864
O -1.589924473 2.568079757 1.3767062243
C -0.3080537839 2.579018848 2.1219840015
C 0.8813432758 3.0674241627 1.2126359928
O 1.927155686 2.0187023455 1.2978560137
C 2.42087875 1.6425914278 0.0065691544
C 3.521241533 0.5570374073 0.2625079286
C 3.0284171036 -0.9255156883 0.5531010078
C 1.5351303724 -1.307760263 0.2467774466
O 0.8614485059 -2.1245104259 0.9213092201
O -2.9004940086 -2.493054313 0.6245863595
O 1.1526710357 -0.7566026482 -1.0037829309
O 2.0407607127 2.1450502787 -1.0716628593
C -0.0776152604 -1.4060220609 -1.5275354913
C 4.4772447481 0.3321702619 -0.9861371436
C 5.8587694272 -0.1979079297 -0.4366432706
C 5.4556127323 -1.6529862265 0.0080920632
C 3.9514633232 -1.7213640765 -0.4765972439
O 3.9178788026 -0.8537486834 -1.6735227169
H 4.1029316617 0.9094224091 1.1333907086
H 3.2357710026 -1.2136717913 1.5987383701
H 4.5293331072 1.1921984277 -1.6815165906
H 6.610804698 -0.2170669046 -1.2417969186
H 6.2437200937 0.4133578585 0.3950417563
H 6.0616942829 -2.4178298727 -0.5026738251
H 5.5423580615 -1.8031392184 1.0961642907
H 3.5854903591 -2.737230919 -0.7229207289
O -0.8600332643 0.4122399662 0.7440035568
C -1.9317364177 -3.2939505442 1.4166825846
C -3.7884747957 -0.7065122451 -1.3135162447
C -4.9860406414 0.0037281341 -2.0524665361
C -4.470707987 1.4911183794 -2.1027248415
C -3.03187401 1.3451420986 -1.4663765729
O -2.6066905142 -0.0109464169 -1.8810728638
H -4.8592140468 -0.1696708893 0.5568383017
H -3.8240584408 1.9762422414 0.5418562334
H -2.2156578654 -3.332264455 2.487080469
H -3.7003566245 -1.8000931382 -1.4573804043
H -5.1116580686 -0.4116981039 -3.0651931262
H -5.9366143239 -0.1015058039 -1.5057517468
H -4.3992852168 1.8625720435 -3.1372432733
H -5.1063592622 2.179170272 -1.5226856096
H -2.2897724948 2.0993502957 -1.7937552499
H -0.9040973593 -2.8677568247 1.3160141452
H -1.9626800692 -4.3120047484 0.987265677
H 0.1452741488 -1.7126114636 -2.5678952167
H -0.9488458803 -0.706124909 -1.5259707285
H -0.3248004553 -2.2954859165 -0.918113757
H 0.5611627365 3.1873011739 0.1541268468
H 1.30092467 4.0289529896 1.5764587953
H -0.0643438161 1.5590845418 2.4878712959
H -0.4606738552 3.2655866853 2.9782755514
$end

$rem
JOBTYPE                   OPT
METHOD                    B3LYP
DFT_D                     d3_op
BASIS                     STO-3G
GEOM_OPT_MAX_CYCLES       100
GEOM_OPT_TOL_GRADIENT     300
GEOM_OPT_TOL_DISPLACEMENT 1200
GEOM_OPT_TOL_ENERGY       100
SYMMETRY                  False
THRESH                    12
SCF_CONVERGENCE           8
MAX_SUB_FILE_NUM          128
MEM_STATIC                400
MEM_TOTAL                 4000
$end
--------------------------------------------------------------

   16   -1510.2881882663      6.92E-09 Convergence criterion met
 Total energy in the final basis set = -1510.28818827
   15   -1510.2065480364      6.85E-09 Convergence criterion met
 Total energy in the final basis set = -1510.20654804
   14   -1510.2902643562      8.31E-09 Convergence criterion met
 Total energy in the final basis set = -1510.29026436
   16   -1509.8137850600      5.71E-09 Convergence criterion met
 Total energy in the final basis set = -1509.81378506
   15   -1510.2759162365      9.05E-09 Convergence criterion met
 Total energy in the final basis set = -1510.27591624
   14   -1510.2806019189      1.78E-09 Convergence criterion met
 Total energy in the final basis set = -1510.28060192
   14   -1510.2810982071      3.96E-09 Convergence criterion met
 Total energy in the final basis set = -1510.28109821
   14   -1510.2721601943      5.37E-09 Convergence criterion met
   11   -1510.2976537708      3.26E-09 Convergence criterion met
 Total energy in the final basis set = -1510.29765377
   11   -1510.2976651441      3.06E-09 Convergence criterion met
 Total energy in the final basis set = -1510.29766514
   11   -1510.2976901903      6.74E-09 Convergence criterion met
 Total energy in the final basis set = -1510.29769019
   10   -1510.2977140636      6.92E-09 Convergence criterion met
 Total energy in the final basis set = -1510.29771406
   11   -1510.2977327875      5.33E-09 Convergence criterion met
 Total energy in the final basis set = -1510.29773279
   11   -1510.2977357635      2.79E-09 Convergence criterion met
 Total energy in the final basis set = -1510.29773576

             Standard Nuclear Orientation (Angstroms)
    I     Atom           X                Y                Z
 ----------------------------------------------------------------
    1      O      -3.2797513433    -1.4693614741     2.5674261795
    2      C      -3.2242179677    -1.4178172640     1.3178479753
    3      C      -4.1118752747    -0.4890632847     0.4026350524
    4      C      -3.5558082011     0.9891638283     0.2588929871
    5      C      -2.1443039505     1.1722961035     0.8967976573
    6      O      -1.8454107146     2.5645846208     1.0011632512
    7      C      -0.4409372174     2.7422334685     1.4481529105
    8      C       0.5657610918     2.5872246868     0.2450808892
    9      O       1.6878636599     1.7467989388     0.7266891376
   10      C       2.6419703156     1.5612975248    -0.3318958630
   11      C       3.8243375667     0.6877702228     0.2188232091
   12      C       3.4136369514    -0.7712894356     0.6851955914
   13      C       1.9057781089    -1.1362480907     0.4741137925
   14      O       1.1928995860    -1.7879968476     1.2728155553
   15      O      -2.4223536020    -2.2673016084     0.4983087839
   16      O       1.4948182427    -0.6644037772    -0.8037060566
   17      O       2.5477399028     2.0920939461    -1.4580916626
   18      C       0.0714409011    -0.9969080310    -1.0639679071
   19      C       4.8711239022     0.3645841207    -0.9257817816
   20      C       6.2203996996    -0.0954238571    -0.2497769235
   21      C       5.8323235927    -1.5382285438     0.2450451527
   22      C       4.3417347964    -1.6484007274    -0.2682002328
   23      O       4.3467699851    -0.8816685151    -1.5327012173
   24      H       4.2920990698     1.2388016390     1.0557690979
   25      H       3.6520771891    -0.9404354801     1.7497687432
   26      H       4.9561648490     1.1596976975    -1.6918287444
   27      H       7.0326538484    -0.1286064679    -0.9932826662
   28      H       6.5222880702     0.5706018566     0.5743864087
   29      H       6.4593439839    -2.3106535107    -0.2279248468
   30      H       5.9025479068    -1.6474764414     1.3391207161
   31      H       3.9774515259    -2.6800516383    -0.4396314423
   32      O      -1.3459425359     0.2641956445     1.2314430052
   33      C      -1.5079112823    -3.0852391735     1.3343773959
   34      C      -4.1626803460    -0.9393269137    -1.1190715128
   35      C      -5.4107849329    -0.2496477775    -1.7974324406
   36      C      -4.9080656362     1.2365214207    -1.9194888372
   37      C      -3.4492861867     1.1139985811    -1.3264370830
   38      O      -3.0103290524    -0.2373641439    -1.7345884081
   39      H      -5.1235828238    -0.4653687550     0.8454053695
   40      H      -4.2441224482     1.7431573349     0.6799459042
   41      H      -1.8851918569    -3.1241012177     2.3749233618
   42      H      -4.0755375660    -2.0313143413    -1.2746135076
   43      H      -5.6026667400    -0.6923711732    -2.7877482882
   44      H      -6.3219316683    -0.3426945602    -1.1853146292
   45      H      -4.8689844195     1.5677915584    -2.9694331377
   46      H      -5.5289382808     1.9451750820    -1.3483206724
   47      H      -2.7314556030     1.8824836093    -1.6745379935
   48      H      -0.4884681524    -2.6300401733     1.3169748514
   49      H      -1.4822341288    -4.1010140456     0.8969342069
   50      H      -0.2037090297    -0.4579575249    -1.9885061369
   51      H      -0.5812895356    -0.6708945644    -0.2231494107
   52      H      -0.0596795632    -2.0855584625    -1.2237339565
   53      H       0.0541984582     2.0997198119    -0.6145904316
   54      H       0.9339870858     3.5766150379    -0.1018572018
   55      H      -0.1811876183     1.9851333636     2.2193373324
   56      H      -0.3912247294     3.7583408849     1.8851854895
 ----------------------------------------------------------------

    9   -1510.2977367477      5.03E-09 Convergence criterion met
 Total energy in the final basis set = -1510.29773675
 Final energy is   -1510.29773674767
 **  OPTIMIZATION CONVERGED  **

                    Orbital Energies (a.u.)
 --------------------------------------------------------------

 Alpha MOs
 -- Occupied --
-18.950 -18.933 -18.930 -18.913 -18.894 -18.890 -18.886 -18.875
-18.873 -18.852 -10.113 -10.099 -10.099 -10.086 -10.081 -10.076
-10.066 -10.059 -10.059 -10.056 -10.044 -10.040 -10.036 -10.035
-10.033 -10.024 -10.024 -10.021 -10.019 -10.018  -1.028  -1.013
 -1.004  -0.992  -0.973  -0.968  -0.951  -0.935  -0.933  -0.917
 -0.766  -0.762  -0.730  -0.723  -0.714  -0.705  -0.699  -0.649
 -0.639  -0.619  -0.596  -0.582  -0.548  -0.545  -0.538  -0.536
 -0.514  -0.508  -0.489  -0.473  -0.462  -0.457  -0.453  -0.442
 -0.436  -0.434  -0.426  -0.417  -0.407  -0.402  -0.401  -0.399
 -0.388  -0.380  -0.368  -0.365  -0.359  -0.357  -0.355  -0.345
 -0.342  -0.333  -0.332  -0.330  -0.326  -0.323  -0.322  -0.313
 -0.307  -0.307  -0.304  -0.301  -0.294  -0.289  -0.280  -0.275
 -0.271  -0.262  -0.254  -0.243  -0.239  -0.232  -0.229  -0.192
 -0.176  -0.171  -0.166  -0.160  -0.152  -0.149  -0.144  -0.142
 -0.136

          Ground-State Mulliken Net Atomic Charges

     Atom                 Charge (a.u.)
  ----------------------------------------
      1 O                    -0.224898
      2 C                     0.211924
      3 C                    -0.081230
      4 C                    -0.079075
      5 C                     0.216737
      6 O                    -0.168072
      7 C                    -0.051370
      8 C                    -0.048519
      9 O                    -0.176617
     10 C                     0.217196
     11 C                    -0.078501
     12 C                    -0.078473
     13 C                     0.218639
     14 O                    -0.212051
     15 O                    -0.175644
     16 O                    -0.166963
     17 O                    -0.212811
     18 C                    -0.139476
     19 C                     0.024864
     20 C                    -0.144019
     21 C                    -0.143877
     22 C                     0.025851
     23 O                    -0.185807
     24 H                     0.083309
     25 H                     0.085551
     26 H                     0.090168
     27 H                     0.078015
     28 H                     0.072702
     29 H                     0.078036
     30 H                     0.073861
     31 H                     0.082766
     32 O                    -0.204996
     33 C                    -0.151249
     34 C                     0.025523
     35 C                    -0.144049
     36 C                    -0.143606
     37 C                     0.024865
     38 O                    -0.190546
     39 H                     0.083188
     40 H                     0.088840
     41 H                     0.091178
     42 H                     0.091694
     43 H                     0.078310
     44 H                     0.074210
     45 H                     0.078888
     46 H                     0.074522
     47 H                     0.081851
     48 H                     0.112765
     49 H                     0.074141
     50 H                     0.090106
     51 H                     0.110567
     52 H                     0.085375
     53 H                     0.089312
     54 H                     0.087908
     55 H                     0.106429
     56 H                     0.092557
  ----------------------------------------
  Sum of atomic charges =    -0.000000

                    Cartesian Multipole Moments
 -----------------------------------------------------------------
    Charge (ESU x 10^10)
                -0.0000
    Dipole Moment (Debye)
         X      -0.2086      Y       1.9102      Z       0.2147
       Tot       1.9335
    Quadrupole Moments (Debye-Ang)
        XX    -138.8953     XY      -4.2408     YY    -153.5978
        XZ      13.8809     YZ       5.0872     ZZ    -170.7248

 Total job time:  132.58s(wall), 6322.28s(cpu)
        *  Thank you very much for using Q-Chem.  Have a nice day.  *
