 Q-Chem 5.0, Q-Chem, Inc., Pleasanton, CA (2017)
 Q-Chem 5.0.1 for Intel X86 EM64T Linux

User input:
--------------------------------------------------------------
$molecule
0  1
O -3.94934 -3.66094 2.70899
C -3.26408 -4.56952 2.26188
C -3.36658 -6.02376 2.66595
C -4.77596 -6.5874 2.91049
C -5.93512 -5.68424 2.55168
O -6.96486 -5.88094 3.4271
C -8.0523 -4.97084 3.23102
C -9.06617 -5.56496 2.25879
O -9.31409 -4.64271 1.18601
C -9.26278 -5.172 -0.06154
C -9.55238 -4.15849 -1.14302
C -8.37314 -3.24412 -1.50581
C -7.01224 -3.6943 -1.01389
O -6.10721 -2.95412 -0.65665
O -2.4507 -4.28439 1.20924
O -6.68485 -4.98741 -1.2931
O -9.17441 -6.37192 -0.29585
C -5.39382 -5.44906 -1.46251
C -9.85314 -4.77581 -2.53105
C -10.66268 -3.78647 -3.36971
C -9.60987 -2.73714 -3.66109
C -8.37984 -3.4071 -3.03871
O -8.61981 -4.78311 -3.20165
H -10.46547 -3.60365 -0.82865
H -8.51567 -2.18527 -1.1966
H -10.38803 -5.74901 -2.47787
H -10.91957 -4.30459 -4.32172
H -11.59525 -3.40578 -2.90048
H -9.49823 -2.64891 -4.76459
H -9.79796 -1.73695 -3.214
H -7.44632 -3.01902 -3.5039
O -6.0358 -5.06524 1.50371
C -2.30019 -3.03114 0.65325
C -2.84246 -7.01115 1.60257
C -2.51198 -8.35998 2.24726
C -3.90215 -8.9151 2.46511
C -4.74995 -7.76775 1.91564
O -3.98408 -7.29203 0.83569
H -2.76302 -6.09869 3.59745
H -4.92129 -6.97851 3.94419
H -1.91101 -2.31987 1.41279
H -1.95291 -6.64491 1.04722
H -1.99126 -8.99994 1.49976
H -1.88627 -8.26984 3.16134
H -4.03544 -9.79927 1.80176
H -4.14719 -9.19455 3.51241
H -5.76944 -8.13625 1.66337
H -3.2738 -2.6676 0.26057
H -1.57693 -3.09021 -0.18565
H -5.41846 -6.54385 -1.63841
H -4.76738 -5.23562 -0.57476
H -4.93396 -4.95663 -2.34541
H -8.76176 -6.59311 1.95936
H -10.02616 -5.69041 2.80542
H -7.72719 -3.93936 2.95792
H -8.55104 -4.85051 4.21705
$end

$opt
CONSTRAINT
tors           1           2           3           4     +38.975
tors           3           4           5           6    -145.571
tors           4           5           6           7    +174.397
tors           5           6           7           8     +90.872
tors           6           7           8           9    -126.440
tors           7           8           9          10    +131.892
tors           8           9          10          11    +179.119
tors           9          10          11          12     +79.637
tors          11          12          13          14    -145.895
ENDCONSTRAINT
$end

$rem
JOBTYPE                   OPT
METHOD                    B3LYP
DFT_D                     d3_op
BASIS                     STO-3G
GEOM_OPT_MAX_CYCLES       100
GEOM_OPT_TOL_GRADIENT     300
GEOM_OPT_TOL_DISPLACEMENT 1200
GEOM_OPT_TOL_ENERGY       100
SYMMETRY                  False
THRESH                    12
SCF_CONVERGENCE           8
MAX_SUB_FILE_NUM          128
MEM_STATIC                400
MEM_TOTAL                 4000
$end
--------------------------------------------------------------

   16   -1510.1502650221      1.75E-09 Convergence criterion met
 Total energy in the final basis set = -1510.15026502
   14   -1510.2203072532      3.66E-09 Convergence criterion met
 Total energy in the final basis set = -1510.22030725
   14   -1510.2588007014      3.19E-09 Convergence criterion met
 Total energy in the final basis set = -1510.25880070
   14   -1510.2756770548      2.46E-09 Convergence criterion met
 Total energy in the final basis set = -1510.27567705
   14   -1510.2761998688      3.50E-09 Convergence criterion met
 Total energy in the final basis set = -1510.27619987
   14   -1510.2727407159      5.01E-09 Convergence criterion met
 Total energy in the final basis set = -1510.27274072
    3   -1510.2727407160      5.08E-10 Convergence criterion met
 Total energy in the final basis set = -1510.27274072
   13   -1510.2721875530      9.05E-09 Convergence criterion met
   11   -1510.2882242880      7.95E-09 Convergence criterion met
 Total energy in the final basis set = -1510.28822429
   12   -1510.2882277693      2.39E-09 Convergence criterion met
 Total energy in the final basis set = -1510.28822777
   10   -1510.2882589547      6.78E-09 Convergence criterion met
 Total energy in the final basis set = -1510.28825895
    9   -1510.2882640529      5.23E-09 Convergence criterion met
 Total energy in the final basis set = -1510.28826405
    9   -1510.2882702198      6.65E-09 Convergence criterion met
 Total energy in the final basis set = -1510.28827022
    9   -1510.2882713545      1.81E-09 Convergence criterion met
 Total energy in the final basis set = -1510.28827135

             Standard Nuclear Orientation (Angstroms)
    I     Atom           X                Y                Z
 ----------------------------------------------------------------
    1      O      -2.5587196402    -0.8636284631     2.3082521047
    2      C      -3.0475188706    -1.2000501740     1.2069098901
    3      C      -3.8133172760    -0.2519142409     0.2063182084
    4      C      -3.1733007964     1.1968401326     0.1094024836
    5      C      -1.7626805812     1.2769739234     0.7804443864
    6      O      -1.5899244730     2.5680797570     1.3767062243
    7      C      -0.3080537839     2.5790188480     2.1219840015
    8      C       0.8813432758     3.0674241627     1.2126359928
    9      O       1.9271556860     2.0187023455     1.2978560137
   10      C       2.4208787500     1.6425914278     0.0065691544
   11      C       3.5212415330     0.5570374073     0.2625079286
   12      C       3.0284171036    -0.9255156883     0.5531010078
   13      C       1.5351303724    -1.3077602630     0.2467774466
   14      O       0.8614485059    -2.1245104259     0.9213092201
   15      O      -2.9004940086    -2.4930543130     0.6245863595
   16      O       1.1526710357    -0.7566026482    -1.0037829309
   17      O       2.0407607127     2.1450502787    -1.0716628593
   18      C      -0.0776152604    -1.4060220609    -1.5275354913
   19      C       4.4772447481     0.3321702619    -0.9861371436
   20      C       5.8587694272    -0.1979079297    -0.4366432706
   21      C       5.4556127323    -1.6529862265     0.0080920632
   22      C       3.9514633232    -1.7213640765    -0.4765972439
   23      O       3.9178788026    -0.8537486834    -1.6735227169
   24      H       4.1029316617     0.9094224091     1.1333907086
   25      H       3.2357710026    -1.2136717913     1.5987383701
   26      H       4.5293331072     1.1921984277    -1.6815165906
   27      H       6.6108046980    -0.2170669046    -1.2417969186
   28      H       6.2437200937     0.4133578585     0.3950417563
   29      H       6.0616942829    -2.4178298727    -0.5026738251
   30      H       5.5423580615    -1.8031392184     1.0961642907
   31      H       3.5854903591    -2.7372309190    -0.7229207289
   32      O      -0.8600332643     0.4122399662     0.7440035568
   33      C      -1.9317364177    -3.2939505442     1.4166825846
   34      C      -3.7884747957    -0.7065122451    -1.3135162447
   35      C      -4.9860406414     0.0037281341    -2.0524665361
   36      C      -4.4707079870     1.4911183794    -2.1027248415
   37      C      -3.0318740100     1.3451420986    -1.4663765729
   38      O      -2.6066905142    -0.0109464169    -1.8810728638
   39      H      -4.8592140468    -0.1696708893     0.5568383017
   40      H      -3.8240584408     1.9762422414     0.5418562334
   41      H      -2.2156578654    -3.3322644550     2.4870804690
   42      H      -3.7003566245    -1.8000931382    -1.4573804043
   43      H      -5.1116580686    -0.4116981039    -3.0651931262
   44      H      -5.9366143239    -0.1015058039    -1.5057517468
   45      H      -4.3992852168     1.8625720435    -3.1372432733
   46      H      -5.1063592622     2.1791702720    -1.5226856096
   47      H      -2.2897724948     2.0993502957    -1.7937552499
   48      H      -0.9040973593    -2.8677568247     1.3160141452
   49      H      -1.9626800692    -4.3120047484     0.9872656770
   50      H       0.1452741488    -1.7126114636    -2.5678952167
   51      H      -0.9488458803    -0.7061249090    -1.5259707285
   52      H      -0.3248004553    -2.2954859165    -0.9181137570
   53      H       0.5611627365     3.1873011739     0.1541268468
   54      H       1.3009246700     4.0289529896     1.5764587953
   55      H      -0.0643438161     1.5590845418     2.4878712959
   56      H      -0.4606738552     3.2655866853     2.9782755514
 ----------------------------------------------------------------

    9   -1510.2882711435      2.09E-09 Convergence criterion met
 Total energy in the final basis set = -1510.28827114
 Final energy is   -1510.28827114355
 **  OPTIMIZATION CONVERGED  **

                    Orbital Energies (a.u.)
 --------------------------------------------------------------

 Alpha MOs
 -- Occupied --
-18.932 -18.924 -18.924 -18.919 -18.904 -18.883 -18.873 -18.873
-18.864 -18.859 -10.098 -10.095 -10.093 -10.089 -10.069 -10.068
-10.066 -10.064 -10.055 -10.053 -10.041 -10.039 -10.038 -10.032
-10.030 -10.026 -10.024 -10.021 -10.016 -10.015  -1.014  -1.005
 -1.000  -0.994  -0.981  -0.964  -0.937  -0.931  -0.925  -0.919
 -0.767  -0.757  -0.728  -0.719  -0.712  -0.704  -0.693  -0.648
 -0.637  -0.615  -0.593  -0.577  -0.549  -0.542  -0.538  -0.532
 -0.512  -0.506  -0.480  -0.466  -0.463  -0.452  -0.450  -0.441
 -0.437  -0.428  -0.425  -0.411  -0.407  -0.399  -0.396  -0.389
 -0.384  -0.375  -0.368  -0.359  -0.358  -0.355  -0.347  -0.341
 -0.338  -0.338  -0.333  -0.327  -0.325  -0.322  -0.318  -0.314
 -0.305  -0.302  -0.300  -0.296  -0.291  -0.285  -0.277  -0.275
 -0.265  -0.255  -0.243  -0.242  -0.239  -0.229  -0.228  -0.184
 -0.167  -0.166  -0.162  -0.152  -0.151  -0.149  -0.142  -0.140
 -0.137

          Ground-State Mulliken Net Atomic Charges

     Atom                 Charge (a.u.)
  ----------------------------------------
      1 O                    -0.215449
      2 C                     0.211951
      3 C                    -0.079856
      4 C                    -0.079393
      5 C                     0.212439
      6 O                    -0.173381
      7 C                    -0.052380
      8 C                    -0.055368
      9 O                    -0.176289
     10 C                     0.216011
     11 C                    -0.078299
     12 C                    -0.075935
     13 C                     0.218273
     14 O                    -0.224115
     15 O                    -0.174729
     16 O                    -0.163282
     17 O                    -0.208687
     18 C                    -0.148513
     19 C                     0.025552
     20 C                    -0.143178
     21 C                    -0.144860
     22 C                     0.025729
     23 O                    -0.184751
     24 H                     0.083836
     25 H                     0.084212
     26 H                     0.087309
     27 H                     0.077089
     28 H                     0.072263
     29 H                     0.077190
     30 H                     0.073418
     31 H                     0.081548
     32 O                    -0.210669
     33 C                    -0.142607
     34 C                     0.025037
     35 C                    -0.142647
     36 C                    -0.143615
     37 C                     0.027275
     38 O                    -0.185803
     39 H                     0.083360
     40 H                     0.087948
     41 H                     0.084891
     42 H                     0.097661
     43 H                     0.079798
     44 H                     0.075218
     45 H                     0.080421
     46 H                     0.075778
     47 H                     0.088076
     48 H                     0.115733
     49 H                     0.081588
     50 H                     0.076976
     51 H                     0.113361
     52 H                     0.085243
     53 H                     0.100834
     54 H                     0.082774
     55 H                     0.107587
     56 H                     0.087426
  ----------------------------------------
  Sum of atomic charges =    -0.000000

                    Cartesian Multipole Moments
 -----------------------------------------------------------------
    Charge (ESU x 10^10)
                -0.0000
    Dipole Moment (Debye)
         X      -0.9903      Y       1.0944      Z       0.6337
       Tot       1.6062
    Quadrupole Moments (Debye-Ang)
        XX    -136.8513     XY      -2.5031     YY    -152.5235
        XZ      10.0834     YZ       3.1846     ZZ    -165.4107

 Total job time:  96.87s(wall), 4620.71s(cpu)
        *  Thank you very much for using Q-Chem.  Have a nice day.  *
