 Q-Chem 5.0, Q-Chem, Inc., Pleasanton, CA (2017)
 Q-Chem 5.0.1 for Intel X86 EM64T Linux

User input:
--------------------------------------------------------------
$molecule
0  1
O -2.3810019149 -0.8770256295 2.3181758512
C -2.9078042423 -1.2256441115 1.2383985401
C -3.7367384688 -0.2972130742 0.2708429763
C -3.1390259726 1.1671003594 0.1436482289
C -1.7153998473 1.3097764021 0.7757655927
O -1.6062248488 2.5950825079 1.40247491
C -0.2971043423 2.6735144086 2.0934914447
C 0.8499068311 3.1441437054 1.1183485352
O 1.9414911601 2.1462252739 1.2122030864
C 2.2755603473 1.612303431 -0.0790973893
C 3.435332608 0.5903080149 0.1648228144
C 3.01343164 -0.8900911817 0.5585186687
C 1.5425239444 -1.3565905063 0.2565427942
O 0.9306352259 -2.23426486 0.9140044706
O -2.7958560958 -2.5285552125 0.6725008825
O 1.1219636396 -0.8107640169 -0.9819825475
O 1.7470942981 1.9785407186 -1.1496392142
C -0.0998345332 -1.4844115639 -1.4923048968
C 4.3534396746 0.3300501526 -1.1066817009
C 5.7820073702 -0.0774552709 -0.5732040644
C 5.4756152642 -1.5062629495 0.0118103157
C 3.9681093227 -1.7056916056 -0.4259596132
O 3.8498758101 -0.9364762935 -1.6839078413
H 4.0384163265 1.0100961261 0.9897723667
H 3.2283808428 -1.1029667078 1.6203347256
H 4.3300296395 1.1366490497 -1.8648813532
H 6.5000784122 -0.1312495774 -1.4072750813
H 6.1678499766 0.6232130299 0.1843460527
H 6.1166604078 -2.2788879964 -0.4412411558
H 5.5916719929 -1.5500718353 1.1066589258
H 3.6628282613 -2.7584576785 -0.5842136135
O -0.7655480445 0.5005616974 0.6981043501
C -1.8349063612 -3.3409791656 1.4626355
C -3.7617494853 -0.758556094 -1.2463543879
C -4.9935147002 -0.0691535489 -1.9482682788
C -4.4967814135 1.422887312 -2.0360811647
C -3.04015655 1.3021054481 -1.4372837368
O -2.6079827964 -0.0512433666 -1.8547103056
H -4.7686012165 -0.2417466517 0.6653714514
H -3.8032222598 1.9316771237 0.5818828038
H -2.1069624243 -3.3585068755 2.5366101626
H -3.6639607522 -1.8517553005 -1.3871556059
H -5.1532485267 -0.4988577618 -2.950089795
H -5.9212387402 -0.1769891416 -1.3640857861
H -4.4576709679 1.7777483996 -3.0781674248
H -5.1243423652 2.11355988 -1.4503740118
H -2.3174950179 2.0634391941 -1.7905216345
H -0.7986362659 -2.940174245 1.3428845467
H -1.8955293296 -4.3633612864 1.0470465845
H 0.1254344242 -1.8134601247 -2.5252989967
H -0.9707092639 -0.7837162058 -1.5068423626
H -0.3397246218 -2.3620410317 -0.8635236585
H 0.491201696 3.1892662385 0.0658798212
H 1.2477093154 4.1367785716 1.4153631432
H -0.0137539157 1.6823233928 2.5071248456
H -0.4371399826 3.4002018681 2.9179929561
$end

$rem
JOBTYPE                   OPT
METHOD                    B3LYP
DFT_D                     d3_op
BASIS                     STO-3G
GEOM_OPT_MAX_CYCLES       100
GEOM_OPT_TOL_GRADIENT     300
GEOM_OPT_TOL_DISPLACEMENT 1200
GEOM_OPT_TOL_ENERGY       100
SYMMETRY                  False
THRESH                    12
SCF_CONVERGENCE           8
MAX_SUB_FILE_NUM          128
MEM_STATIC                400
MEM_TOTAL                 4000
$end
--------------------------------------------------------------

   16   -1510.2901127746      6.53E-09 Convergence criterion met
 Total energy in the final basis set = -1510.29011277
   15   -1510.1979654088      7.21E-09 Convergence criterion met
 Total energy in the final basis set = -1510.19796541
   14   -1510.2831201225      9.42E-09 Convergence criterion met
 Total energy in the final basis set = -1510.28312012
   16   -1510.2632860829      2.14E-09 Convergence criterion met
 Total energy in the final basis set = -1510.26328608
   15   -1510.2656765756      6.79E-09 Convergence criterion met
 Total energy in the final basis set = -1510.26567658
   14   -1510.2744669102      6.18E-09 Convergence criterion met
 Total energy in the final basis set = -1510.27446691
   14   -1510.2803189189      4.19E-09 Convergence criterion met
 Total energy in the final basis set = -1510.28031892
   14   -1510.2867283823      8.91E-09 Convergence criterion met
    9   -1510.2947063000      7.71E-09 Convergence criterion met
 Total energy in the final basis set = -1510.29470630
    9   -1510.2947070201      3.43E-09 Convergence criterion met
 Total energy in the final basis set = -1510.29470702
    9   -1510.2947051468      9.17E-09 Convergence criterion met
 Total energy in the final basis set = -1510.29470515
    9   -1510.2947039279      7.29E-09 Convergence criterion met
 Total energy in the final basis set = -1510.29470393
   10   -1510.2947013843      7.58E-09 Convergence criterion met
 Total energy in the final basis set = -1510.29470138
   11   -1510.2946929659      7.39E-09 Convergence criterion met
 Total energy in the final basis set = -1510.29469297

             Standard Nuclear Orientation (Angstroms)
    I     Atom           X                Y                Z
 ----------------------------------------------------------------
    1      O       2.4420247196     0.7647175208     2.4946302678
    2      C       2.8440428914     1.1906111192     1.3885041576
    3      C       3.7037464197     0.3680222376     0.3558111995
    4      C       3.0838475908    -1.0648875163     0.0597459157
    5      C       1.6885718804    -1.2926509935     0.7307204871
    6      O       1.7318997538    -2.5381737619     1.4379652284
    7      C       0.4210698607    -2.8133969375     2.0699000569
    8      C      -0.6847774570    -3.2517741225     1.0254102078
    9      O      -1.8783970755    -2.3897966698     1.1640876406
   10      C      -2.0401964241    -1.5454579861     0.0092404667
   11      C      -3.3222949482    -0.6857886902     0.2568177208
   12      C      -3.0895882273     0.8754331474     0.4478857589
   13      C      -1.6107842973     1.3899360239     0.3125144323
   14      O      -0.9357274529     1.8810039349     1.2492677477
   15      O       2.6026116095     2.5035869945     0.8953035599
   16      O      -1.2237089078     1.3025390815    -1.0461230853
   17      O      -1.3017568101    -1.5881111884    -0.9974593864
   18      C       0.1028851572     1.9189523084    -1.2964573812
   19      C      -4.2961079860    -0.6927013216    -1.0024474188
   20      C      -5.7329976368    -0.2630305355    -0.5056189331
   21      C      -5.5253029164     1.2816717179    -0.2871938716
   22      C      -4.0124205167     1.4501813914    -0.7144683224
   23      O      -3.8461893492     0.4642855547    -1.8046971925
   24      H      -3.8211298998    -1.1046510677     1.1482128118
   25      H      -3.4464912458     1.1909771288     1.4444138302
   26      H      -4.2592351821    -1.6196765962    -1.6066450271
   27      H      -6.4856292321    -0.4632999850    -1.2847398982
   28      H      -6.0285835177    -0.7892272869     0.4158156681
   29      H      -6.1793494746     1.8747528348    -0.9461691449
   30      H      -5.6986914856     1.5927119636     0.7553365059
   31      H      -3.7313004288     2.4625289521    -1.0630804675
   32      O       0.6764650241    -0.5634782584     0.6518139428
   33      C       1.6666250970     3.2152055117     1.8045786099
   34      C       3.7511174046     0.9869615400    -1.1006419176
   35      C       4.9436187141     0.3205368678    -1.8893782989
   36      C       4.3598774055    -1.1136441892    -2.1759432355
   37      C       2.9290061888    -1.0003958093    -1.5206578407
   38      O       2.5537951562     0.4115086470    -1.7618682339
   39      H       4.7219824794     0.2611350634     0.7736198949
   40      H       3.7593293134    -1.8791024077     0.3738088571
   41      H       2.0135411303     3.1702413002     2.8557706352
   42      H       3.7096051892     2.0923387843    -1.1252958204
   43      H       5.1409798218     0.8689314539    -2.8242800192
   44      H       5.8701054728     0.2920186402    -1.2938685907
   45      H       4.2730340941    -1.3059132010    -3.2571574314
   46      H       4.9597041861    -1.9175695285    -1.7203383100
   47      H       2.1584209696    -1.6784694564    -1.9366321774
   48      H       0.6485835881     2.7627290815     1.7187626116
   49      H       1.6526418953     4.2650823673     1.4597346506
   50      H       0.0383471962     2.3783844578    -2.3008750938
   51      H       0.9233313404     1.1586516161    -1.2974026673
   52      H       0.3262686358     2.6991231475    -0.5458848385
   53      H      -0.2953586319    -3.1588175598    -0.0130243415
   54      H      -1.0025213856    -4.2979012171     1.2121099335
   55      H       0.0501625831    -1.9164235888     2.6123528274
   56      H       0.6156871905    -3.6267098710     2.7960492044
 ----------------------------------------------------------------

    8   -1510.2946931200      8.20E-09 Convergence criterion met
 Total energy in the final basis set = -1510.29469312
 Final energy is   -1510.29469312004
 **  OPTIMIZATION CONVERGED  **

                    Orbital Energies (a.u.)
 --------------------------------------------------------------

 Alpha MOs
 -- Occupied --
-18.932 -18.925 -18.924 -18.922 -18.901 -18.884 -18.874 -18.872
-18.861 -18.861 -10.096 -10.094 -10.091 -10.090 -10.068 -10.065
-10.064 -10.061 -10.056 -10.054 -10.037 -10.036 -10.035 -10.032
-10.030 -10.024 -10.024 -10.022 -10.017 -10.015  -1.013  -1.003
 -1.000  -0.995  -0.978  -0.965  -0.936  -0.929  -0.924  -0.921
 -0.765  -0.757  -0.726  -0.719  -0.711  -0.704  -0.692  -0.647
 -0.639  -0.616  -0.592  -0.577  -0.547  -0.540  -0.538  -0.533
 -0.509  -0.506  -0.476  -0.467  -0.462  -0.454  -0.448  -0.439
 -0.435  -0.429  -0.427  -0.413  -0.406  -0.397  -0.392  -0.387
 -0.384  -0.374  -0.367  -0.359  -0.358  -0.354  -0.344  -0.341
 -0.336  -0.336  -0.332  -0.327  -0.325  -0.322  -0.319  -0.311
 -0.305  -0.302  -0.300  -0.296  -0.290  -0.283  -0.274  -0.272
 -0.269  -0.257  -0.244  -0.242  -0.237  -0.231  -0.229  -0.180
 -0.166  -0.166  -0.163  -0.152  -0.150  -0.147  -0.141  -0.139
 -0.137

          Ground-State Mulliken Net Atomic Charges

     Atom                 Charge (a.u.)
  ----------------------------------------
      1 O                    -0.217712
      2 C                     0.210613
      3 C                    -0.079462
      4 C                    -0.079999
      5 C                     0.212078
      6 O                    -0.171518
      7 C                    -0.051680
      8 C                    -0.057518
      9 O                    -0.175171
     10 C                     0.213824
     11 C                    -0.078347
     12 C                    -0.077610
     13 C                     0.218622
     14 O                    -0.221808
     15 O                    -0.173830
     16 O                    -0.159232
     17 O                    -0.203661
     18 C                    -0.145674
     19 C                     0.026706
     20 C                    -0.143892
     21 C                    -0.144567
     22 C                     0.027478
     23 O                    -0.182100
     24 H                     0.085767
     25 H                     0.083115
     26 H                     0.083066
     27 H                     0.077049
     28 H                     0.072993
     29 H                     0.076992
     30 H                     0.073157
     31 H                     0.083523
     32 O                    -0.211463
     33 C                    -0.146714
     34 C                     0.024491
     35 C                    -0.143385
     36 C                    -0.143455
     37 C                     0.027174
     38 O                    -0.184934
     39 H                     0.084091
     40 H                     0.087133
     41 H                     0.084196
     42 H                     0.095859
     43 H                     0.079181
     44 H                     0.074596
     45 H                     0.079837
     46 H                     0.075324
     47 H                     0.089191
     48 H                     0.118810
     49 H                     0.079378
     50 H                     0.078528
     51 H                     0.116475
     52 H                     0.083066
     53 H                     0.099591
     54 H                     0.083196
     55 H                     0.099993
     56 H                     0.088638
  ----------------------------------------
  Sum of atomic charges =    -0.000000

                    Cartesian Multipole Moments
 -----------------------------------------------------------------
    Charge (ESU x 10^10)
                -0.0000
    Dipole Moment (Debye)
         X       0.6269      Y      -1.1496      Z       0.2307
       Tot       1.3295
    Quadrupole Moments (Debye-Ang)
        XX    -137.6662     XY      -0.7189     YY    -149.1415
        XZ      -8.5532     YZ      -1.1276     ZZ    -167.0940

 Total job time:  129.18s(wall), 6164.55s(cpu)
        *  Thank you very much for using Q-Chem.  Have a nice day.  *
