 Q-Chem 5.0, Q-Chem, Inc., Pleasanton, CA (2017)
 Q-Chem 5.0.1 for Intel X86 EM64T Linux

User input:
--------------------------------------------------------------
$molecule
0  1
O -3.94934 -3.66094 2.70899
C -3.26408 -4.56952 2.26188
C -3.36658 -6.02376 2.66595
C -4.77596 -6.5874 2.91049
C -5.93512 -5.68424 2.55168
O -6.94103 -5.83608 3.46301
C -8.03317 -4.9351 3.25159
C -9.01065 -5.52249 2.23885
O -9.24944 -4.57732 1.18409
C -9.00835 -5.03094 -0.071
C -9.28609 -3.99525 -1.13442
C -8.11997 -3.04014 -1.42804
C -6.76603 -3.46793 -0.89837
O -5.85595 -2.71328 -0.58722
O -2.42659 -4.27898 1.22982
O -6.42213 -4.75594 -1.18386
O -8.81698 -6.20998 -0.34697
C -5.12627 -5.20597 -1.34794
C -9.51504 -4.58179 -2.55002
C -10.3228 -3.59385 -3.39212
C -9.29375 -2.50398 -3.61133
C -8.06672 -3.15585 -2.96408
O -8.25854 -4.53288 -3.17461
H -10.2293 -3.477 -0.84706
H -8.30344 -1.99728 -1.08788
H -10.02087 -5.57187 -2.54351
H -10.5245 -4.09227 -4.36768
H -11.28546 -3.25605 -2.95172
H -9.146 -2.37591 -4.70662
H -9.52893 -1.52543 -3.13931
H -7.12913 -2.72691 -3.38279
O -6.04573 -5.07743 1.49932
C -2.24819 -3.01958 0.69649
C -2.84571 -7.00945 1.59893
C -2.51218 -8.35884 2.24059
C -3.90123 -8.9145 2.46401
C -4.75162 -7.76799 1.91657
O -3.98938 -7.29078 0.83495
H -2.76063 -6.10084 3.59573
H -4.91929 -6.97744 3.94491
H -1.8632 -2.32598 1.47421
H -1.95833 -6.64241 1.04072
H -1.9951 -8.99725 1.48921
H -1.88191 -8.27068 3.15171
H -4.03614 -9.79996 1.80273
H -4.14267 -9.19197 3.51268
H -5.77156 -8.13718 1.66718
H -3.20821 -2.63513 0.29208
H -1.51052 -3.0761 -0.12991
H -5.14259 -6.29718 -1.54505
H -4.51562 -5.00713 -0.44589
H -4.65867 -4.69454 -2.21587
H -8.66409 -6.53046 1.91804
H -9.98204 -5.70256 2.74855
H -7.70234 -3.89851 3.00728
H -8.56934 -4.84236 4.22066
$end

$opt
CONSTRAINT
tors           1           2           3           4     +38.975
tors           3           4           5           6    -142.796
tors           4           5           6           7    +175.329
tors           5           6           7           8     +85.760
tors           6           7           8           9    -127.074
tors           7           8           9          10    +124.675
tors           8           9          10          11    +179.632
tors           9          10          11          12     +85.859
tors          11          12          13          14    -152.056
ENDCONSTRAINT
$end

$rem
JOBTYPE                   OPT
METHOD                    B3LYP
DFT_D                     d3_op
BASIS                     STO-3G
GEOM_OPT_MAX_CYCLES       100
GEOM_OPT_TOL_GRADIENT     300
GEOM_OPT_TOL_DISPLACEMENT 1200
GEOM_OPT_TOL_ENERGY       100
SYMMETRY                  False
THRESH                    12
SCF_CONVERGENCE           8
MAX_SUB_FILE_NUM          128
MEM_STATIC                400
MEM_TOTAL                 4000
$end
--------------------------------------------------------------

   16   -1510.1493900011      1.77E-09 Convergence criterion met
 Total energy in the final basis set = -1510.14939000
   14   -1510.2202809807      3.76E-09 Convergence criterion met
 Total energy in the final basis set = -1510.22028098
   14   -1510.2591373723      8.40E-09 Convergence criterion met
 Total energy in the final basis set = -1510.25913737
   14   -1510.2703271237      4.17E-09 Convergence criterion met
 Total energy in the final basis set = -1510.27032712
   14   -1510.2776186946      4.40E-09 Convergence criterion met
 Total energy in the final basis set = -1510.27761869
   14   -1510.2750063381      2.88E-09 Convergence criterion met
 Total energy in the final basis set = -1510.27500634
   14   -1510.2726145296      5.58E-09 Convergence criterion met
 Total energy in the final basis set = -1510.27261453
   13   -1510.2806983930      8.09E-09 Convergence criterion met
   11   -1510.2901469252      7.03E-09 Convergence criterion met
 Total energy in the final basis set = -1510.29014693
   10   -1510.2901675832      6.05E-09 Convergence criterion met
 Total energy in the final basis set = -1510.29016758
   10   -1510.2901746042      5.06E-09 Convergence criterion met
 Total energy in the final basis set = -1510.29017460
    9   -1510.2901783183      7.08E-09 Convergence criterion met
 Total energy in the final basis set = -1510.29017832
    9   -1510.2901794532      4.48E-09 Convergence criterion met
 Total energy in the final basis set = -1510.29017945
    9   -1510.2901803834      3.73E-09 Convergence criterion met
 Total energy in the final basis set = -1510.29018038

             Standard Nuclear Orientation (Angstroms)
    I     Atom           X                Y                Z
 ----------------------------------------------------------------
    1      O      -2.3810019149    -0.8770256295     2.3181758512
    2      C      -2.9078042423    -1.2256441115     1.2383985401
    3      C      -3.7367384688    -0.2972130742     0.2708429763
    4      C      -3.1390259726     1.1671003594     0.1436482289
    5      C      -1.7153998473     1.3097764021     0.7757655927
    6      O      -1.6062248488     2.5950825079     1.4024749100
    7      C      -0.2971043423     2.6735144086     2.0934914447
    8      C       0.8499068311     3.1441437054     1.1183485352
    9      O       1.9414911601     2.1462252739     1.2122030864
   10      C       2.2755603473     1.6123034310    -0.0790973893
   11      C       3.4353326080     0.5903080149     0.1648228144
   12      C       3.0134316400    -0.8900911817     0.5585186687
   13      C       1.5425239444    -1.3565905063     0.2565427942
   14      O       0.9306352259    -2.2342648600     0.9140044706
   15      O      -2.7958560958    -2.5285552125     0.6725008825
   16      O       1.1219636396    -0.8107640169    -0.9819825475
   17      O       1.7470942981     1.9785407186    -1.1496392142
   18      C      -0.0998345332    -1.4844115639    -1.4923048968
   19      C       4.3534396746     0.3300501526    -1.1066817009
   20      C       5.7820073702    -0.0774552709    -0.5732040644
   21      C       5.4756152642    -1.5062629495     0.0118103157
   22      C       3.9681093227    -1.7056916056    -0.4259596132
   23      O       3.8498758101    -0.9364762935    -1.6839078413
   24      H       4.0384163265     1.0100961261     0.9897723667
   25      H       3.2283808428    -1.1029667078     1.6203347256
   26      H       4.3300296395     1.1366490497    -1.8648813532
   27      H       6.5000784122    -0.1312495774    -1.4072750813
   28      H       6.1678499766     0.6232130299     0.1843460527
   29      H       6.1166604078    -2.2788879964    -0.4412411558
   30      H       5.5916719929    -1.5500718353     1.1066589258
   31      H       3.6628282613    -2.7584576785    -0.5842136135
   32      O      -0.7655480445     0.5005616974     0.6981043501
   33      C      -1.8349063612    -3.3409791656     1.4626355000
   34      C      -3.7617494853    -0.7585560940    -1.2463543879
   35      C      -4.9935147002    -0.0691535489    -1.9482682788
   36      C      -4.4967814135     1.4228873120    -2.0360811647
   37      C      -3.0401565500     1.3021054481    -1.4372837368
   38      O      -2.6079827964    -0.0512433666    -1.8547103056
   39      H      -4.7686012165    -0.2417466517     0.6653714514
   40      H      -3.8032222598     1.9316771237     0.5818828038
   41      H      -2.1069624243    -3.3585068755     2.5366101626
   42      H      -3.6639607522    -1.8517553005    -1.3871556059
   43      H      -5.1532485267    -0.4988577618    -2.9500897950
   44      H      -5.9212387402    -0.1769891416    -1.3640857861
   45      H      -4.4576709679     1.7777483996    -3.0781674248
   46      H      -5.1243423652     2.1135598800    -1.4503740118
   47      H      -2.3174950179     2.0634391941    -1.7905216345
   48      H      -0.7986362659    -2.9401742450     1.3428845467
   49      H      -1.8955293296    -4.3633612864     1.0470465845
   50      H       0.1254344242    -1.8134601247    -2.5252989967
   51      H      -0.9707092639    -0.7837162058    -1.5068423626
   52      H      -0.3397246218    -2.3620410317    -0.8635236585
   53      H       0.4912016960     3.1892662385     0.0658798212
   54      H       1.2477093154     4.1367785716     1.4153631432
   55      H      -0.0137539157     1.6823233928     2.5071248456
   56      H      -0.4371399826     3.4002018681     2.9179929561
 ----------------------------------------------------------------

    9   -1510.2901809073      2.07E-09 Convergence criterion met
 Total energy in the final basis set = -1510.29018091
 Final energy is   -1510.29018090734
 **  OPTIMIZATION CONVERGED  **

                    Orbital Energies (a.u.)
 --------------------------------------------------------------

 Alpha MOs
 -- Occupied --
-18.932 -18.924 -18.923 -18.920 -18.904 -18.883 -18.873 -18.872
-18.864 -18.858 -10.097 -10.095 -10.093 -10.089 -10.068 -10.067
-10.063 -10.063 -10.055 -10.054 -10.040 -10.038 -10.038 -10.032
-10.031 -10.026 -10.024 -10.020 -10.017 -10.016  -1.014  -1.004
 -1.000  -0.994  -0.981  -0.965  -0.936  -0.930  -0.925  -0.919
 -0.767  -0.757  -0.727  -0.719  -0.712  -0.704  -0.692  -0.648
 -0.637  -0.615  -0.593  -0.577  -0.549  -0.542  -0.538  -0.532
 -0.511  -0.505  -0.478  -0.466  -0.462  -0.452  -0.451  -0.440
 -0.436  -0.428  -0.426  -0.412  -0.406  -0.398  -0.394  -0.389
 -0.383  -0.374  -0.368  -0.359  -0.358  -0.356  -0.346  -0.340
 -0.338  -0.337  -0.332  -0.326  -0.325  -0.322  -0.318  -0.314
 -0.305  -0.302  -0.301  -0.296  -0.291  -0.285  -0.277  -0.274
 -0.265  -0.256  -0.243  -0.242  -0.240  -0.229  -0.227  -0.183
 -0.167  -0.165  -0.162  -0.152  -0.151  -0.149  -0.142  -0.140
 -0.137

          Ground-State Mulliken Net Atomic Charges

     Atom                 Charge (a.u.)
  ----------------------------------------
      1 O                    -0.215743
      2 C                     0.211571
      3 C                    -0.079836
      4 C                    -0.079724
      5 C                     0.212361
      6 O                    -0.172971
      7 C                    -0.052105
      8 C                    -0.056986
      9 O                    -0.176543
     10 C                     0.217090
     11 C                    -0.078529
     12 C                    -0.075399
     13 C                     0.219346
     14 O                    -0.226866
     15 O                    -0.174747
     16 O                    -0.160408
     17 O                    -0.206758
     18 C                    -0.148759
     19 C                     0.026067
     20 C                    -0.142720
     21 C                    -0.145061
     22 C                     0.025379
     23 O                    -0.185018
     24 H                     0.084314
     25 H                     0.084642
     26 H                     0.086916
     27 H                     0.077134
     28 H                     0.072469
     29 H                     0.077303
     30 H                     0.073545
     31 H                     0.082025
     32 O                    -0.211353
     33 C                    -0.144047
     34 C                     0.024856
     35 C                    -0.142793
     36 C                    -0.143554
     37 C                     0.027508
     38 O                    -0.185284
     39 H                     0.083683
     40 H                     0.087838
     41 H                     0.084134
     42 H                     0.097519
     43 H                     0.079812
     44 H                     0.075158
     45 H                     0.080345
     46 H                     0.075716
     47 H                     0.088352
     48 H                     0.116469
     49 H                     0.081327
     50 H                     0.077138
     51 H                     0.114054
     52 H                     0.085588
     53 H                     0.101191
     54 H                     0.082367
     55 H                     0.104711
     56 H                     0.087281
  ----------------------------------------
  Sum of atomic charges =    -0.000000

                    Cartesian Multipole Moments
 -----------------------------------------------------------------
    Charge (ESU x 10^10)
                -0.0000
    Dipole Moment (Debye)
         X      -0.9302      Y       1.2939      Z       0.5843
       Tot       1.6974
    Quadrupole Moments (Debye-Ang)
        XX    -136.3394     XY      -1.2980     YY    -152.5147
        XZ       8.6318     YZ       2.4007     ZZ    -165.5545

 Total job time:  83.86s(wall), 3999.08s(cpu)
        *  Thank you very much for using Q-Chem.  Have a nice day.  *
