 Q-Chem 5.0, Q-Chem, Inc., Pleasanton, CA (2017)
 Q-Chem 5.0.1 for Intel X86 EM64T Linux

User input:
--------------------------------------------------------------
$molecule
0  1
O -3.94934 -3.66094 2.70899
C -3.26408 -4.56952 2.26188
C -3.36658 -6.02376 2.66595
C -4.76924 -6.56774 2.98296
C -5.93226 -5.64625 2.68912
O -6.90337 -5.80838 3.63573
C -7.9624 -4.85151 3.52568
C -9.04185 -5.36856 2.58039
O -9.35909 -4.36436 1.60375
C -9.37228 -4.78754 0.31538
C -9.71994 -3.68925 -0.66112
C -8.55111 -2.76987 -1.04431
C -7.16741 -3.27948 -0.6945
O -6.20047 -2.57996 -0.42946
O -2.39715 -4.27149 1.25679
O -6.91227 -4.57097 -1.04968
O -9.31751 -5.96521 -0.02081
C -5.65886 -5.07452 -1.34392
C -10.13753 -4.19461 -2.0642
C -10.98412 -3.13066 -2.76364
C -9.93155 -2.08193 -3.05726
C -8.67496 -2.81815 -2.58008
O -8.95782 -4.17364 -2.82479
H -10.5955 -3.14561 -0.2388
H -8.645 -1.73479 -0.64835
H -10.6898 -5.15928 -2.04238
H -11.32455 -3.57087 -3.72854
H -11.86913 -2.76921 -2.19712
H -9.89964 -1.91487 -4.15683
H -10.06237 -1.11404 -2.52649
H -7.76996 -2.41287 -3.08529
O -6.09094 -5.03706 1.64243
C -2.2216 -3.01153 0.72378
C -2.94047 -6.99746 1.54342
C -2.57926 -8.36241 2.13385
C -3.95427 -8.90033 2.45895
C -4.82639 -7.73885 1.98076
O -4.13734 -7.2529 0.85553
H -2.68834 -6.13353 3.5408
H -4.86202 -6.95837 4.02271
H -1.87411 -2.30809 1.51035
H -2.08999 -6.63568 0.92745
H -2.13783 -8.99126 1.32795
H -1.87356 -8.30712 2.9906
H -4.14807 -9.78518 1.81183
H -4.12228 -9.17097 3.52369
H -5.86546 -8.09404 1.79871
H -3.17498 -2.64581 0.28569
H -1.45581 -3.05918 -0.07726
H -5.7441 -6.15906 -1.56007
H -4.95274 -4.92726 -0.50254
H -5.25186 -4.56314 -2.24181
H -8.72877 -6.35048 2.1595
H -9.95643 -5.57984 3.17566
H -7.58988 -3.83988 3.23753
H -8.40954 -4.70906 4.53294
$end

$opt
CONSTRAINT
tors           1           2           3           4     +35.816
tors           3           4           5           6    -144.118
tors           4           5           6           7    +172.497
tors           5           6           7           8     +88.562
tors           6           7           8           9    -129.856
tors           7           8           9          10    +130.831
tors           8           9          10          11    +179.655
tors           9          10          11          12     +81.643
tors          11          12          13          14    -150.420
ENDCONSTRAINT
$end

$rem
JOBTYPE                   OPT
METHOD                    B3LYP
DFT_D                     d3_op
BASIS                     STO-3G
GEOM_OPT_MAX_CYCLES       100
GEOM_OPT_TOL_GRADIENT     300
GEOM_OPT_TOL_DISPLACEMENT 1200
GEOM_OPT_TOL_ENERGY       100
SYMMETRY                  False
THRESH                    12
SCF_CONVERGENCE           8
MAX_SUB_FILE_NUM          128
MEM_STATIC                400
MEM_TOTAL                 4000
$end
--------------------------------------------------------------

   15   -1510.1496988484      8.02E-09 Convergence criterion met
 Total energy in the final basis set = -1510.14969885
   14   -1510.2201313579      2.81E-09 Convergence criterion met
 Total energy in the final basis set = -1510.22013136
   14   -1510.2589222314      4.94E-09 Convergence criterion met
 Total energy in the final basis set = -1510.25892223
   14   -1510.2747415772      7.42E-09 Convergence criterion met
 Total energy in the final basis set = -1510.27474158
   14   -1510.2771236609      3.11E-09 Convergence criterion met
 Total energy in the final basis set = -1510.27712366
   14   -1510.2706408548      5.50E-09 Convergence criterion met
 Total energy in the final basis set = -1510.27064085
   14   -1510.2708532350      4.29E-09 Convergence criterion met
 Total energy in the final basis set = -1510.27085324
   13   -1510.2791738930      9.11E-09 Convergence criterion met
   11   -1510.2881926478      6.32E-09 Convergence criterion met
 Total energy in the final basis set = -1510.28819265
   10   -1510.2882134064      7.11E-09 Convergence criterion met
 Total energy in the final basis set = -1510.28821341
   10   -1510.2882190616      5.34E-09 Convergence criterion met
 Total energy in the final basis set = -1510.28821906
    9   -1510.2882226084      8.64E-09 Convergence criterion met
 Total energy in the final basis set = -1510.28822261
    9   -1510.2882248541      5.47E-09 Convergence criterion met
 Total energy in the final basis set = -1510.28822485
    9   -1510.2882225497      6.85E-09 Convergence criterion met
 Total energy in the final basis set = -1510.28822255

             Standard Nuclear Orientation (Angstroms)
    I     Atom           X                Y                Z
 ----------------------------------------------------------------
    1      O      -2.4329191731    -0.8577362643     2.2874027559
    2      C      -2.9775458552    -1.2039692682     1.2156871094
    3      C      -3.7946756412    -0.2695933409     0.2432944982
    4      C      -3.2138064069     1.2040808532     0.1537161741
    5      C      -1.7801319549     1.3163639813     0.7667044631
    6      O      -1.6175071391     2.5811399101     1.4232916729
    7      C      -0.3171961565     2.5586298542     2.1369961603
    8      C       0.8549064221     3.0502653263     1.2055491601
    9      O       1.9246358002     2.0279959607     1.3056586895
   10      C       2.3875264961     1.6256817295     0.0084022992
   11      C       3.5090845824     0.5621494616     0.2552246528
   12      C       3.0294506179    -0.9253329453     0.5447058103
   13      C       1.5449247445    -1.3234487802     0.2122607014
   14      O       0.8970174091    -2.2037357849     0.8303538832
   15      O      -2.8743346990    -2.5071435614     0.6472099576
   16      O       1.1463294312    -0.7109445814    -1.0038576573
   17      O       1.9725932149     2.1028649905    -1.0685059306
   18      C      -0.0813086619    -1.3449295435    -1.5534794425
   19      C       4.4648205645     0.3482366004    -0.9952492661
   20      C       5.8543896504    -0.1597080680    -0.4454805615
   21      C       5.4712687392    -1.6168060187     0.0099335936
   22      C       3.9693146353    -1.7113609767    -0.4776754427
   23      O       3.9235212687    -0.8487986312    -1.6781691259
   24      H       4.0877354597     0.9201966622     1.1256597428
   25      H       3.2272482893    -1.2131298813     1.5922140207
   26      H       4.5034319612     1.2064969053    -1.6936427595
   27      H       6.6045282017    -0.1745273895    -1.2525113750
   28      H       6.2333228720     0.4621131706     0.3811414179
   29      H       6.0897082255    -2.3770175933    -0.4928502229
   30      H       5.5573154584    -1.7567475182     1.0994371733
   31      H       3.6202064507    -2.7339971829    -0.7205872445
   32      O      -0.8536053918     0.4838969913     0.6537734107
   33      C      -1.8887364102    -3.3140377396     1.4120073053
   34      C      -3.7787613958    -0.7060615549    -1.2826428544
   35      C      -5.0209560328    -0.0417663794    -1.9899510117
   36      C      -4.5738861559     1.4679913143    -2.0290647119
   37      C      -3.1179833591     1.3782644031    -1.4235510919
   38      O      -2.6393330947     0.0470418536    -1.8626288684
   39      H      -4.8371461554    -0.2335762595     0.6115983398
   40      H      -3.8763608794     1.9531330475     0.6202634425
   41      H      -2.1355497239    -3.3389970980     2.4919754524
   42      H      -3.6463543182    -1.7935069824    -1.4392416680
   43      H      -5.1465166922    -0.4494594072    -3.0058544291
   44      H      -5.9555257256    -0.1975103191    -1.4277430746
   45      H      -4.5407360678     1.8560397572    -3.0594250553
   46      H      -5.2273229974     2.1190701327    -1.4264806548
   47      H      -2.4175046484     2.1688837550    -1.7564815189
   48      H      -0.8587905819    -2.9045317617     1.2719259006
   49      H      -1.9491367907    -4.3352755624     0.9935464535
   50      H       0.1465948636    -1.6272763060    -2.5996463373
   51      H      -0.9478295354    -0.6400329790    -1.5368343645
   52      H      -0.3332615750    -2.2476656556    -0.9656437895
   53      H       0.5260155430     3.1332302641     0.1461422732
   54      H       1.2553113867     4.0302480762     1.5402308520
   55      H      -0.0775390371     1.5296473050     2.4784366383
   56      H      -0.4397130907     3.2308626318     3.0092580855
 ----------------------------------------------------------------

    8   -1510.2882230580      9.48E-09 Convergence criterion met
 Total energy in the final basis set = -1510.28822306
 Final energy is   -1510.28822305802
 **  OPTIMIZATION CONVERGED  **

                    Orbital Energies (a.u.)
 --------------------------------------------------------------

 Alpha MOs
 -- Occupied --
-18.932 -18.925 -18.923 -18.920 -18.903 -18.883 -18.872 -18.871
-18.865 -18.859 -10.097 -10.094 -10.093 -10.089 -10.068 -10.067
-10.064 -10.063 -10.055 -10.053 -10.041 -10.039 -10.038 -10.032
-10.031 -10.026 -10.024 -10.022 -10.017 -10.016  -1.014  -1.004
 -1.001  -0.994  -0.980  -0.965  -0.936  -0.930  -0.925  -0.919
 -0.767  -0.757  -0.727  -0.719  -0.712  -0.704  -0.692  -0.648
 -0.637  -0.614  -0.593  -0.577  -0.549  -0.542  -0.538  -0.532
 -0.512  -0.505  -0.479  -0.466  -0.462  -0.453  -0.451  -0.441
 -0.436  -0.429  -0.426  -0.411  -0.406  -0.398  -0.395  -0.390
 -0.384  -0.374  -0.368  -0.359  -0.358  -0.355  -0.346  -0.341
 -0.338  -0.337  -0.333  -0.326  -0.326  -0.322  -0.318  -0.314
 -0.305  -0.302  -0.300  -0.296  -0.290  -0.285  -0.277  -0.274
 -0.264  -0.255  -0.243  -0.242  -0.240  -0.229  -0.227  -0.183
 -0.167  -0.165  -0.162  -0.151  -0.151  -0.149  -0.142  -0.141
 -0.137

          Ground-State Mulliken Net Atomic Charges

     Atom                 Charge (a.u.)
  ----------------------------------------
      1 O                    -0.215680
      2 C                     0.211877
      3 C                    -0.079624
      4 C                    -0.079547
      5 C                     0.212104
      6 O                    -0.172801
      7 C                    -0.051927
      8 C                    -0.055872
      9 O                    -0.176258
     10 C                     0.216646
     11 C                    -0.078526
     12 C                    -0.075659
     13 C                     0.218340
     14 O                    -0.226076
     15 O                    -0.174811
     16 O                    -0.161431
     17 O                    -0.207770
     18 C                    -0.147457
     19 C                     0.025729
     20 C                    -0.143035
     21 C                    -0.144869
     22 C                     0.025465
     23 O                    -0.185098
     24 H                     0.084056
     25 H                     0.084467
     26 H                     0.087343
     27 H                     0.077164
     28 H                     0.072402
     29 H                     0.077302
     30 H                     0.073513
     31 H                     0.081840
     32 O                    -0.211809
     33 C                    -0.142936
     34 C                     0.024843
     35 C                    -0.142569
     36 C                    -0.143795
     37 C                     0.027203
     38 O                    -0.186088
     39 H                     0.083460
     40 H                     0.087870
     41 H                     0.084545
     42 H                     0.097422
     43 H                     0.079710
     44 H                     0.075141
     45 H                     0.080320
     46 H                     0.075696
     47 H                     0.087515
     48 H                     0.115570
     49 H                     0.081830
     50 H                     0.077416
     51 H                     0.113747
     52 H                     0.085987
     53 H                     0.101306
     54 H                     0.081971
     55 H                     0.106755
     56 H                     0.087085
  ----------------------------------------
  Sum of atomic charges =    -0.000000

                    Cartesian Multipole Moments
 -----------------------------------------------------------------
    Charge (ESU x 10^10)
                -0.0000
    Dipole Moment (Debye)
         X      -1.0330      Y       1.0173      Z       0.7145
       Tot       1.6164
    Quadrupole Moments (Debye-Ang)
        XX    -136.3441     XY      -2.2789     YY    -153.0866
        XZ       9.4358     YZ       2.8796     ZZ    -165.1323

 Total job time:  91.54s(wall), 4366.08s(cpu)
        *  Thank you very much for using Q-Chem.  Have a nice day.  *
