 Q-Chem 5.0, Q-Chem, Inc., Pleasanton, CA (2017)
 Q-Chem 5.0.1 for Intel X86 EM64T Linux

User input:
--------------------------------------------------------------
$molecule
0  1
O -2.4329191731 -0.8577362643 2.2874027559
C -2.9775458552 -1.2039692682 1.2156871094
C -3.7946756412 -0.2695933409 0.2432944982
C -3.2138064069 1.2040808532 0.1537161741
C -1.7801319549 1.3163639813 0.7667044631
O -1.6175071391 2.5811399101 1.4232916729
C -0.3171961565 2.5586298542 2.1369961603
C 0.8549064221 3.0502653263 1.2055491601
O 1.9246358002 2.0279959607 1.3056586895
C 2.3875264961 1.6256817295 0.0084022992
C 3.5090845824 0.5621494616 0.2552246528
C 3.0294506179 -0.9253329453 0.5447058103
C 1.5449247445 -1.3234487802 0.2122607014
O 0.8970174091 -2.2037357849 0.8303538832
O -2.874334699 -2.5071435614 0.6472099576
O 1.1463294312 -0.7109445814 -1.0038576573
O 1.9725932149 2.1028649905 -1.0685059306
C -0.0813086619 -1.3449295435 -1.5534794425
C 4.4648205645 0.3482366004 -0.9952492661
C 5.8543896504 -0.159708068 -0.4454805615
C 5.4712687392 -1.6168060187 0.0099335936
C 3.9693146353 -1.7113609767 -0.4776754427
O 3.9235212687 -0.8487986312 -1.6781691259
H 4.0877354597 0.9201966622 1.1256597428
H 3.2272482893 -1.2131298813 1.5922140207
H 4.5034319612 1.2064969053 -1.6936427595
H 6.6045282017 -0.1745273895 -1.252511375
H 6.233322872 0.4621131706 0.3811414179
H 6.0897082255 -2.3770175933 -0.4928502229
H 5.5573154584 -1.7567475182 1.0994371733
H 3.6202064507 -2.7339971829 -0.7205872445
O -0.8536053918 0.4838969913 0.6537734107
C -1.8887364102 -3.3140377396 1.4120073053
C -3.7787613958 -0.7060615549 -1.2826428544
C -5.0209560328 -0.0417663794 -1.9899510117
C -4.5738861559 1.4679913143 -2.0290647119
C -3.1179833591 1.3782644031 -1.4235510919
O -2.6393330947 0.0470418536 -1.8626288684
H -4.8371461554 -0.2335762595 0.6115983398
H -3.8763608794 1.9531330475 0.6202634425
H -2.1355497239 -3.338997098 2.4919754524
H -3.6463543182 -1.7935069824 -1.439241668
H -5.1465166922 -0.4494594072 -3.0058544291
H -5.9555257256 -0.1975103191 -1.4277430746
H -4.5407360678 1.8560397572 -3.0594250553
H -5.2273229974 2.1190701327 -1.4264806548
H -2.4175046484 2.168883755 -1.7564815189
H -0.8587905819 -2.9045317617 1.2719259006
H -1.9491367907 -4.3352755624 0.9935464535
H 0.1465948636 -1.627276306 -2.5996463373
H -0.9478295354 -0.640032979 -1.5368343645
H -0.333261575 -2.2476656556 -0.9656437895
H 0.526015543 3.1332302641 0.1461422732
H 1.2553113867 4.0302480762 1.540230852
H -0.0775390371 1.529647305 2.4784366383
H -0.4397130907 3.2308626318 3.0092580855
$end

$rem
JOBTYPE                   OPT
METHOD                    B3LYP
DFT_D                     d3_op
BASIS                     STO-3G
GEOM_OPT_MAX_CYCLES       100
GEOM_OPT_TOL_GRADIENT     300
GEOM_OPT_TOL_DISPLACEMENT 1200
GEOM_OPT_TOL_ENERGY       100
SYMMETRY                  False
THRESH                    12
SCF_CONVERGENCE           8
MAX_SUB_FILE_NUM          128
MEM_STATIC                400
MEM_TOTAL                 4000
$end
--------------------------------------------------------------

   16   -1510.2881870900      6.60E-09 Convergence criterion met
 Total energy in the final basis set = -1510.28818709
   14   -1510.2085382113      9.61E-09 Convergence criterion met
 Total energy in the final basis set = -1510.20853821
   14   -1510.2829637810      9.00E-09 Convergence criterion met
 Total energy in the final basis set = -1510.28296378
   16   -1510.2601661424      1.89E-09 Convergence criterion met
 Total energy in the final basis set = -1510.26016614
   15   -1510.2642085194      6.73E-09 Convergence criterion met
 Total energy in the final basis set = -1510.26420852
   14   -1510.2749364603      3.96E-09 Convergence criterion met
 Total energy in the final basis set = -1510.27493646
   15   -1510.2831876587      4.85E-09 Convergence criterion met
 Total energy in the final basis set = -1510.28318766
   14   -1510.2801563169      5.87E-09 Convergence criterion met
   10   -1510.2947073428      8.15E-09 Convergence criterion met
 Total energy in the final basis set = -1510.29470734
   11   -1510.2947147516      4.35E-09 Convergence criterion met
 Total energy in the final basis set = -1510.29471475
   11   -1510.2947221949      3.41E-09 Convergence criterion met
 Total energy in the final basis set = -1510.29472219
   12   -1510.2947383166      1.86E-09 Convergence criterion met
 Total energy in the final basis set = -1510.29473832
    9   -1510.2947368757      4.60E-09 Convergence criterion met
 Total energy in the final basis set = -1510.29473688
    9   -1510.2947384948      5.85E-09 Convergence criterion met
 Total energy in the final basis set = -1510.29473849

             Standard Nuclear Orientation (Angstroms)
    I     Atom           X                Y                Z
 ----------------------------------------------------------------
    1      O       2.4299202091     0.7839059123     2.4641442409
    2      C       2.8444870775     1.2077367196     1.3618033510
    3      C       3.7039678945     0.3779197682     0.3348793162
    4      C       3.0839763322    -1.0576040024     0.0515329857
    5      C       1.6899882449    -1.2790277882     0.7275054182
    6      O       1.7410577092    -2.5061839794     1.4654685755
    7      C       0.4334015872    -2.7697284890     2.1089260192
    8      C      -0.6800529125    -3.2239242198     1.0793392587
    9      O      -1.8698711290    -2.3554155430     1.2101803327
   10      C      -2.0455877297    -1.5413696174     0.0359706034
   11      C      -3.3225699880    -0.6725289691     0.2789676351
   12      C      -3.0811289549     0.8884865338     0.4611332969
   13      C      -1.6011830391     1.3963240799     0.3118672372
   14      O      -0.9181423240     1.8931245831     1.2397558888
   15      O       2.6180053940     2.5231768233     0.8683865757
   16      O      -1.2235798307     1.2965762914    -1.0486473521
   17      O      -1.3223053766    -1.6125784265    -0.9800504730
   18      C       0.1010303968     1.9110878083    -1.3137568793
   19      C      -4.2988738111    -0.6814860174    -0.9782272230
   20      C      -5.7333309220    -0.2462106973    -0.4795040930
   21      C      -5.5198065905     1.2981299481    -0.2642162935
   22      C      -4.0082986995     1.4615672679    -0.6985283275
   23      O      -3.8485751910     0.4715879023    -1.7859974734
   24      H      -3.8224257112    -1.0826091615     1.1738543748
   25      H      -3.4296099101     1.2109596394     1.4584606525
   26      H      -4.2655376628    -1.6107130182    -1.5791483701
   27      H      -6.4879097581    -0.4450395038    -1.2571157821
   28      H      -6.0293347416    -0.7698352954     0.4432543730
   29      H      -6.1751098251     1.8924208031    -0.9208376953
   30      H      -5.6873928995     1.6110007462     0.7787241732
   31      H      -3.7264217465     2.4721146077    -1.0517283221
   32      O       0.6727886059    -0.5592410432     0.6301800787
   33      C       1.6819931454     3.2411953106     1.7726600204
   34      C       3.7489461649     0.9850056867    -1.1266543882
   35      C       4.9405615325     0.3125715805    -1.9115790241
   36      C       4.3569622941    -1.1240349992    -2.1856009164
   37      C       2.9269890183    -1.0060871597    -1.5290232966
   38      O       2.5508800469     0.4036883560    -1.7813453466
   39      H       4.7228704019     0.2752240859     0.7521285394
   40      H       3.7601460965    -1.8688118694     0.3718138370
   41      H       2.0300620124     3.2055342823     2.8238857174
   42      H       3.7070530155     2.0901615589    -1.1601843500
   43      H       5.1364235300     0.8534250581    -2.8511561955
   44      H       5.8678374478     0.2891602095    -1.3170900119
   45      H       4.2683656213    -1.3249574659    -3.2650936433
   46      H       4.9578865181    -1.9240822795    -1.7246378150
   47      H       2.1560595412    -1.6877827261    -1.9383657613
   48      H       0.6641804692     2.7872000683     1.6922619463
   49      H       1.6670563122     4.2881717919     1.4191671014
   50      H       0.0291022051     2.3618827655    -2.3216001717
   51      H       0.9217969993     1.1511933909    -1.3141150457
   52      H       0.3295172560     2.6979219215    -0.5716420375
   53      H      -0.2976232352    -3.1522195756     0.0366576047
   54      H      -0.9996997677    -4.2654268552     1.2878192786
   55      H       0.0669267161    -1.8634763455     2.6389251433
   56      H       0.6317401077    -3.5711223400     2.8472034336
 ----------------------------------------------------------------

    9   -1510.2947376076      3.29E-09 Convergence criterion met
 Total energy in the final basis set = -1510.29473761
 Final energy is   -1510.29473760761
 **  OPTIMIZATION CONVERGED  **

                    Orbital Energies (a.u.)
 --------------------------------------------------------------

 Alpha MOs
 -- Occupied --
-18.931 -18.925 -18.925 -18.922 -18.901 -18.884 -18.874 -18.871
-18.862 -18.861 -10.096 -10.094 -10.091 -10.090 -10.068 -10.065
-10.064 -10.061 -10.055 -10.054 -10.037 -10.036 -10.036 -10.032
-10.030 -10.024 -10.024 -10.022 -10.016 -10.015  -1.012  -1.003
 -1.000  -0.995  -0.978  -0.965  -0.936  -0.929  -0.925  -0.921
 -0.765  -0.757  -0.726  -0.719  -0.711  -0.704  -0.692  -0.647
 -0.639  -0.616  -0.592  -0.577  -0.547  -0.540  -0.538  -0.532
 -0.509  -0.506  -0.476  -0.467  -0.462  -0.454  -0.448  -0.438
 -0.435  -0.429  -0.427  -0.413  -0.406  -0.397  -0.392  -0.387
 -0.384  -0.374  -0.367  -0.360  -0.357  -0.354  -0.344  -0.341
 -0.336  -0.336  -0.332  -0.327  -0.325  -0.322  -0.319  -0.311
 -0.305  -0.302  -0.300  -0.296  -0.290  -0.283  -0.274  -0.272
 -0.269  -0.256  -0.244  -0.242  -0.237  -0.230  -0.229  -0.180
 -0.166  -0.166  -0.163  -0.152  -0.150  -0.147  -0.141  -0.139
 -0.137

          Ground-State Mulliken Net Atomic Charges

     Atom                 Charge (a.u.)
  ----------------------------------------
      1 O                    -0.217441
      2 C                     0.210612
      3 C                    -0.079438
      4 C                    -0.080054
      5 C                     0.212138
      6 O                    -0.171442
      7 C                    -0.051568
      8 C                    -0.057416
      9 O                    -0.175169
     10 C                     0.214092
     11 C                    -0.078358
     12 C                    -0.077535
     13 C                     0.218723
     14 O                    -0.221956
     15 O                    -0.173774
     16 O                    -0.159226
     17 O                    -0.203783
     18 C                    -0.145701
     19 C                     0.026678
     20 C                    -0.143878
     21 C                    -0.144604
     22 C                     0.027459
     23 O                    -0.182079
     24 H                     0.085691
     25 H                     0.083108
     26 H                     0.083201
     27 H                     0.077024
     28 H                     0.072943
     29 H                     0.076970
     30 H                     0.073122
     31 H                     0.083412
     32 O                    -0.211819
     33 C                    -0.146600
     34 C                     0.024462
     35 C                    -0.143376
     36 C                    -0.143466
     37 C                     0.027159
     38 O                    -0.184946
     39 H                     0.084147
     40 H                     0.087096
     41 H                     0.084005
     42 H                     0.095830
     43 H                     0.079203
     44 H                     0.074607
     45 H                     0.079850
     46 H                     0.075331
     47 H                     0.089222
     48 H                     0.118881
     49 H                     0.079489
     50 H                     0.078540
     51 H                     0.116478
     52 H                     0.082828
     53 H                     0.099660
     54 H                     0.083049
     55 H                     0.100030
     56 H                     0.088593
  ----------------------------------------
  Sum of atomic charges =    -0.000000

                    Cartesian Multipole Moments
 -----------------------------------------------------------------
    Charge (ESU x 10^10)
                -0.0000
    Dipole Moment (Debye)
         X       0.6596      Y      -1.1127      Z       0.2777
       Tot       1.3229
    Quadrupole Moments (Debye-Ang)
        XX    -137.6974     XY      -0.8103     YY    -149.2247
        XZ      -8.6326     YZ      -1.2643     ZZ    -166.8989

 Total job time:  126.41s(wall), 6034.44s(cpu)
        *  Thank you very much for using Q-Chem.  Have a nice day.  *
