 Q-Chem 5.0, Q-Chem, Inc., Pleasanton, CA (2017)
 Q-Chem 5.0.1 for Intel X86 EM64T Linux

User input:
--------------------------------------------------------------
$molecule
0  1
O -3.94934 -3.66094 2.70899
C -3.26408 -4.56952 2.26188
C -3.36658 -6.02376 2.66595
C -4.77858 -6.61079 2.82566
C -5.92854 -5.72922 2.39147
O -6.9963 -5.91673 3.22223
C -8.10885 -5.07223 2.9087
C -8.92383 -5.67749 1.77045
O -9.01485 -4.74344 0.68318
C -8.71537 -5.24315 -0.54146
C -8.83273 -4.2149 -1.64128
C -7.63067 -3.26841 -1.7735
C -6.36839 -3.69888 -1.05375
O -5.49375 -2.9482 -0.64627
O -2.39534 -4.27407 1.2576
O -6.00095 -4.98605 -1.30905
O -8.54936 -6.43512 -0.77392
C -4.69448 -5.42109 -1.39212
C -8.86694 -4.80579 -3.07294
C -9.54507 -3.81608 -4.02076
C -8.48955 -2.7318 -4.09833
C -7.3666 -3.38804 -3.28722
O -7.53606 -4.7648 -3.51918
H -9.80112 -3.68693 -1.4862
H -7.85663 -2.22534 -1.46058
H -9.37421 -5.79318 -3.13392
H -9.61271 -4.31644 -5.01368
H -10.55754 -3.47204 -3.71857
H -8.19206 -2.60703 -5.16313
H -8.78214 -1.75098 -3.66465
H -6.37765 -2.96544 -3.57285
O -5.97092 -5.10965 1.34492
C -2.1617 -3.00506 0.77053
C -2.7497 -7.01842 1.66263
C -2.44077 -8.34821 2.35627
C -3.83325 -8.9278 2.48555
C -4.66245 -7.8071 1.85718
O -3.82961 -7.33943 0.8256
H -2.83326 -6.07389 3.6411
H -4.98149 -6.99346 3.85296
H -1.76617 -2.35322 1.57842
H -1.83223 -6.64055 1.16329
H -1.85539 -8.99177 1.66162
H -1.88451 -8.22766 3.31084
H -3.90267 -9.82449 1.82925
H -4.14567 -9.19709 3.51743
H -5.65535 -8.19818 1.54156
H -3.09729 -2.56952 0.36403
H -1.41109 -3.06116 -0.04417
H -4.68592 -6.51301 -1.58498
H -4.14824 -5.20307 -0.45632
H -4.1812 -4.90821 -2.233
H -8.57356 -6.70551 1.52523
H -9.96461 -5.80824 2.13994
H -7.83681 -4.00079 2.76755
H -8.75653 -5.09048 3.81215
$end

$opt
CONSTRAINT
tors           1           2           3           4     +42.664
tors           3           4           5           6    -144.118
tors           4           5           6           7    +177.505
tors           5           6           7           8     +82.189
tors           6           7           8           9    -123.046
tors           7           8           9          10    +130.891
tors           8           9          10          11    +179.855
tors           9          10          11          12     +80.300
tors          11          12          13          14    -153.637
ENDCONSTRAINT
$end

$rem
JOBTYPE                   OPT
METHOD                    B3LYP
DFT_D                     d3_op
BASIS                     STO-3G
GEOM_OPT_MAX_CYCLES       100
GEOM_OPT_TOL_GRADIENT     300
GEOM_OPT_TOL_DISPLACEMENT 1200
GEOM_OPT_TOL_ENERGY       100
SYMMETRY                  False
THRESH                    12
SCF_CONVERGENCE           8
MAX_SUB_FILE_NUM          128
MEM_STATIC                400
MEM_TOTAL                 4000
$end
--------------------------------------------------------------

   15   -1510.1482721281      8.29E-09 Convergence criterion met
 Total energy in the final basis set = -1510.14827213
   13   -1510.2191851533      9.43E-09 Convergence criterion met
 Total energy in the final basis set = -1510.21918515
   15   -1510.2449364237      2.55E-09 Convergence criterion met
 Total energy in the final basis set = -1510.24493642
   14   -1510.2735589055      8.35E-09 Convergence criterion met
 Total energy in the final basis set = -1510.27355891
   13   -1510.2810130966      9.53E-09 Convergence criterion met
 Total energy in the final basis set = -1510.28101310
   12   -1510.2851356282      8.03E-09 Convergence criterion met
 Total energy in the final basis set = -1510.28513563
   13   -1510.2840882242      6.97E-09 Convergence criterion met
 Total energy in the final basis set = -1510.28408822
   13   -1510.2869044275      7.75E-09 Convergence criterion met
   13   -1510.2906349794      2.11E-09 Convergence criterion met
 Total energy in the final basis set = -1510.29063498
   12   -1510.2907725601      6.92E-09 Convergence criterion met
 Total energy in the final basis set = -1510.29077256
   11   -1510.2907501051      6.75E-09 Convergence criterion met
 Total energy in the final basis set = -1510.29075011
   11   -1510.2908164142      2.15E-09 Convergence criterion met
 Total energy in the final basis set = -1510.29081641
    9   -1510.2908219998      9.32E-09 Convergence criterion met
 Total energy in the final basis set = -1510.29082200
    9   -1510.2908252120      7.98E-09 Convergence criterion met
 Total energy in the final basis set = -1510.29082521

             Standard Nuclear Orientation (Angstroms)
    I     Atom           X                Y                Z
 ----------------------------------------------------------------
    1      O      -2.4235135031    -0.9232733846     2.3300059587
    2      C      -2.9027118282    -1.2572749556     1.2238946864
    3      C      -3.7256416119    -0.3256648665     0.2548022149
    4      C      -3.1162016719     1.1322199203     0.1144622209
    5      C      -1.7027936342     1.2963597153     0.7673785165
    6      O      -1.6250509657     2.6110601869     1.3302559604
    7      C      -0.3216552785     2.7861668010     2.0120851405
    8      C       0.8280017726     3.1643557432     1.0005600734
    9      O       1.9003844582     2.1504408787     1.1301710473
   10      C       2.3099804641     1.6376291007    -0.1459130078
   11      C       3.4377616028     0.5919128077     0.1517990678
   12      C       2.9922650267    -0.8571551920     0.6197254286
   13      C       1.5241504243    -1.3244096993     0.3138573326
   14      O       0.9013528880    -2.1777374166     0.9919496364
   15      O      -2.7561454433    -2.5476282022     0.6380360233
   16      O       1.1198790761    -0.8081661155    -0.9427460920
   17      O       1.8543606088     2.0251967515    -1.2420408772
   18      C      -0.0866713334    -1.5039973912    -1.4590040226
   19      C       4.3558584155     0.2528395974    -1.1018749861
   20      C       5.7803706947    -0.1357037769    -0.5453019479
   21      C       5.4567351776    -1.5190783851     0.1324254975
   22      C       3.9512627757    -1.7357347320    -0.3046919149
   23      O       3.8448398180    -1.0415384716    -1.6065661233
   24      H       4.0514577705     1.0367797254     0.9560548347
   25      H       3.1859276731    -1.0138232593     1.6952821363
   26      H       4.3376626626     1.0155628403    -1.9044358746
   27      H       6.4944266214    -0.2546714880    -1.3760819927
   28      H       6.1793166019     0.6079496410     0.1628847873
   29      H       6.0959554147    -2.3259233456    -0.2593512362
   30      H       5.5614369301    -1.4871692896     1.2288523862
   31      H       3.6405854085    -2.7943880502    -0.4013022841
   32      O      -0.7492089311     0.4889853865     0.7559497099
   33      C      -1.8232964689    -3.3687844009     1.4523391612
   34      C      -3.7619788246    -0.7958598051    -1.2590228675
   35      C      -4.9833585468    -0.0921098023    -1.9649598796
   36      C      -4.4617049764     1.3902095173    -2.0697327621
   37      C      -3.0081070612     1.2516238987    -1.4671297656
   38      O      -2.5977480414    -0.1111939635    -1.8740301309
   39      H      -4.7542778114    -0.2567828177     0.6553543224
   40      H      -3.7848092887     1.9033514785     0.5342406006
   41      H      -2.1369759300    -3.4033014934     2.5144524224
   42      H      -3.6814415993    -1.8912017464    -1.3933805609
   43      H      -5.1531191846    -0.5292942910    -2.9618361831
   44      H      -5.9110899428    -0.1778236274    -1.3772098523
   45      H      -4.4148626121     1.7316327941    -3.1159940320
   46      H      -5.0784589925     2.0985195932    -1.4937386579
   47      H      -2.2727827036     1.9986798454    -1.8247718777
   48      H      -0.7868823805    -2.9583048869     1.3770659031
   49      H      -1.8629493975    -4.3848343876     1.0191387773
   50      H       0.1579409152    -1.8469032453    -2.4830590217
   51      H      -0.9678667793    -0.8168680553    -1.4987875260
   52      H      -0.3259932753    -2.3744633116    -0.8204595112
   53      H       0.4566425329     3.1743222393    -0.0483051238
   54      H       1.2498941993     4.1632593232     1.2406461135
   55      H      -0.0264971344     1.8547911115     2.5416519935
   56      H      -0.4804025200     3.6001071526     2.7466612403
 ----------------------------------------------------------------

    9   -1510.2908257578      3.40E-09 Convergence criterion met
 Total energy in the final basis set = -1510.29082576
 Final energy is   -1510.29082575783
 **  OPTIMIZATION CONVERGED  **

                    Orbital Energies (a.u.)
 --------------------------------------------------------------

 Alpha MOs
 -- Occupied --
-18.933 -18.924 -18.924 -18.920 -18.905 -18.883 -18.874 -18.873
-18.863 -18.859 -10.098 -10.096 -10.092 -10.089 -10.070 -10.069
-10.066 -10.063 -10.055 -10.053 -10.040 -10.037 -10.036 -10.032
-10.031 -10.026 -10.024 -10.020 -10.017 -10.015  -1.014  -1.004
 -1.000  -0.994  -0.981  -0.964  -0.937  -0.931  -0.924  -0.919
 -0.767  -0.757  -0.727  -0.719  -0.713  -0.704  -0.693  -0.647
 -0.637  -0.616  -0.593  -0.578  -0.549  -0.542  -0.538  -0.532
 -0.512  -0.505  -0.479  -0.467  -0.463  -0.451  -0.449  -0.441
 -0.436  -0.428  -0.426  -0.413  -0.406  -0.399  -0.395  -0.389
 -0.383  -0.375  -0.368  -0.359  -0.358  -0.356  -0.346  -0.340
 -0.338  -0.337  -0.333  -0.327  -0.325  -0.322  -0.318  -0.314
 -0.305  -0.302  -0.300  -0.297  -0.292  -0.286  -0.277  -0.274
 -0.265  -0.255  -0.243  -0.242  -0.239  -0.229  -0.227  -0.184
 -0.167  -0.165  -0.163  -0.152  -0.152  -0.149  -0.141  -0.140
 -0.137

          Ground-State Mulliken Net Atomic Charges

     Atom                 Charge (a.u.)
  ----------------------------------------
      1 O                    -0.215705
      2 C                     0.211520
      3 C                    -0.080160
      4 C                    -0.079712
      5 C                     0.212452
      6 O                    -0.173627
      7 C                    -0.051271
      8 C                    -0.055542
      9 O                    -0.176240
     10 C                     0.217747
     11 C                    -0.078304
     12 C                    -0.075178
     13 C                     0.221383
     14 O                    -0.225955
     15 O                    -0.174928
     16 O                    -0.161837
     17 O                    -0.208275
     18 C                    -0.149434
     19 C                     0.025772
     20 C                    -0.142695
     21 C                    -0.145125
     22 C                     0.025198
     23 O                    -0.185705
     24 H                     0.083627
     25 H                     0.084967
     26 H                     0.087454
     27 H                     0.077090
     28 H                     0.072312
     29 H                     0.077267
     30 H                     0.073462
     31 H                     0.081969
     32 O                    -0.209565
     33 C                    -0.144957
     34 C                     0.024880
     35 C                    -0.142914
     36 C                    -0.143398
     37 C                     0.027389
     38 O                    -0.185257
     39 H                     0.083738
     40 H                     0.087943
     41 H                     0.083805
     42 H                     0.097769
     43 H                     0.079855
     44 H                     0.075241
     45 H                     0.080341
     46 H                     0.075795
     47 H                     0.088034
     48 H                     0.117534
     49 H                     0.080706
     50 H                     0.077174
     51 H                     0.113359
     52 H                     0.085685
     53 H                     0.100170
     54 H                     0.082080
     55 H                     0.103669
     56 H                     0.088399
  ----------------------------------------
  Sum of atomic charges =    -0.000000

                    Cartesian Multipole Moments
 -----------------------------------------------------------------
    Charge (ESU x 10^10)
                -0.0000
    Dipole Moment (Debye)
         X      -0.9397      Y       1.4286      Z       0.5445
       Tot       1.7945
    Quadrupole Moments (Debye-Ang)
        XX    -136.7952     XY      -1.2550     YY    -152.0771
        XZ       9.1733     YZ       2.6155     ZZ    -165.9324

 Total job time:  75.80s(wall), 3612.37s(cpu)
        *  Thank you very much for using Q-Chem.  Have a nice day.  *
