 Q-Chem 5.0, Q-Chem, Inc., Pleasanton, CA (2017)
 Q-Chem 5.0.1 for Intel X86 EM64T Linux

User input:
--------------------------------------------------------------
$molecule
0  1
O -2.4235135031 -0.9232733846 2.3300059587
C -2.9027118282 -1.2572749556 1.2238946864
C -3.7256416119 -0.3256648665 0.2548022149
C -3.1162016719 1.1322199203 0.1144622209
C -1.7027936342 1.2963597153 0.7673785165
O -1.6250509657 2.6110601869 1.3302559604
C -0.3216552785 2.786166801 2.0120851405
C 0.8280017726 3.1643557432 1.0005600734
O 1.9003844582 2.1504408787 1.1301710473
C 2.3099804641 1.6376291007 -0.1459130078
C 3.4377616028 0.5919128077 0.1517990678
C 2.9922650267 -0.857155192 0.6197254286
C 1.5241504243 -1.3244096993 0.3138573326
O 0.901352888 -2.1777374166 0.9919496364
O -2.7561454433 -2.5476282022 0.6380360233
O 1.1198790761 -0.8081661155 -0.942746092
O 1.8543606088 2.0251967515 -1.2420408772
C -0.0866713334 -1.5039973912 -1.4590040226
C 4.3558584155 0.2528395974 -1.1018749861
C 5.7803706947 -0.1357037769 -0.5453019479
C 5.4567351776 -1.5190783851 0.1324254975
C 3.9512627757 -1.735734732 -0.3046919149
O 3.844839818 -1.0415384716 -1.6065661233
H 4.0514577705 1.0367797254 0.9560548347
H 3.1859276731 -1.0138232593 1.6952821363
H 4.3376626626 1.0155628403 -1.9044358746
H 6.4944266214 -0.254671488 -1.3760819927
H 6.1793166019 0.607949641 0.1628847873
H 6.0959554147 -2.3259233456 -0.2593512362
H 5.5614369301 -1.4871692896 1.2288523862
H 3.6405854085 -2.7943880502 -0.4013022841
O -0.7492089311 0.4889853865 0.7559497099
C -1.8232964689 -3.3687844009 1.4523391612
C -3.7619788246 -0.7958598051 -1.2590228675
C -4.9833585468 -0.0921098023 -1.9649598796
C -4.4617049764 1.3902095173 -2.0697327621
C -3.0081070612 1.2516238987 -1.4671297656
O -2.5977480414 -0.1111939635 -1.8740301309
H -4.7542778114 -0.2567828177 0.6553543224
H -3.7848092887 1.9033514785 0.5342406006
H -2.13697593 -3.4033014934 2.5144524224
H -3.6814415993 -1.8912017464 -1.3933805609
H -5.1531191846 -0.529294291 -2.9618361831
H -5.9110899428 -0.1778236274 -1.3772098523
H -4.4148626121 1.7316327941 -3.115994032
H -5.0784589925 2.0985195932 -1.4937386579
H -2.2727827036 1.9986798454 -1.8247718777
H -0.7868823805 -2.9583048869 1.3770659031
H -1.8629493975 -4.3848343876 1.0191387773
H 0.1579409152 -1.8469032453 -2.4830590217
H -0.9678667793 -0.8168680553 -1.498787526
H -0.3259932753 -2.3744633116 -0.8204595112
H 0.4566425329 3.1743222393 -0.0483051238
H 1.2498941993 4.1632593232 1.2406461135
H -0.0264971344 1.8547911115 2.5416519935
H -0.48040252 3.6001071526 2.7466612403
$end

$rem
JOBTYPE                   OPT
METHOD                    B3LYP
DFT_D                     d3_op
BASIS                     STO-3G
GEOM_OPT_MAX_CYCLES       100
GEOM_OPT_TOL_GRADIENT     300
GEOM_OPT_TOL_DISPLACEMENT 1200
GEOM_OPT_TOL_ENERGY       100
SYMMETRY                  False
THRESH                    12
SCF_CONVERGENCE           8
MAX_SUB_FILE_NUM          128
MEM_STATIC                400
MEM_TOTAL                 4000
$end
--------------------------------------------------------------

   16   -1510.2907282083      6.03E-09 Convergence criterion met
 Total energy in the final basis set = -1510.29072821
   15   -1510.2274438133      5.03E-09 Convergence criterion met
 Total energy in the final basis set = -1510.22744381
   14   -1510.2890733331      4.65E-09 Convergence criterion met
 Total energy in the final basis set = -1510.28907333
   16   -1509.7260501151      8.51E-09 Convergence criterion met
 Total energy in the final basis set = -1509.72605012
   16   -1510.2763486187      8.53E-09 Convergence criterion met
 Total energy in the final basis set = -1510.27634862
   14   -1510.2809147578      2.30E-09 Convergence criterion met
 Total energy in the final basis set = -1510.28091476
   13   -1510.2825957563      6.13E-09 Convergence criterion met
 Total energy in the final basis set = -1510.28259576
   14   -1510.2801790645      6.53E-09 Convergence criterion met
   11   -1510.2976244394      4.35E-09 Convergence criterion met
 Total energy in the final basis set = -1510.29762444
   11   -1510.2976338915      3.56E-09 Convergence criterion met
 Total energy in the final basis set = -1510.29763389
   10   -1510.2976482579      8.03E-09 Convergence criterion met
 Total energy in the final basis set = -1510.29764826
   11   -1510.2976771960      5.38E-09 Convergence criterion met
 Total energy in the final basis set = -1510.29767720
   11   -1510.2977030445      5.63E-09 Convergence criterion met
 Total energy in the final basis set = -1510.29770304
   11   -1510.2977126035      4.42E-09 Convergence criterion met
 Total energy in the final basis set = -1510.29771260

             Standard Nuclear Orientation (Angstroms)
    I     Atom           X                Y                Z
 ----------------------------------------------------------------
    1      O      -3.2449954625    -1.4964963479     2.5959967706
    2      C      -3.2007042708    -1.4418915112     1.3460887965
    3      C      -4.1060110182    -0.5210972760     0.4403273032
    4      C      -3.5657206379     0.9626281914     0.2931577142
    5      C      -2.1513810482     1.1595187746     0.9209570284
    6      O      -1.8659156955     2.5546389358     1.0253396590
    7      C      -0.4594197235     2.7459752246     1.4601868047
    8      C       0.5375368042     2.6047364254     0.2473410084
    9      O       1.6736060363     1.7755070682     0.7153717246
   10      C       2.6191067695     1.6035981700    -0.3533003443
   11      C       3.8161542895     0.7411845000     0.1831855524
   12      C       3.4246951356    -0.7221904231     0.6528326796
   13      C       1.9189768368    -1.1025335563     0.4545095089
   14      O       1.2200337981    -1.7632576570     1.2581210201
   15      O      -2.3968407327    -2.2809387095     0.5178731482
   16      O       1.4917359524    -0.6322421257    -0.8184968292
   17      O       2.5081226015     2.1372861484    -1.4765648479
   18      C       0.0695161128    -0.9789314525    -1.0663268942
   19      C       4.8540099739     0.4291318657    -0.9725963869
   20      C       6.2153132808    -0.0157336652    -0.3107028490
   21      C       5.8475160045    -1.4614098605     0.1907687579
   22      C       4.3535476029    -1.5892677343    -0.3089138288
   23      O       4.3376911073    -0.8232901972    -1.5737235109
   24      H       4.2875894184     1.2960330883     1.0155384532
   25      H       3.6743224062    -0.8891062874     1.7151773078
   26      H       4.9223672728     1.2247678965    -1.7398503276
   27      H       7.0195065948    -0.0419054938    -1.0632443545
   28      H       6.5194616136     0.6548058437     0.5089522478
   29      H       6.4789944153    -2.2281475562    -0.2854839381
   30      H       5.9279948117    -1.5670003638     1.2844734296
   31      H       3.9996153730    -2.6251765626    -0.4762537204
   32      O      -1.3409998278     0.2591260537     1.2474172154
   33      C      -1.4660214872    -3.0900130261     1.3443973740
   34      C      -4.1658099155    -0.9701683661    -1.0813656801
   35      C      -5.4252487816    -0.2904202146    -1.7490804191
   36      C      -4.9356502769     1.1998621854    -1.8749548164
   37      C      -3.4717029952     1.0891408530    -1.2927136968
   38      O      -3.0243470612    -0.2580806504    -1.7054402437
   39      H      -5.1137478785    -0.5079480833     0.8925274809
   40      H      -4.2584237856     1.7096160200     0.7194614065
   41      H      -1.8325932710    -3.1327674040     2.3886208669
   42      H      -4.0708511125    -2.0612350131    -1.2388238905
   43      H      -5.6216989888    -0.7344985358    -2.7378894823
   44      H      -6.3305170952    -0.3910208215    -1.1294714881
   45      H      -4.9071816775     1.5311612659    -2.9252410679
   46      H      -5.5580878383     1.9034857268    -1.2992724873
   47      H      -2.7629894836     1.8638723678    -1.6455196933
   48      H      -0.4514554626    -2.6245625529     1.3168452373
   49      H      -1.4346090428    -4.1054063909     0.9064376935
   50      H      -0.2202658209    -0.4399363195    -1.9863315257
   51      H      -0.5783151298    -0.6626749420    -0.2180471233
   52      H      -0.0517132659    -2.0683848673    -1.2283745907
   53      H       0.0228971070     2.1138012054    -0.6085529650
   54      H       0.8913727079     3.5989859419    -0.1007202397
   55      H      -0.1846830440     1.9899711548     2.2272721032
   56      H      -0.4164020563     3.7615101766     1.8992851346
 ----------------------------------------------------------------

    9   -1510.2977126770      7.72E-09 Convergence criterion met
 Total energy in the final basis set = -1510.29771268
 Final energy is   -1510.29771267701
 **  OPTIMIZATION CONVERGED  **

                    Orbital Energies (a.u.)
 --------------------------------------------------------------

 Alpha MOs
 -- Occupied --
-18.950 -18.933 -18.930 -18.913 -18.894 -18.890 -18.886 -18.875
-18.873 -18.852 -10.113 -10.099 -10.099 -10.086 -10.081 -10.076
-10.066 -10.059 -10.059 -10.056 -10.044 -10.040 -10.036 -10.035
-10.033 -10.024 -10.024 -10.021 -10.019 -10.018  -1.028  -1.013
 -1.004  -0.992  -0.973  -0.968  -0.951  -0.935  -0.933  -0.917
 -0.766  -0.762  -0.730  -0.723  -0.714  -0.705  -0.699  -0.649
 -0.639  -0.619  -0.596  -0.582  -0.548  -0.545  -0.538  -0.536
 -0.514  -0.508  -0.489  -0.473  -0.462  -0.457  -0.453  -0.442
 -0.436  -0.434  -0.426  -0.417  -0.407  -0.402  -0.401  -0.399
 -0.388  -0.380  -0.368  -0.365  -0.359  -0.357  -0.355  -0.345
 -0.342  -0.333  -0.332  -0.330  -0.326  -0.323  -0.322  -0.313
 -0.307  -0.307  -0.304  -0.301  -0.294  -0.289  -0.280  -0.275
 -0.271  -0.262  -0.254  -0.243  -0.239  -0.232  -0.229  -0.192
 -0.176  -0.171  -0.166  -0.160  -0.152  -0.149  -0.144  -0.142
 -0.136

          Ground-State Mulliken Net Atomic Charges

     Atom                 Charge (a.u.)
  ----------------------------------------
      1 O                    -0.224910
      2 C                     0.211955
      3 C                    -0.081232
      4 C                    -0.079070
      5 C                     0.216692
      6 O                    -0.168074
      7 C                    -0.051371
      8 C                    -0.048530
      9 O                    -0.176646
     10 C                     0.217236
     11 C                    -0.078511
     12 C                    -0.078459
     13 C                     0.218676
     14 O                    -0.212036
     15 O                    -0.175623
     16 O                    -0.166960
     17 O                    -0.212845
     18 C                    -0.139435
     19 C                     0.024877
     20 C                    -0.143988
     21 C                    -0.143902
     22 C                     0.025844
     23 O                    -0.185824
     24 H                     0.083321
     25 H                     0.085553
     26 H                     0.090174
     27 H                     0.078020
     28 H                     0.072703
     29 H                     0.078023
     30 H                     0.073847
     31 H                     0.082776
     32 O                    -0.204991
     33 C                    -0.151244
     34 C                     0.025549
     35 C                    -0.144063
     36 C                    -0.143591
     37 C                     0.024854
     38 O                    -0.190491
     39 H                     0.083194
     40 H                     0.088838
     41 H                     0.091221
     42 H                     0.091655
     43 H                     0.078308
     44 H                     0.074207
     45 H                     0.078888
     46 H                     0.074521
     47 H                     0.081811
     48 H                     0.112741
     49 H                     0.074128
     50 H                     0.090102
     51 H                     0.110512
     52 H                     0.085431
     53 H                     0.089246
     54 H                     0.087908
     55 H                     0.106433
     56 H                     0.092552
  ----------------------------------------
  Sum of atomic charges =    -0.000000

                    Cartesian Multipole Moments
 -----------------------------------------------------------------
    Charge (ESU x 10^10)
                -0.0000
    Dipole Moment (Debye)
         X      -0.2232      Y       1.9096      Z       0.2164
       Tot       1.9348
    Quadrupole Moments (Debye-Ang)
        XX    -138.5650     XY      -4.0666     YY    -153.6918
        XZ      13.5281     YZ       5.3016     ZZ    -170.9444

 Total job time:  137.01s(wall), 6536.76s(cpu)
        *  Thank you very much for using Q-Chem.  Have a nice day.  *
