 Q-Chem 5.0, Q-Chem, Inc., Pleasanton, CA (2017)
 Q-Chem 5.0.1 for Intel X86 EM64T Linux

User input:
--------------------------------------------------------------
$molecule
0  1
O -3.94934 -3.66094 2.70899
C -3.26408 -4.56952 2.26188
C -3.36658 -6.02376 2.66595
C -4.77768 -6.59661 2.87692
C -5.9338 -5.70197 2.48819
O -6.99805 -5.93484 3.31194
C -8.0532 -4.9807 3.15213
C -8.92791 -5.35885 1.96133
O -8.85856 -4.33352 0.95795
C -8.63173 -4.7691 -0.30616
C -8.5732 -3.64585 -1.3139
C -7.23131 -2.90176 -1.37665
C -6.06042 -3.59319 -0.70758
O -5.06346 -3.03622 -0.2712
O -2.30777 -4.26114 1.34481
O -5.90726 -4.89023 -1.09733
O -8.65826 -5.94839 -0.63895
C -4.68484 -5.47254 -1.35994
C -8.69735 -4.09551 -2.79148
C -9.20301 -2.92941 -3.64144
C -7.9862 -2.02608 -3.63348
C -6.98593 -2.92498 -2.8978
O -7.37611 -4.22999 -3.24859
H -9.44262 -2.98154 -1.10538
H -7.28788 -1.87028 -0.96463
H -9.35731 -4.97891 -2.93294
H -9.34551 -3.32284 -4.67379
H -10.14842 -2.4549 -3.30112
H -7.66998 -1.85381 -4.68616
H -8.11809 -1.05493 -3.1089
H -5.94067 -2.64409 -3.15584
O -5.99925 -5.06771 1.46244
C -1.94126 -2.97959 0.98874
C -2.80623 -7.02718 1.6358
C -2.46986 -8.35439 2.3211
C -3.85813 -8.92198 2.5316
C -4.71129 -7.80663 1.92409
O -3.92454 -7.35547 0.85296
H -2.78695 -6.08709 3.6136
H -4.94617 -6.96201 3.91659
H -1.54687 -2.43815 1.87484
H -1.91362 -6.65699 1.08824
H -1.93139 -9.0041 1.59484
H -1.85733 -8.2388 3.24119
H -3.96397 -9.8339 1.90188
H -4.12163 -9.16304 3.58397
H -5.71968 -8.19501 1.65898
H -2.80316 -2.42329 0.57201
H -1.14476 -3.03087 0.21849
H -4.83272 -6.54559 -1.59788
H -4.0067 -5.36312 -0.49375
H -4.21545 -4.97481 -2.23486
H -8.76431 -6.41268 1.64149
H -9.98182 -5.32402 2.3153
H -7.72867 -3.91565 3.18556
H -8.68525 -5.12285 4.05584
$end

$opt
CONSTRAINT
tors           1           2           3           4     +40.435
tors           3           4           5           6    -147.494
tors           4           5           6           7    +170.408
tors           5           6           7           8     +82.189
tors           6           7           8           9    -117.008
tors           7           8           9          10    +131.728
tors           8           9          10          11    +179.855
tors           9          10          11          12     +80.656
tors          11          12          13          14    -155.263
ENDCONSTRAINT
$end

$rem
JOBTYPE                   OPT
METHOD                    B3LYP
DFT_D                     d3_op
BASIS                     STO-3G
GEOM_OPT_MAX_CYCLES       100
GEOM_OPT_TOL_GRADIENT     300
GEOM_OPT_TOL_DISPLACEMENT 1200
GEOM_OPT_TOL_ENERGY       100
SYMMETRY                  False
THRESH                    12
SCF_CONVERGENCE           8
MAX_SUB_FILE_NUM          128
MEM_STATIC                400
MEM_TOTAL                 4000
$end
--------------------------------------------------------------

   15   -1510.1402235410      7.60E-09 Convergence criterion met
 Total energy in the final basis set = -1510.14022354
   13   -1510.2108502343      9.82E-09 Convergence criterion met
 Total energy in the final basis set = -1510.21085023
   15   -1510.2300357923      2.98E-09 Convergence criterion met
 Total energy in the final basis set = -1510.23003579
   15   -1510.2659857871      3.17E-09 Convergence criterion met
 Total energy in the final basis set = -1510.26598579
   14   -1510.2749748543      3.72E-09 Convergence criterion met
 Total energy in the final basis set = -1510.27497485
   14   -1510.2790136349      5.53E-09 Convergence criterion met
 Total energy in the final basis set = -1510.27901363
   13   -1510.2835941529      8.88E-09 Convergence criterion met
 Total energy in the final basis set = -1510.28359415
   13   -1510.2849576367      4.91E-09 Convergence criterion met
   11   -1510.2893353250      7.07E-09 Convergence criterion met
 Total energy in the final basis set = -1510.28933532
    9   -1510.2893452887      8.94E-09 Convergence criterion met
 Total energy in the final basis set = -1510.28934529
    9   -1510.2893469409      6.38E-09 Convergence criterion met
 Total energy in the final basis set = -1510.28934694
    9   -1510.2893486879      4.63E-09 Convergence criterion met
 Total energy in the final basis set = -1510.28934869
    9   -1510.2893497058      3.32E-09 Convergence criterion met
 Total energy in the final basis set = -1510.28934971
    9   -1510.2893509993      3.67E-09 Convergence criterion met
 Total energy in the final basis set = -1510.28935100

             Standard Nuclear Orientation (Angstroms)
    I     Atom           X                Y                Z
 ----------------------------------------------------------------
    1      O      -2.2107427901    -0.9291570389     2.3349186950
    2      C      -2.7843537214    -1.2821779179     1.2814512523
    3      C      -3.6680576792    -0.3711499548     0.3476770228
    4      C      -3.1023567061     1.0940142945     0.1370646450
    5      C      -1.6534730497     1.3359024160     0.6877174510
    6      O      -1.5933910199     2.6977230740     1.1238960988
    7      C      -0.3413006689     2.9610367891     1.8688710191
    8      C       0.8712463602     3.2439925832     0.9006086903
    9      O       1.8990068436     2.1926519364     1.0792979693
   10      C       2.3411922895     1.6550283201    -0.1751777899
   11      C       3.4180945939     0.5688696390     0.1676791571
   12      C       2.9396739701    -0.8730559618     0.6175908405
   13      C       1.4786952051    -1.3348976177     0.2830960333
   14      O       0.8608122193    -2.2084559186     0.9390356714
   15      O      -2.7388473762    -2.6002046230     0.7409997181
   16      O       1.0785481210    -0.8023480213    -0.9682769583
   17      O       1.9448498801     2.0496444721    -1.2918438359
   18      C      -0.1234944845    -1.5013456152    -1.4921887983
   19      C       4.3712572776     0.2189100860    -1.0583825786
   20      C       5.7716534019    -0.1942569998    -0.4616012186
   21      C       5.4073259346    -1.5771676990     0.1958117571
   22      C       3.9107018726    -1.7648328335    -0.2828933451
   23      O       3.8531390825    -1.0640771444    -1.5842519107
   24      H       4.0155909672     0.9981238568     0.9925178456
   25      H       3.1073243252    -1.0336845077     1.6969762098
   26      H       4.3890728982     0.9855609606    -1.8571974224
   27      H       6.5099356956    -0.3177872672    -1.2702034266
   28      H       6.1583884691     0.5387517969     0.2642545135
   29      H       6.0420182044    -2.3914305401    -0.1879857407
   30      H       5.4851835870    -1.5574125921     1.2947509627
   31      H       3.5840635228    -2.8174986642    -0.3917339651
   32      O      -0.6826892711     0.5512012084     0.7163858546
   33      C      -1.7924606521    -3.4344557998     1.5245996151
   34      C      -3.7891624497    -0.8759556375    -1.1519173000
   35      C      -5.0679684361    -0.2151920658    -1.7958728806
   36      C      -4.5867428729     1.2750321097    -1.9662946881
   37      C      -3.0977012785     1.1807661537    -1.4501690861
   38      O      -2.6807482112    -0.1814081543    -1.8528796856
   39      H      -4.6724299728    -0.3114395118     0.8074070564
   40      H      -3.7646488532     1.8580683188     0.5791459783
   41      H      -2.0692703969    -3.4610500636     2.5973328286
   42      H      -3.6929806928    -1.9724316295    -1.2655892158
   43      H      -5.2889255351    -0.6795450016    -2.7701148924
   44      H      -5.9553447034    -0.3068518399    -1.1497146942
   45      H      -4.6104955762     1.5904732653    -3.0214953810
   46      H      -5.1828747143     1.9853758345    -1.3714103822
   47      H      -2.4036987750     1.9364004328    -1.8670268387
   48      H      -0.7544988830    -3.0393062184     1.4103844514
   49      H      -1.8656550097    -4.4509228888     1.0969875843
   50      H       0.1214434225    -1.8298364786    -2.5207175830
   51      H      -1.0133601155    -0.8248382128    -1.5209801923
   52      H      -0.3526076150    -2.3811272111    -0.8618277932
   53      H       0.5390782688     3.2555384398    -0.1613165590
   54      H       1.3301830899     4.2275179160     1.1385530709
   55      H      -0.0808751752     2.1027415453     2.5256736880
   56      H      -0.5549858081     3.8533859811     2.4901430340
 ----------------------------------------------------------------

    9   -1510.2893515689      1.80E-09 Convergence criterion met
 Total energy in the final basis set = -1510.28935157
 Final energy is   -1510.28935156888
 **  OPTIMIZATION CONVERGED  **

                    Orbital Energies (a.u.)
 --------------------------------------------------------------

 Alpha MOs
 -- Occupied --
-18.930 -18.924 -18.923 -18.920 -18.905 -18.882 -18.876 -18.872
-18.863 -18.858 -10.099 -10.095 -10.091 -10.090 -10.072 -10.068
-10.066 -10.063 -10.055 -10.052 -10.040 -10.037 -10.036 -10.031
-10.030 -10.026 -10.024 -10.020 -10.016 -10.015  -1.014  -1.004
 -1.000  -0.994  -0.981  -0.964  -0.938  -0.930  -0.924  -0.919
 -0.767  -0.757  -0.727  -0.719  -0.713  -0.704  -0.693  -0.647
 -0.637  -0.617  -0.593  -0.578  -0.549  -0.542  -0.537  -0.532
 -0.512  -0.505  -0.479  -0.467  -0.462  -0.451  -0.447  -0.441
 -0.436  -0.427  -0.426  -0.413  -0.406  -0.400  -0.395  -0.389
 -0.384  -0.377  -0.368  -0.359  -0.358  -0.357  -0.346  -0.339
 -0.338  -0.337  -0.333  -0.327  -0.325  -0.321  -0.317  -0.314
 -0.304  -0.301  -0.300  -0.298  -0.293  -0.286  -0.276  -0.274
 -0.264  -0.254  -0.242  -0.241  -0.240  -0.228  -0.227  -0.184
 -0.166  -0.165  -0.163  -0.153  -0.151  -0.148  -0.140  -0.140
 -0.137

          Ground-State Mulliken Net Atomic Charges

     Atom                 Charge (a.u.)
  ----------------------------------------
      1 O                    -0.214150
      2 C                     0.211428
      3 C                    -0.080496
      4 C                    -0.079659
      5 C                     0.213163
      6 O                    -0.176732
      7 C                    -0.050006
      8 C                    -0.055318
      9 O                    -0.175507
     10 C                     0.218262
     11 C                    -0.078309
     12 C                    -0.075006
     13 C                     0.223631
     14 O                    -0.226816
     15 O                    -0.175870
     16 O                    -0.161216
     17 O                    -0.208559
     18 C                    -0.149944
     19 C                     0.025642
     20 C                    -0.142835
     21 C                    -0.145110
     22 C                     0.025273
     23 O                    -0.186078
     24 H                     0.083410
     25 H                     0.085465
     26 H                     0.087385
     27 H                     0.077010
     28 H                     0.072279
     29 H                     0.077248
     30 H                     0.073536
     31 H                     0.082007
     32 O                    -0.206376
     33 C                    -0.145517
     34 C                     0.024725
     35 C                    -0.142969
     36 C                    -0.143496
     37 C                     0.027216
     38 O                    -0.185846
     39 H                     0.083790
     40 H                     0.088010
     41 H                     0.082238
     42 H                     0.098018
     43 H                     0.079778
     44 H                     0.075229
     45 H                     0.080178
     46 H                     0.075783
     47 H                     0.087742
     48 H                     0.118805
     49 H                     0.080377
     50 H                     0.077437
     51 H                     0.112051
     52 H                     0.085811
     53 H                     0.100816
     54 H                     0.081344
     55 H                     0.101707
     56 H                     0.089020
  ----------------------------------------
  Sum of atomic charges =     0.000000

                    Cartesian Multipole Moments
 -----------------------------------------------------------------
    Charge (ESU x 10^10)
                 0.0000
    Dipole Moment (Debye)
         X      -1.1134      Y       1.4185      Z       0.7913
       Tot       1.9692
    Quadrupole Moments (Debye-Ang)
        XX    -136.8232     XY      -1.3535     YY    -151.7351
        XZ       8.4226     YZ       2.9052     ZZ    -165.8051

 Total job time:  81.14s(wall), 3865.59s(cpu)
        *  Thank you very much for using Q-Chem.  Have a nice day.  *
