 Q-Chem 5.0, Q-Chem, Inc., Pleasanton, CA (2017)
 Q-Chem 5.0.1 for Intel X86 EM64T Linux

User input:
--------------------------------------------------------------
$molecule
0  1
O -2.2107427901 -0.9291570389 2.334918695
C -2.7843537214 -1.2821779179 1.2814512523
C -3.6680576792 -0.3711499548 0.3476770228
C -3.1023567061 1.0940142945 0.137064645
C -1.6534730497 1.335902416 0.687717451
O -1.5933910199 2.697723074 1.1238960988
C -0.3413006689 2.9610367891 1.8688710191
C 0.8712463602 3.2439925832 0.9006086903
O 1.8990068436 2.1926519364 1.0792979693
C 2.3411922895 1.6550283201 -0.1751777899
C 3.4180945939 0.568869639 0.1676791571
C 2.9396739701 -0.8730559618 0.6175908405
C 1.4786952051 -1.3348976177 0.2830960333
O 0.8608122193 -2.2084559186 0.9390356714
O -2.7388473762 -2.600204623 0.7409997181
O 1.078548121 -0.8023480213 -0.9682769583
O 1.9448498801 2.0496444721 -1.2918438359
C -0.1234944845 -1.5013456152 -1.4921887983
C 4.3712572776 0.218910086 -1.0583825786
C 5.7716534019 -0.1942569998 -0.4616012186
C 5.4073259346 -1.577167699 0.1958117571
C 3.9107018726 -1.7648328335 -0.2828933451
O 3.8531390825 -1.0640771444 -1.5842519107
H 4.0155909672 0.9981238568 0.9925178456
H 3.1073243252 -1.0336845077 1.6969762098
H 4.3890728982 0.9855609606 -1.8571974224
H 6.5099356956 -0.3177872672 -1.2702034266
H 6.1583884691 0.5387517969 0.2642545135
H 6.0420182044 -2.3914305401 -0.1879857407
H 5.485183587 -1.5574125921 1.2947509627
H 3.5840635228 -2.8174986642 -0.3917339651
O -0.6826892711 0.5512012084 0.7163858546
C -1.7924606521 -3.4344557998 1.5245996151
C -3.7891624497 -0.8759556375 -1.1519173
C -5.0679684361 -0.2151920658 -1.7958728806
C -4.5867428729 1.2750321097 -1.9662946881
C -3.0977012785 1.1807661537 -1.4501690861
O -2.6807482112 -0.1814081543 -1.8528796856
H -4.6724299728 -0.3114395118 0.8074070564
H -3.7646488532 1.8580683188 0.5791459783
H -2.0692703969 -3.4610500636 2.5973328286
H -3.6929806928 -1.9724316295 -1.2655892158
H -5.2889255351 -0.6795450016 -2.7701148924
H -5.9553447034 -0.3068518399 -1.1497146942
H -4.6104955762 1.5904732653 -3.021495381
H -5.1828747143 1.9853758345 -1.3714103822
H -2.403698775 1.9364004328 -1.8670268387
H -0.754498883 -3.0393062184 1.4103844514
H -1.8656550097 -4.4509228888 1.0969875843
H 0.1214434225 -1.8298364786 -2.520717583
H -1.0133601155 -0.8248382128 -1.5209801923
H -0.352607615 -2.3811272111 -0.8618277932
H 0.5390782688 3.2555384398 -0.161316559
H 1.3301830899 4.227517916 1.1385530709
H -0.0808751752 2.1027415453 2.525673688
H -0.5549858081 3.8533859811 2.490143034
$end

$rem
JOBTYPE                   OPT
METHOD                    B3LYP
DFT_D                     d3_op
BASIS                     STO-3G
GEOM_OPT_MAX_CYCLES       100
GEOM_OPT_TOL_GRADIENT     300
GEOM_OPT_TOL_DISPLACEMENT 1200
GEOM_OPT_TOL_ENERGY       100
SYMMETRY                  False
THRESH                    12
SCF_CONVERGENCE           8
MAX_SUB_FILE_NUM          128
MEM_STATIC                400
MEM_TOTAL                 4000
$end
--------------------------------------------------------------

   16   -1510.2893104388      5.61E-09 Convergence criterion met
 Total energy in the final basis set = -1510.28931044
   14   -1510.2666530267      5.79E-09 Convergence criterion met
 Total energy in the final basis set = -1510.26665303
   14   -1510.2773380566      3.79E-09 Convergence criterion met
 Total energy in the final basis set = -1510.27733806
   15   -1510.2296216283      7.25E-09 Convergence criterion met
 Total energy in the final basis set = -1510.22962163
   14   -1510.2814022421      9.37E-09 Convergence criterion met
 Total energy in the final basis set = -1510.28140224
   14   -1510.2853167742      3.66E-09 Convergence criterion met
 Total energy in the final basis set = -1510.28531677
   13   -1510.2857267336      5.86E-09 Convergence criterion met
 Total energy in the final basis set = -1510.28572673
   14   -1510.2819189300      7.22E-09 Convergence criterion met
   11   -1510.2954942838      4.46E-09 Convergence criterion met
 Total energy in the final basis set = -1510.29549428
    9   -1510.2954937853      8.90E-09 Convergence criterion met
 Total energy in the final basis set = -1510.29549379
   10   -1510.2954967648      8.05E-09 Convergence criterion met
 Total energy in the final basis set = -1510.29549676
   11   -1510.2954948827      9.21E-09 Convergence criterion met
 Total energy in the final basis set = -1510.29549488
    9   -1510.2954975809      6.44E-09 Convergence criterion met
 Total energy in the final basis set = -1510.29549758
    9   -1510.2955007823      6.32E-09 Convergence criterion met
 Total energy in the final basis set = -1510.29550078

             Standard Nuclear Orientation (Angstroms)
    I     Atom           X                Y                Z
 ----------------------------------------------------------------
    1      O       3.1863014317     0.8069724053     2.7050898423
    2      C       3.2124568501     1.0677414833     1.4804000335
    3      C       3.9765789798     0.2328813886     0.3866454001
    4      C       3.1699705633    -1.0716227415    -0.0424078438
    5      C       1.7899729267    -1.2000137166     0.6749556233
    6      O       1.7002618585    -2.4907579743     1.2851239201
    7      C       0.3904343938    -2.6453733696     1.9641095583
    8      C      -0.7308693801    -3.1343294027     0.9598933041
    9      O      -1.9736146077    -2.3500103040     1.1385892012
   10      C      -2.0988623309    -1.3691515348     0.0914805261
   11      C      -3.4347852573    -0.5908907547     0.3290229703
   12      C      -3.2740725708     0.9871044793     0.4649087609
   13      C      -1.7867755973     1.4815861363     0.3830828195
   14      O      -1.0679479026     1.7593406176     1.3741612188
   15      O       2.5401441440     2.1597779564     0.8648688894
   16      O      -1.4000802226     1.5631559698    -0.9760133562
   17      O      -1.2776212463    -1.2455942238    -0.8426029336
   18      C       0.0498556744     1.8584064844    -1.1021074431
   19      C      -4.3944553739    -0.6795450567    -0.9395446867
   20      C      -5.8481086451    -0.2576427624    -0.4852644500
   21      C      -5.6844471809     1.3026178514    -0.3586461142
   22      C      -4.1647339391     1.4826431279    -0.7531298844
   23      O      -3.9513535689     0.4460754435    -1.7882450959
   24      H      -3.9118264116    -1.0173487487     1.2287717274
   25      H      -3.6820721812     1.3259882385     1.4335037068
   26      H      -4.3316783496    -1.6338010969    -1.4977472563
   27      H      -6.5852180309    -0.5260967023    -1.2587820590
   28      H      -6.1410878002    -0.7351948233     0.4631834695
   29      H      -6.3329654086     1.8355189348    -1.0720475819
   30      H      -5.8963586674     1.6727348020     0.6570209520
   31      H      -3.8914512111     2.4810342667    -1.1449012856
   32      O       0.8808744341    -0.3397228310     0.7404381023
   33      C       1.6517239812     2.8459011483     1.8393348904
   34      C       4.1096931656     0.9702484464    -1.0095458107
   35      C       5.1837878365     0.2023212465    -1.8774226196
   36      C       4.3729700788    -1.0752562030    -2.3107901157
   37      C       2.9871533883    -0.8079531664    -1.6029100738
   38      O       2.8294155479     0.6591404196    -1.6874264146
   39      H       4.9620463317    -0.0477218922     0.7996919510
   40      H       3.7478270332    -1.9918994940     0.1529910074
   41      H       1.9851698679     2.6276951031     2.8723974833
   42      H       4.2504261702     2.0652625845    -0.9365831177
   43      H       5.4780732062     0.8075099504    -2.7495057940
   44      H       6.0869787811    -0.0440977927    -1.2968877473
   45      H       4.2418173963    -1.1200306094    -3.4037045197
   46      H       4.8395480960    -2.0138924572    -1.9717497272
   47      H       2.1142332782    -1.3175952417    -2.0558497737
   48      H       0.6049038863     2.4818261639     1.6881246701
   49      H       1.7182740004     3.9305677752     1.6345665035
   50      H       0.2916212704     1.7212333765    -2.1711465381
   51      H       0.6481555843     1.1533796683    -0.4811477719
   52      H       0.2728625250     2.9024397745    -0.8047537230
   53      H      -0.3701504851    -2.9995987047    -0.0838414945
   54      H      -0.9846732657    -4.1979511397     1.1397789258
   55      H       0.0712920374    -1.6764537291     2.4057975605
   56      H       0.5536212763    -3.3885719883     2.7686172263
 ----------------------------------------------------------------

    9   -1510.2955017068      8.02E-09 Convergence criterion met
 Total energy in the final basis set = -1510.29550171
 Final energy is   -1510.29550170675
 **  OPTIMIZATION CONVERGED  **

                    Orbital Energies (a.u.)
 --------------------------------------------------------------

 Alpha MOs
 -- Occupied --
-18.941 -18.932 -18.925 -18.919 -18.888 -18.887 -18.884 -18.879
-18.866 -18.858 -10.105 -10.098 -10.093 -10.088 -10.073 -10.069
-10.061 -10.059 -10.057 -10.057 -10.039 -10.037 -10.034 -10.033
-10.028 -10.025 -10.020 -10.019 -10.019 -10.018  -1.020  -1.010
 -0.999  -0.997  -0.970  -0.968  -0.943  -0.935  -0.925  -0.921
 -0.763  -0.760  -0.726  -0.720  -0.711  -0.704  -0.695  -0.642
 -0.639  -0.618  -0.593  -0.579  -0.545  -0.543  -0.536  -0.535
 -0.510  -0.506  -0.479  -0.473  -0.461  -0.458  -0.446  -0.440
 -0.432  -0.431  -0.427  -0.413  -0.404  -0.400  -0.397  -0.391
 -0.387  -0.378  -0.367  -0.359  -0.357  -0.355  -0.348  -0.343
 -0.338  -0.333  -0.330  -0.329  -0.325  -0.321  -0.318  -0.308
 -0.307  -0.303  -0.301  -0.299  -0.296  -0.279  -0.277  -0.274
 -0.272  -0.263  -0.246  -0.239  -0.237  -0.231  -0.229  -0.189
 -0.171  -0.168  -0.161  -0.159  -0.152  -0.146  -0.143  -0.140
 -0.137

          Ground-State Mulliken Net Atomic Charges

     Atom                 Charge (a.u.)
  ----------------------------------------
      1 O                    -0.223060
      2 C                     0.206318
      3 C                    -0.078971
      4 C                    -0.079732
      5 C                     0.213730
      6 O                    -0.168094
      7 C                    -0.053466
      8 C                    -0.057433
      9 O                    -0.173672
     10 C                     0.208700
     11 C                    -0.078399
     12 C                    -0.078468
     13 C                     0.215097
     14 O                    -0.217423
     15 O                    -0.170519
     16 O                    -0.161014
     17 O                    -0.204683
     18 C                    -0.137828
     19 C                     0.026742
     20 C                    -0.143931
     21 C                    -0.144261
     22 C                     0.027279
     23 O                    -0.182474
     24 H                     0.086585
     25 H                     0.083353
     26 H                     0.082441
     27 H                     0.077690
     28 H                     0.073466
     29 H                     0.077629
     30 H                     0.073384
     31 H                     0.086726
     32 O                    -0.208392
     33 C                    -0.152826
     34 C                     0.025905
     35 C                    -0.144441
     36 C                    -0.143636
     37 C                     0.025540
     38 O                    -0.186209
     39 H                     0.083575
     40 H                     0.087338
     41 H                     0.089797
     42 H                     0.089883
     43 H                     0.077801
     44 H                     0.073400
     45 H                     0.078517
     46 H                     0.073769
     47 H                     0.086354
     48 H                     0.116915
     49 H                     0.075150
     50 H                     0.089711
     51 H                     0.119377
     52 H                     0.077749
     53 H                     0.099463
     54 H                     0.086144
     55 H                     0.102809
     56 H                     0.090597
  ----------------------------------------
  Sum of atomic charges =    -0.000000

                    Cartesian Multipole Moments
 -----------------------------------------------------------------
    Charge (ESU x 10^10)
                -0.0000
    Dipole Moment (Debye)
         X      -0.3490      Y      -1.8061      Z      -0.0813
       Tot       1.8413
    Quadrupole Moments (Debye-Ang)
        XX    -139.5686     XY      -1.7357     YY    -150.4486
        XZ     -10.3236     YZ      -0.5907     ZZ    -168.2921

 Total job time:  135.62s(wall), 6468.46s(cpu)
        *  Thank you very much for using Q-Chem.  Have a nice day.  *
