 Q-Chem 5.0, Q-Chem, Inc., Pleasanton, CA (2017)
 Q-Chem 5.0.1 for Intel X86 EM64T Linux

User input:
--------------------------------------------------------------
$molecule
0  1
O -2.2333522218 -0.9375833898 2.3151113016
C -2.7425924729 -1.2925347488 1.2292536579
C -3.6408178321 -0.3987966235 0.2945872906
C -3.1429558901 1.1003949546 0.177014302
C -1.6983048695 1.3392629739 0.7352003101
O -1.675105813 2.6142530621 1.387748008
C -0.3587271576 2.8171917888 2.0374534117
C 0.7860329371 3.1471434068 1.0010725226
O 1.8803168214 2.1584390338 1.131936406
C 2.250096299 1.6297482119 -0.1531209811
C 3.4074208285 0.606409625 0.0984165468
C 3.0018787685 -0.8424718348 0.5985581342
C 1.524251692 -1.3091943133 0.3428428609
O 0.8778951287 -2.0696658534 1.1030228633
O -2.638203264 -2.6020317446 0.6775868709
O 1.1264122544 -0.880784555 -0.9481801821
O 1.7408327438 1.9922644409 -1.2344642099
C -0.1328512627 -1.5306519765 -1.3912466147
C 4.280063998 0.2668291915 -1.1872025106
C 5.7313958017 -0.0885655593 -0.6783138136
C 5.4575572106 -1.4683830935 0.0291787901
C 3.9411986466 -1.7173110469 -0.3481103956
O 3.7760500683 -1.0439586785 -1.6547549179
H 4.0484594795 1.0676096082 0.8719088606
H 3.2289463273 -0.9840232672 1.6695007896
H 4.2172860002 1.0177286664 -1.998529131
H 6.4170992184 -0.2062113753 -1.5328759969
H 6.1421296919 0.6717193611 0.0049523539
H 6.0956744636 -2.2691089495 -0.3767154867
H 5.6036536173 -1.4200981237 1.1202652397
H 3.6460170832 -2.782352431 -0.4196400369
O -0.6953381794 0.6043412728 0.6152197015
C -1.7365343398 -3.4310380258 1.5190587544
C -3.6820693659 -0.8392822346 -1.2290613318
C -4.9822633328 -0.2298295385 -1.8794777362
C -4.5965575154 1.2958435669 -1.952470583
C -3.1162919462 1.2696423058 -1.4039643363
O -2.6014062708 -0.0427375984 -1.8609597114
H -4.6628070951 -0.4152549508 0.7177461937
H -3.8327174537 1.8136094128 0.6597586788
H -2.0919749585 -3.4757430791 2.5677148962
H -3.5135546837 -1.9210182382 -1.3903245009
H -5.1423117497 -0.6522242527 -2.8843996409
H -5.8810766359 -0.4156203648 -1.2700905933
H -4.618413666 1.6705011021 -2.9881331179
H -5.2514224326 1.9294767166 -1.3330013726
H -2.4636577034 2.0870827943 -1.7675652128
H -0.701569063 -3.014169368 1.4865642812
H -1.7599718548 -4.4427745474 1.074945925
H 0.0714729502 -1.9872746148 -2.3791610082
H -0.9557284259 -0.780848543 -1.4892284203
H -0.4367504482 -2.314466156 -0.6734333296
H 0.4043067796 3.1235733153 -0.0439093278
H 1.2021810152 4.1574988273 1.2016103682
H -0.0617933851 1.9140738455 2.6141916347
H -0.5093198804 3.6656997437 2.733303066
$end

$rem
JOBTYPE                   OPT
METHOD                    B3LYP
DFT_D                     d3_op
BASIS                     STO-3G
GEOM_OPT_MAX_CYCLES       100
GEOM_OPT_TOL_GRADIENT     300
GEOM_OPT_TOL_DISPLACEMENT 1200
GEOM_OPT_TOL_ENERGY       100
SYMMETRY                  False
THRESH                    12
SCF_CONVERGENCE           8
MAX_SUB_FILE_NUM          128
MEM_STATIC                400
MEM_TOTAL                 4000
$end
--------------------------------------------------------------

   16   -1510.2917335853      5.96E-09 Convergence criterion met
 Total energy in the final basis set = -1510.29173359
   14   -1510.2858285027      4.01E-09 Convergence criterion met
 Total energy in the final basis set = -1510.28582850
   14   -1510.2725475458      5.36E-09 Convergence criterion met
 Total energy in the final basis set = -1510.27254755
   16   -1510.1271657640      1.64E-09 Convergence criterion met
 Total energy in the final basis set = -1510.12716576
   15   -1510.2713483111      4.62E-09 Convergence criterion met
 Total energy in the final basis set = -1510.27134831
   13   -1510.2789050465      8.60E-09 Convergence criterion met
 Total energy in the final basis set = -1510.27890505
   13   -1510.2819253338      5.85E-09 Convergence criterion met
 Total energy in the final basis set = -1510.28192533
   14   -1510.2837469838      9.15E-09 Convergence criterion met
    9   -1510.2973789014      8.42E-09 Convergence criterion met
 Total energy in the final basis set = -1510.29737890
   10   -1510.2973772889      9.13E-09 Convergence criterion met
 Total energy in the final basis set = -1510.29737729
   10   -1510.2973741869      9.31E-09 Convergence criterion met
 Total energy in the final basis set = -1510.29737419
    9   -1510.2973736355      4.51E-09 Convergence criterion met
 Total energy in the final basis set = -1510.29737364
    9   -1510.2973736522      4.31E-09 Convergence criterion met
 Total energy in the final basis set = -1510.29737365
    9   -1510.2973746586      3.36E-09 Convergence criterion met
 Total energy in the final basis set = -1510.29737466

             Standard Nuclear Orientation (Angstroms)
    I     Atom           X                Y                Z
 ----------------------------------------------------------------
    1      O       3.7541222572     1.1002159425     2.7013155424
    2      C       3.3916187669     1.1923058324     1.5068683369
    3      C       3.9318350478     0.3308474002     0.3030008753
    4      C       3.1111127783    -1.0092070259     0.0891540732
    5      C       1.9477392609    -1.2344091967     1.1068626194
    6      O       1.5988640484    -2.6240674361     1.0429767141
    7      C       0.3927625859    -2.9004570329     1.8550821701
    8      C      -0.7756160800    -3.3671903130     0.8956420975
    9      O      -2.0087826633    -2.5567838787     1.0144596424
   10      C      -1.8306501973    -1.2554267276     0.4404434743
   11      C      -3.2199701081    -0.5386721775     0.4839421615
   12      C      -3.1441107676     1.0307741415     0.2928039909
   13      C      -1.6803351873     1.6173941450     0.2961937074
   14      O      -1.0242018273     1.8759655754     1.3331256143
   15      O       2.4461637913     2.1292314610     1.0026085792
   16      O      -1.2853387125     1.9079488641    -1.0345170865
   17      O      -0.7549753490    -0.8345810124    -0.0387258650
   18      C       0.0709526080     2.5075805662    -1.0844433951
   19      C      -4.0772580460    -0.9518211729    -0.7936058256
   20      C      -5.5725889172    -0.4936099955    -0.5681991704
   21      C      -5.4563960486     1.0562346617    -0.8146293625
   22      C      -3.9083210086     1.2043358773    -1.0879997188
   23      O      -3.5754069826    -0.0311776627    -1.8364938475
   24      H      -3.7299065479    -0.8214356503     1.4216183952
   25      H      -3.6891912177     1.5305527305     1.1137506999
   26      H      -3.9497138367    -2.0068533198    -1.1054038413
   27      H      -6.2367733484    -0.9736665459    -1.3043196193
   28      H      -5.9319083458    -0.7379095079     0.4443522904
   29      H      -6.0344316757     1.3674696568    -1.6992901363
   30      H      -5.7865118730     1.6520601556     0.0511433248
   31      H      -3.6073397016     2.0980504057    -1.6663179205
   32      O       1.3840915479    -0.3981373398     1.8457006265
   33      C       1.7086387296     2.7913509014     2.1057789013
   34      C       3.7190430745     1.0321411866    -1.1022398296
   35      C       4.5690178265     0.2675523078    -2.1940007704
   36      C       3.7040779884    -1.0314572004    -2.4077359194
   37      C       2.5339969215    -0.7877944306    -1.3791853605
   38      O       2.3248288303     0.6732899045    -1.4532995212
   39      H       4.9956155661     0.1036707683     0.4936536545
   40      H       3.7650058592    -1.8986490317     0.1188628186
   41      H       2.0865492178     2.4262685012     3.0804977160
   42      H       3.8403472311     2.1318812076    -1.0897900869
   43      H       4.6343630571     0.8643565290    -3.1175145432
   44      H       5.5899780775     0.0461170641    -1.8439290680
   45      H       3.3064560902    -1.0862650256    -3.4338282112
   46      H       4.2619450723    -1.9570819707    -2.1936937664
   47      H       1.5872004544    -1.3245198503    -1.5858635588
   48      H       0.6319907184     2.5369239863     1.9675364808
   49      H       1.8631333331     3.8856859727     2.0302079230
   50      H       0.1356975168     3.0057828278    -2.0694770432
   51      H       0.8730905123     1.7304885401    -1.0126969195
   52      H       0.2040902739     3.2582487071    -0.2823150768
   53      H      -0.3900940302    -3.3481867093    -0.1478780033
   54      H      -1.0914702087    -4.3996199501     1.1443715235
   55      H       0.1117798417    -1.9757503346     2.4064568410
   56      H       0.6442635496    -3.7029395323     2.5783683281
 ----------------------------------------------------------------

    9   -1510.2973752548      2.69E-09 Convergence criterion met
 Total energy in the final basis set = -1510.29737525
 Final energy is   -1510.29737525475
 **  OPTIMIZATION CONVERGED  **

                    Orbital Energies (a.u.)
 --------------------------------------------------------------

 Alpha MOs
 -- Occupied --
-18.938 -18.932 -18.920 -18.909 -18.898 -18.885 -18.884 -18.883
-18.858 -18.850 -10.104 -10.101 -10.090 -10.083 -10.077 -10.069
-10.063 -10.060 -10.060 -10.054 -10.038 -10.037 -10.031 -10.030
-10.026 -10.022 -10.021 -10.020 -10.019 -10.017  -1.019  -1.011
 -0.994  -0.989  -0.974  -0.968  -0.944  -0.937  -0.921  -0.914
 -0.763  -0.760  -0.727  -0.721  -0.712  -0.705  -0.695  -0.640
 -0.636  -0.619  -0.592  -0.578  -0.545  -0.542  -0.537  -0.534
 -0.511  -0.507  -0.481  -0.467  -0.462  -0.455  -0.448  -0.440
 -0.434  -0.432  -0.429  -0.410  -0.400  -0.397  -0.395  -0.387
 -0.383  -0.379  -0.369  -0.362  -0.353  -0.352  -0.350  -0.346
 -0.338  -0.332  -0.328  -0.328  -0.323  -0.320  -0.316  -0.311
 -0.309  -0.302  -0.301  -0.296  -0.294  -0.278  -0.277  -0.274
 -0.271  -0.261  -0.248  -0.240  -0.234  -0.230  -0.223  -0.188
 -0.171  -0.161  -0.159  -0.157  -0.151  -0.147  -0.143  -0.135
 -0.134

          Ground-State Mulliken Net Atomic Charges

     Atom                 Charge (a.u.)
  ----------------------------------------
      1 O                    -0.223942
      2 C                     0.213939
      3 C                    -0.080640
      4 C                    -0.078299
      5 C                     0.219390
      6 O                    -0.176042
      7 C                    -0.057040
      8 C                    -0.050929
      9 O                    -0.173412
     10 C                     0.212541
     11 C                    -0.078171
     12 C                    -0.080401
     13 C                     0.219090
     14 O                    -0.222319
     15 O                    -0.174565
     16 O                    -0.167442
     17 O                    -0.207218
     18 C                    -0.145085
     19 C                     0.025320
     20 C                    -0.143972
     21 C                    -0.144195
     22 C                     0.025573
     23 O                    -0.188158
     24 H                     0.087094
     25 H                     0.082412
     26 H                     0.081827
     27 H                     0.077560
     28 H                     0.073651
     29 H                     0.077304
     30 H                     0.073165
     31 H                     0.090960
     32 O                    -0.200282
     33 C                    -0.148701
     34 C                     0.028699
     35 C                    -0.144292
     36 C                    -0.143022
     37 C                     0.029438
     38 O                    -0.184101
     39 H                     0.082706
     40 H                     0.087076
     41 H                     0.093044
     42 H                     0.090054
     43 H                     0.078338
     44 H                     0.074386
     45 H                     0.079135
     46 H                     0.074638
     47 H                     0.091829
     48 H                     0.115938
     49 H                     0.070884
     50 H                     0.077746
     51 H                     0.122086
     52 H                     0.081765
     53 H                     0.092386
     54 H                     0.089988
     55 H                     0.106304
     56 H                     0.085962
  ----------------------------------------
  Sum of atomic charges =     0.000000

                    Cartesian Multipole Moments
 -----------------------------------------------------------------
    Charge (ESU x 10^10)
                 0.0000
    Dipole Moment (Debye)
         X      -0.9608      Y      -2.0975      Z      -1.2692
       Tot       2.6332
    Quadrupole Moments (Debye-Ang)
        XX    -143.9175     XY      -2.6344     YY    -149.2035
        XZ     -12.5515     YZ      -3.6816     ZZ    -167.5018

 Total job time:  267.05s(wall), 12747.30s(cpu)
        *  Thank you very much for using Q-Chem.  Have a nice day.  *
