 Q-Chem 5.0, Q-Chem, Inc., Pleasanton, CA (2017)
 Q-Chem 5.0.1 for Intel X86 EM64T Linux

User input:
--------------------------------------------------------------
$molecule
0  1
O -3.94934 -3.66094 2.70899
C -3.26408 -4.56952 2.26188
C -3.36658 -6.02376 2.66595
C -4.77729 -6.59403 2.88629
C -5.93434 -5.69702 2.5059
O -6.95105 -5.84435 3.40591
C -8.03708 -4.93905 3.18182
C -8.85201 -5.38494 1.97219
O -8.90421 -4.32828 1.00078
C -8.60128 -4.68966 -0.27074
C -8.67757 -3.53738 -1.24393
C -7.45001 -2.61471 -1.2522
C -6.2089 -3.16009 -0.57478
O -5.37549 -2.49302 0.02106
O -2.21209 -4.23805 1.46457
O -5.82974 -4.37942 -1.05241
O -8.46207 -5.8501 -0.63979
C -4.52962 -4.81821 -1.17196
C -8.71349 -3.95041 -2.73666
C -9.35841 -2.83601 -3.56142
C -8.27603 -1.77706 -3.49973
C -7.17637 -2.55558 -2.76854
O -7.37863 -3.88899 -3.16813
H -9.63306 -3.00474 -1.03418
H -7.65438 -1.61088 -0.81896
H -9.24419 -4.91006 -2.91925
H -9.4287 -3.21039 -4.60819
H -10.36513 -2.50552 -3.22664
H -7.96661 -1.53046 -4.53958
H -8.54845 -0.84963 -2.95078
H -6.17463 -2.12705 -2.99429
O -6.02861 -5.10429 1.44863
C -1.90509 -2.9552 1.06143
C -2.85742 -6.98774 1.56747
C -2.49501 -8.3423 2.18006
C -3.8724 -8.90996 2.43991
C -4.74513 -7.77634 1.89836
O -4.00474 -7.28043 0.81298
H -2.72943 -6.12954 3.57178
H -4.93311 -6.97397 3.92238
H -1.69849 -2.31478 1.94523
H -1.98542 -6.60381 0.99656
H -2.00316 -8.96005 1.39497
H -1.83081 -8.2753 3.06854
H -4.00791 -9.81132 1.80093
H -4.09269 -9.16394 3.49922
H -5.76277 -8.15851 1.65925
H -2.743 -2.52618 0.47392
H -1.00032 -2.98302 0.42044
H -4.52984 -5.8451 -1.59065
H -4.03376 -4.83362 -0.19313
H -3.96705 -4.15103 -1.85881
H -8.53288 -6.38875 1.61121
H -9.89973 -5.52858 2.31596
H -7.71159 -3.87438 3.13796
H -8.69383 -5.0229 4.07484
$end

$opt
CONSTRAINT
tors           1           2           3           4     +40.028
tors           3           4           5           6    -142.288
tors           4           5           6           7    +174.741
tors           5           6           7           8     +74.620
tors           6           7           8           9    -123.046
tors           7           8           9          10    +130.891
tors           8           9          10          11    +179.839
tors           9          10          11          12     +80.300
tors          11          12          13          14    -147.346
ENDCONSTRAINT
$end

$rem
JOBTYPE                   OPT
METHOD                    B3LYP
DFT_D                     d3_op
BASIS                     STO-3G
GEOM_OPT_MAX_CYCLES       100
GEOM_OPT_TOL_GRADIENT     300
GEOM_OPT_TOL_DISPLACEMENT 1200
GEOM_OPT_TOL_ENERGY       100
SYMMETRY                  False
THRESH                    12
SCF_CONVERGENCE           8
MAX_SUB_FILE_NUM          128
MEM_STATIC                400
MEM_TOTAL                 4000
$end
--------------------------------------------------------------

   16   -1510.1476557056      1.56E-09 Convergence criterion met
 Total energy in the final basis set = -1510.14765571
   14   -1510.2190124355      6.96E-09 Convergence criterion met
 Total energy in the final basis set = -1510.21901244
   14   -1510.2434535381      9.79E-09 Convergence criterion met
 Total energy in the final basis set = -1510.24345354
   15   -1510.2744050910      2.86E-09 Convergence criterion met
 Total energy in the final basis set = -1510.27440509
   13   -1510.2818102682      7.35E-09 Convergence criterion met
 Total energy in the final basis set = -1510.28181027
   13   -1510.2856000711      8.33E-09 Convergence criterion met
 Total energy in the final basis set = -1510.28560007
   13   -1510.2869374748      5.73E-09 Convergence criterion met
 Total energy in the final basis set = -1510.28693747
   13   -1510.2872444804      4.68E-09 Convergence criterion met
   11   -1510.2917104479      7.25E-09 Convergence criterion met
 Total energy in the final basis set = -1510.29171045
   10   -1510.2917157933      5.12E-09 Convergence criterion met
 Total energy in the final basis set = -1510.29171579
    9   -1510.2917239727      9.03E-09 Convergence criterion met
 Total energy in the final basis set = -1510.29172397
    9   -1510.2917246346      7.21E-09 Convergence criterion met
 Total energy in the final basis set = -1510.29172463
    9   -1510.2917267448      5.95E-09 Convergence criterion met
 Total energy in the final basis set = -1510.29172674
    9   -1510.2917282638      3.12E-09 Convergence criterion met
 Total energy in the final basis set = -1510.29172826

             Standard Nuclear Orientation (Angstroms)
    I     Atom           X                Y                Z
 ----------------------------------------------------------------
    1      O      -2.2333522218    -0.9375833898     2.3151113016
    2      C      -2.7425924729    -1.2925347488     1.2292536579
    3      C      -3.6408178321    -0.3987966235     0.2945872906
    4      C      -3.1429558901     1.1003949546     0.1770143020
    5      C      -1.6983048695     1.3392629739     0.7352003101
    6      O      -1.6751058130     2.6142530621     1.3877480080
    7      C      -0.3587271576     2.8171917888     2.0374534117
    8      C       0.7860329371     3.1471434068     1.0010725226
    9      O       1.8803168214     2.1584390338     1.1319364060
   10      C       2.2500962990     1.6297482119    -0.1531209811
   11      C       3.4074208285     0.6064096250     0.0984165468
   12      C       3.0018787685    -0.8424718348     0.5985581342
   13      C       1.5242516920    -1.3091943133     0.3428428609
   14      O       0.8778951287    -2.0696658534     1.1030228633
   15      O      -2.6382032640    -2.6020317446     0.6775868709
   16      O       1.1264122544    -0.8807845550    -0.9481801821
   17      O       1.7408327438     1.9922644409    -1.2344642099
   18      C      -0.1328512627    -1.5306519765    -1.3912466147
   19      C       4.2800639980     0.2668291915    -1.1872025106
   20      C       5.7313958017    -0.0885655593    -0.6783138136
   21      C       5.4575572106    -1.4683830935     0.0291787901
   22      C       3.9411986466    -1.7173110469    -0.3481103956
   23      O       3.7760500683    -1.0439586785    -1.6547549179
   24      H       4.0484594795     1.0676096082     0.8719088606
   25      H       3.2289463273    -0.9840232672     1.6695007896
   26      H       4.2172860002     1.0177286664    -1.9985291310
   27      H       6.4170992184    -0.2062113753    -1.5328759969
   28      H       6.1421296919     0.6717193611     0.0049523539
   29      H       6.0956744636    -2.2691089495    -0.3767154867
   30      H       5.6036536173    -1.4200981237     1.1202652397
   31      H       3.6460170832    -2.7823524310    -0.4196400369
   32      O      -0.6953381794     0.6043412728     0.6152197015
   33      C      -1.7365343398    -3.4310380258     1.5190587544
   34      C      -3.6820693659    -0.8392822346    -1.2290613318
   35      C      -4.9822633328    -0.2298295385    -1.8794777362
   36      C      -4.5965575154     1.2958435669    -1.9524705830
   37      C      -3.1162919462     1.2696423058    -1.4039643363
   38      O      -2.6014062708    -0.0427375984    -1.8609597114
   39      H      -4.6628070951    -0.4152549508     0.7177461937
   40      H      -3.8327174537     1.8136094128     0.6597586788
   41      H      -2.0919749585    -3.4757430791     2.5677148962
   42      H      -3.5135546837    -1.9210182382    -1.3903245009
   43      H      -5.1423117497    -0.6522242527    -2.8843996409
   44      H      -5.8810766359    -0.4156203648    -1.2700905933
   45      H      -4.6184136660     1.6705011021    -2.9881331179
   46      H      -5.2514224326     1.9294767166    -1.3330013726
   47      H      -2.4636577034     2.0870827943    -1.7675652128
   48      H      -0.7015690630    -3.0141693680     1.4865642812
   49      H      -1.7599718548    -4.4427745474     1.0749459250
   50      H       0.0714729502    -1.9872746148    -2.3791610082
   51      H      -0.9557284259    -0.7808485430    -1.4892284203
   52      H      -0.4367504482    -2.3144661560    -0.6734333296
   53      H       0.4043067796     3.1235733153    -0.0439093278
   54      H       1.2021810152     4.1574988273     1.2016103682
   55      H      -0.0617933851     1.9140738455     2.6141916347
   56      H      -0.5093198804     3.6656997437     2.7333030660
 ----------------------------------------------------------------

    9   -1510.2917290569      2.53E-09 Convergence criterion met
 Total energy in the final basis set = -1510.29172906
 Final energy is   -1510.29172905692
 **  OPTIMIZATION CONVERGED  **

                    Orbital Energies (a.u.)
 --------------------------------------------------------------

 Alpha MOs
 -- Occupied --
-18.932 -18.924 -18.924 -18.920 -18.903 -18.882 -18.874 -18.873
-18.863 -18.859 -10.098 -10.095 -10.092 -10.089 -10.070 -10.067
-10.063 -10.063 -10.055 -10.053 -10.040 -10.037 -10.037 -10.031
-10.030 -10.025 -10.024 -10.021 -10.016 -10.015  -1.014  -1.003
 -1.000  -0.994  -0.980  -0.964  -0.936  -0.930  -0.925  -0.920
 -0.766  -0.757  -0.727  -0.719  -0.712  -0.703  -0.692  -0.648
 -0.637  -0.616  -0.593  -0.577  -0.548  -0.542  -0.538  -0.532
 -0.511  -0.505  -0.478  -0.467  -0.462  -0.452  -0.450  -0.440
 -0.435  -0.427  -0.426  -0.415  -0.406  -0.398  -0.393  -0.387
 -0.385  -0.375  -0.368  -0.359  -0.358  -0.356  -0.346  -0.341
 -0.337  -0.336  -0.332  -0.326  -0.324  -0.321  -0.317  -0.314
 -0.305  -0.301  -0.300  -0.296  -0.292  -0.285  -0.276  -0.273
 -0.265  -0.256  -0.243  -0.242  -0.240  -0.228  -0.227  -0.183
 -0.166  -0.166  -0.163  -0.152  -0.151  -0.148  -0.141  -0.140
 -0.136

          Ground-State Mulliken Net Atomic Charges

     Atom                 Charge (a.u.)
  ----------------------------------------
      1 O                    -0.215225
      2 C                     0.211763
      3 C                    -0.080024
      4 C                    -0.079565
      5 C                     0.212919
      6 O                    -0.173251
      7 C                    -0.050474
      8 C                    -0.056034
      9 O                    -0.175113
     10 C                     0.217949
     11 C                    -0.078167
     12 C                    -0.075305
     13 C                     0.221354
     14 O                    -0.225854
     15 O                    -0.175322
     16 O                    -0.160131
     17 O                    -0.207260
     18 C                    -0.148027
     19 C                     0.026021
     20 C                    -0.142584
     21 C                    -0.145172
     22 C                     0.025397
     23 O                    -0.184711
     24 H                     0.083352
     25 H                     0.085008
     26 H                     0.087694
     27 H                     0.076990
     28 H                     0.072249
     29 H                     0.077154
     30 H                     0.073327
     31 H                     0.081446
     32 O                    -0.210261
     33 C                    -0.146024
     34 C                     0.024495
     35 C                    -0.142687
     36 C                    -0.143699
     37 C                     0.027145
     38 O                    -0.185500
     39 H                     0.084058
     40 H                     0.088144
     41 H                     0.082473
     42 H                     0.096886
     43 H                     0.079649
     44 H                     0.075054
     45 H                     0.080166
     46 H                     0.075640
     47 H                     0.087063
     48 H                     0.119092
     49 H                     0.080585
     50 H                     0.076809
     51 H                     0.113354
     52 H                     0.086140
     53 H                     0.101059
     54 H                     0.080275
     55 H                     0.100906
     56 H                     0.088773
  ----------------------------------------
  Sum of atomic charges =    -0.000000

                    Cartesian Multipole Moments
 -----------------------------------------------------------------
    Charge (ESU x 10^10)
                -0.0000
    Dipole Moment (Debye)
         X      -0.9876      Y       1.1967      Z       0.6237
       Tot       1.6723
    Quadrupole Moments (Debye-Ang)
        XX    -136.2735     XY      -0.8144     YY    -151.3904
        XZ       8.0319     YZ       2.3587     ZZ    -166.3167

 Total job time:  81.21s(wall), 3871.21s(cpu)
        *  Thank you very much for using Q-Chem.  Have a nice day.  *
