 Q-Chem 5.0, Q-Chem, Inc., Pleasanton, CA (2017)
 Q-Chem 5.0.1 for Intel X86 EM64T Linux

User input:
--------------------------------------------------------------
$molecule
0  1
O -2.3255694951 -0.9505807861 2.3431384711
C -2.7587565049 -1.2960650735 1.2217954518
C -3.6216024605 -0.4004041805 0.2562017989
C -3.1227455305 1.1003052758 0.1702771461
C -1.6768249368 1.3194085869 0.735482689
O -1.6287166545 2.6107899495 1.3508810518
C -0.336733559 2.7841601586 2.0546554112
C 0.8548074702 3.1344086195 1.0796455147
O 1.9276772957 2.1164097766 1.159529201
C 2.2652828972 1.6247173627 -0.149901773
C 3.4021223568 0.5653903957 0.0400246677
C 3.0033100002 -0.8545230608 0.6172233706
C 1.5117247645 -1.3033764898 0.4117903845
O 0.8440247576 -1.9798748916 1.2298099489
O -2.5951027255 -2.5962215903 0.6600503723
O 1.1164178231 -0.9310127963 -0.8974670223
O 1.7451156675 2.0357930919 -1.2087410399
C -0.16319981 -1.5602307049 -1.3074704208
C 4.192068389 0.1658282741 -1.2814945092
C 5.6706875728 -0.1667087127 -0.840541536
C 5.4352641841 -1.5026345768 -0.039945396
C 3.9025936385 -1.7740478271 -0.3263034738
O 3.6697424201 -1.1679729886 -1.6559672511
H 4.1066668156 1.0288842098 0.7558815174
H 3.2595324602 -0.9539434451 1.6861913805
H 4.0785355631 0.8782281958 -2.1214168971
H 6.3045332007 -0.3364970201 -1.7259343921
H 6.1229883338 0.6284308021 -0.2268044559
H 6.0550083473 -2.3263332373 -0.42785478
H 5.6349384775 -1.3888903999 1.0378035313
H 3.6091673598 -2.8420002753 -0.3300846846
O -0.6946366616 0.55203043 0.660369363
C -1.7428838741 -3.422924292 1.5551815551
C -3.6285719123 -0.8221133423 -1.2736043959
C -4.9282294966 -0.2209573217 -1.9326648024
C -4.565614254 1.3119627908 -1.9685375417
C -3.0894960855 1.2976879019 -1.4073998998
O -2.5534163035 -0.0002435768 -1.8822802378
H -4.6558219576 -0.4185099171 0.648676837
H -3.8111363508 1.8065368476 0.6650216873
H -2.1587657325 -3.4652596599 2.5812800036
H -3.4419823406 -1.8986698994 -1.4489662662
H -5.0657495595 -0.6250319479 -2.9484321866
H -5.8335546926 -0.4329378804 -1.3417092944
H -4.583727253 1.7087168718 -2.9959846734
H -5.2361830932 1.9217634427 -1.3419676336
H -2.44551909 2.1299415446 -1.7524326961
H -0.7101345432 -3.0007538872 1.581379933
H -1.7372884856 -4.4353243758 1.1121046384
H 0.037579074 -2.1347740741 -2.233004615
H -0.9356280542 -0.7790623958 -1.5090939175
H -0.5384435979 -2.2393739641 -0.5211566283
H 0.5007806367 3.1918443198 0.0257131912
H 1.2924857707 4.1159619873 1.360184866
H -0.0735746782 1.8653956955 2.6230643292
H -0.5069351274 3.61883582 2.762832083
$end

$rem
JOBTYPE                   OPT
METHOD                    B3LYP
DFT_D                     d3_op
BASIS                     STO-3G
GEOM_OPT_MAX_CYCLES       100
GEOM_OPT_TOL_GRADIENT     300
GEOM_OPT_TOL_DISPLACEMENT 1200
GEOM_OPT_TOL_ENERGY       100
SYMMETRY                  False
THRESH                    12
SCF_CONVERGENCE           8
MAX_SUB_FILE_NUM          128
MEM_STATIC                400
MEM_TOTAL                 4000
$end
--------------------------------------------------------------

   16   -1510.2904491017      7.16E-09 Convergence criterion met
 Total energy in the final basis set = -1510.29044910
   14   -1510.2812835329      4.96E-09 Convergence criterion met
 Total energy in the final basis set = -1510.28128353
   14   -1510.2755120806      5.32E-09 Convergence criterion met
 Total energy in the final basis set = -1510.27551208
   14   -1510.2107749703      9.42E-09 Convergence criterion met
 Total energy in the final basis set = -1510.21077497
   15   -1510.2709132925      5.88E-09 Convergence criterion met
 Total energy in the final basis set = -1510.27091329
   13   -1510.2777882348      8.94E-09 Convergence criterion met
 Total energy in the final basis set = -1510.27778823
   13   -1510.2812913226      7.08E-09 Convergence criterion met
 Total energy in the final basis set = -1510.28129132
   14   -1510.2857028885      6.45E-09 Convergence criterion met
   11   -1510.2945364572      4.59E-09 Convergence criterion met
 Total energy in the final basis set = -1510.29453646
   11   -1510.2945454171      4.20E-09 Convergence criterion met
 Total energy in the final basis set = -1510.29454542
   11   -1510.2945363370      9.80E-09 Convergence criterion met
 Total energy in the final basis set = -1510.29453634
    9   -1510.2945345890      4.77E-09 Convergence criterion met
 Total energy in the final basis set = -1510.29453459
    9   -1510.2945328871      5.37E-09 Convergence criterion met
 Total energy in the final basis set = -1510.29453289
    9   -1510.2945312515      6.95E-09 Convergence criterion met
 Total energy in the final basis set = -1510.29453125

             Standard Nuclear Orientation (Angstroms)
    I     Atom           X                Y                Z
 ----------------------------------------------------------------
    1      O       2.5988767125     0.7316979020     2.5627020311
    2      C       2.9116179114     1.1562251820     1.4277349706
    3      C       3.7352768042     0.3539534795     0.3500092672
    4      C       3.0930956962    -1.0625124192     0.0243559380
    5      C       1.7132332107    -1.3018597315     0.7213704679
    6      O       1.7362575650    -2.6067655234     1.3136203203
    7      C       0.4306814585    -2.9079767537     1.9445425552
    8      C      -0.6786355407    -3.2910413842     0.8823103684
    9      O      -1.8783978327    -2.4469271222     1.0698429871
   10      C      -2.0087490970    -1.5013374999    -0.0084530149
   11      C      -3.3020228919    -0.6695433303     0.2711782892
   12      C      -3.0928156339     0.8925580080     0.4786505731
   13      C      -1.6180361939     1.4222439415     0.3609337197
   14      O      -0.9429810490     1.8770438359     1.3157037319
   15      O       2.5926165937     2.4531258576     0.9355952912
   16      O      -1.2329196978     1.3886520482    -1.0005745516
   17      O      -1.2357551827    -1.4511743007    -0.9887641639
   18      C       0.0999769596     2.0000793222    -1.2276373152
   19      C      -4.2864298469    -0.6757538148    -0.9805245106
   20      C      -5.7234523083    -0.2602178474    -0.4716634019
   21      C      -5.5296047987     1.2863098595    -0.2533824745
   22      C      -4.0185539617     1.4675776084    -0.6809952227
   23      O      -3.8481309649     0.4890743030    -1.7774775633
   24      H      -3.7840324083    -1.1120835201     1.1605158575
   25      H      -3.4598356688     1.1916425525     1.4765286654
   26      H      -4.2476805817    -1.5987527169    -1.5907052939
   27      H      -6.4804917200    -0.4677706718    -1.2445609620
   28      H      -6.0058888439    -0.7899870186     0.4518645145
   29      H      -6.1887889095     1.8731754212    -0.9128126964
   30      H      -5.7059188512     1.5961797447     0.7889859729
   31      H      -3.7441096589     2.4835600094    -1.0241405753
   32      O       0.7274230263    -0.5335451844     0.7453584077
   33      C       1.6848810447     3.1451695271     1.8871475967
   34      C       3.7544041163     1.0176027827    -1.0871357245
   35      C       4.9192918471     0.3623214344    -1.9252426714
   36      C       4.3107871181    -1.0547988378    -2.2432507010
   37      C       2.8979081343    -0.9457020221    -1.5493250884
   38      O       2.5340370804     0.4770961649    -1.7358683043
   39      H       4.7614178383     0.2221630771     0.7402803012
   40      H       3.7686970099    -1.8932203432     0.2917406538
   41      H       2.0513627625     3.0573491543     2.9287026927
   42      H       3.7259207552     2.1234566345    -1.0768766937
   43      H       5.1026129111     0.9376926428    -2.8467704263
   44      H       5.8588002769     0.3034661460    -1.3527597017
   45      H       4.1955443501    -1.2116213611    -3.3275697051
   46      H       4.9107163112    -1.8798285365    -1.8274818482
   47      H       2.1088491719    -1.6016358478    -1.9662791593
   48      H       0.6603814461     2.7072458731     1.8029412897
   49      H       1.6759641552     4.2067000648     1.5797283284
   50      H       0.0461269771     2.4795935022    -2.2231838103
   51      H       0.9153551539     1.2342665131    -1.2386618956
   52      H       0.3233061054     2.7636280117    -0.4602839560
   53      H      -0.2896256328    -3.1318405092    -0.1481912273
   54      H      -0.9906463085    -4.3477598056     1.0070104718
   55      H       0.0666804562    -2.0361012509     2.5305353826
   56      H       0.6261720609    -3.7562001276     2.6293700818
 ----------------------------------------------------------------

    9   -1510.2945301108      4.55E-09 Convergence criterion met
 Total energy in the final basis set = -1510.29453011
 Final energy is   -1510.29453011084
 **  OPTIMIZATION CONVERGED  **

                    Orbital Energies (a.u.)
 --------------------------------------------------------------

 Alpha MOs
 -- Occupied --
-18.932 -18.926 -18.923 -18.922 -18.901 -18.885 -18.875 -18.873
-18.862 -18.859 -10.097 -10.094 -10.090 -10.090 -10.069 -10.065
-10.065 -10.061 -10.056 -10.055 -10.037 -10.035 -10.034 -10.033
-10.030 -10.024 -10.023 -10.022 -10.017 -10.016  -1.013  -1.004
 -0.999  -0.995  -0.977  -0.965  -0.937  -0.930  -0.923  -0.922
 -0.764  -0.757  -0.726  -0.719  -0.711  -0.704  -0.693  -0.646
 -0.639  -0.617  -0.592  -0.577  -0.547  -0.540  -0.538  -0.533
 -0.509  -0.507  -0.477  -0.467  -0.462  -0.455  -0.447  -0.439
 -0.436  -0.429  -0.427  -0.413  -0.405  -0.397  -0.392  -0.387
 -0.383  -0.374  -0.367  -0.359  -0.358  -0.354  -0.344  -0.341
 -0.336  -0.336  -0.331  -0.327  -0.324  -0.322  -0.320  -0.311
 -0.305  -0.303  -0.300  -0.296  -0.291  -0.283  -0.274  -0.272
 -0.270  -0.257  -0.243  -0.242  -0.236  -0.231  -0.229  -0.181
 -0.166  -0.165  -0.163  -0.153  -0.150  -0.146  -0.141  -0.139
 -0.137

          Ground-State Mulliken Net Atomic Charges

     Atom                 Charge (a.u.)
  ----------------------------------------
      1 O                    -0.218979
      2 C                     0.210620
      3 C                    -0.079543
      4 C                    -0.079815
      5 C                     0.211792
      6 O                    -0.171770
      7 C                    -0.052191
      8 C                    -0.057890
      9 O                    -0.175012
     10 C                     0.212705
     11 C                    -0.078302
     12 C                    -0.077846
     13 C                     0.218236
     14 O                    -0.220819
     15 O                    -0.173964
     16 O                    -0.159400
     17 O                    -0.203637
     18 C                    -0.145298
     19 C                     0.026776
     20 C                    -0.143938
     21 C                    -0.144480
     22 C                     0.027547
     23 O                    -0.182179
     24 H                     0.086038
     25 H                     0.083138
     26 H                     0.082609
     27 H                     0.077154
     28 H                     0.073182
     29 H                     0.077082
     30 H                     0.073251
     31 H                     0.084048
     32 O                    -0.210143
     33 C                    -0.147426
     34 C                     0.024665
     35 C                    -0.143437
     36 C                    -0.143412
     37 C                     0.027242
     38 O                    -0.184873
     39 H                     0.083843
     40 H                     0.087193
     41 H                     0.085222
     42 H                     0.095854
     43 H                     0.079044
     44 H                     0.074524
     45 H                     0.079767
     46 H                     0.075284
     47 H                     0.089178
     48 H                     0.118560
     49 H                     0.078715
     50 H                     0.078694
     51 H                     0.116642
     52 H                     0.083614
     53 H                     0.099356
     54 H                     0.083818
     55 H                     0.100121
     56 H                     0.088842
  ----------------------------------------
  Sum of atomic charges =    -0.000000

                    Cartesian Multipole Moments
 -----------------------------------------------------------------
    Charge (ESU x 10^10)
                -0.0000
    Dipole Moment (Debye)
         X       0.4597      Y      -1.2756      Z       0.0099
       Tot       1.3559
    Quadrupole Moments (Debye-Ang)
        XX    -138.0767     XY      -0.5164     YY    -148.9960
        XZ      -9.0455     YZ      -0.6499     ZZ    -167.3474

 Total job time:  143.60s(wall), 6856.01s(cpu)
        *  Thank you very much for using Q-Chem.  Have a nice day.  *
