 Q-Chem 5.0, Q-Chem, Inc., Pleasanton, CA (2017)
 Q-Chem 5.0.1 for Intel X86 EM64T Linux

User input:
--------------------------------------------------------------
$molecule
0  1
O -3.94934 -3.66094 2.70899
C -3.26408 -4.56952 2.26188
C -3.36658 -6.02376 2.66595
C -4.77849 -6.60562 2.84426
C -5.9309 -5.71931 2.42654
O -6.99835 -5.92573 3.2532
C -8.06981 -5.0029 3.03048
C -8.87164 -5.41539 1.80042
O -8.84687 -4.36213 0.82425
C -8.46444 -4.73207 -0.42316
C -8.46247 -3.58293 -1.40302
C -7.29276 -2.60038 -1.24602
C -6.1317 -3.08485 -0.40108
O -5.45004 -2.38563 0.33445
O -2.11455 -4.22108 1.61951
O -5.60055 -4.23379 -0.90777
O -8.26531 -5.89064 -0.76917
C -4.26385 -4.47509 -1.12012
C -8.28851 -3.97809 -2.89025
C -8.88318 -2.88661 -3.78095
C -7.87614 -1.77226 -3.5732
C -6.83527 -2.50267 -2.7165
O -6.91548 -3.8388 -3.15103
H -9.45878 -3.09364 -1.31007
H -7.61055 -1.61681 -0.83496
H -8.73921 -4.96193 -3.14439
H -8.79982 -3.24849 -4.83114
H -9.94069 -2.61458 -3.57486
H -7.45348 -1.49224 -4.5635
H -8.26563 -0.86992 -3.05383
H -5.83788 -2.01881 -2.8095
O -5.9951 -5.14019 1.36738
C -1.7434 -2.92569 1.31986
C -2.83294 -6.96618 1.55871
C -2.46236 -8.32491 2.15551
C -3.83579 -8.90775 2.39894
C -4.7137 -7.78118 1.85041
O -3.96422 -7.26235 0.78203
H -2.7359 -6.14017 3.5751
H -4.96246 -6.98578 3.87544
H -1.6333 -2.33324 2.25302
H -1.95826 -6.56468 1.00387
H -1.96214 -8.92455 1.36158
H -1.80207 -8.2693 3.04764
H -3.95266 -9.81224 1.76083
H -4.06722 -9.15986 3.45636
H -5.72221 -8.17463 1.59125
H -2.50124 -2.44907 0.66236
H -0.76959 -2.94046 0.78915
H -4.14186 -5.49077 -1.54841
H -3.70889 -4.42166 -0.18564
H -3.85406 -3.73131 -1.83566
H -8.59896 -6.43912 1.4582
H -9.93638 -5.49553 2.11118
H -7.75343 -3.93476 3.04081
H -8.74302 -5.12591 3.90662
$end

$opt
CONSTRAINT
tors           1           2           3           4     +41.855
tors           3           4           5           6    -145.481
tors           4           5           6           7    +172.490
tors           5           6           7           8     +78.508
tors           6           7           8           9    -120.516
tors           7           8           9          10    +127.852
tors           8           9          10          11    +179.839
tors           9          10          11          12     +74.869
tors          11          12          13          14    -144.827
ENDCONSTRAINT
$end

$rem
JOBTYPE                   OPT
METHOD                    B3LYP
DFT_D                     d3_op
BASIS                     STO-3G
GEOM_OPT_MAX_CYCLES       100
GEOM_OPT_TOL_GRADIENT     300
GEOM_OPT_TOL_DISPLACEMENT 1200
GEOM_OPT_TOL_ENERGY       100
SYMMETRY                  False
THRESH                    12
SCF_CONVERGENCE           8
MAX_SUB_FILE_NUM          128
MEM_STATIC                400
MEM_TOTAL                 4000
$end
--------------------------------------------------------------

   15   -1510.1342511193      7.69E-09 Convergence criterion met
 Total energy in the final basis set = -1510.13425112
   14   -1510.2056376432      5.45E-09 Convergence criterion met
 Total energy in the final basis set = -1510.20563764
   15   -1510.2352025916      2.88E-09 Convergence criterion met
 Total energy in the final basis set = -1510.23520259
   15   -1510.2650077427      1.83E-09 Convergence criterion met
 Total energy in the final basis set = -1510.26500774
   14   -1510.2658912462      5.52E-09 Convergence criterion met
 Total energy in the final basis set = -1510.26589125
   13   -1510.2782857613      8.68E-09 Convergence criterion met
 Total energy in the final basis set = -1510.27828576
   13   -1510.2800353957      9.14E-09 Convergence criterion met
 Total energy in the final basis set = -1510.28003540
   13   -1510.2837462068      6.16E-09 Convergence criterion met
   11   -1510.2903524883      4.02E-09 Convergence criterion met
 Total energy in the final basis set = -1510.29035249
   11   -1510.2903786461      4.60E-09 Convergence criterion met
 Total energy in the final basis set = -1510.29037865
   11   -1510.2904124721      6.06E-09 Convergence criterion met
 Total energy in the final basis set = -1510.29041247
   10   -1510.2904248993      9.25E-09 Convergence criterion met
 Total energy in the final basis set = -1510.29042490
    9   -1510.2904256335      6.15E-09 Convergence criterion met
 Total energy in the final basis set = -1510.29042563
    9   -1510.2904273519      4.51E-09 Convergence criterion met
 Total energy in the final basis set = -1510.29042735

             Standard Nuclear Orientation (Angstroms)
    I     Atom           X                Y                Z
 ----------------------------------------------------------------
    1      O      -2.3255694951    -0.9505807861     2.3431384711
    2      C      -2.7587565049    -1.2960650735     1.2217954518
    3      C      -3.6216024605    -0.4004041805     0.2562017989
    4      C      -3.1227455305     1.1003052758     0.1702771461
    5      C      -1.6768249368     1.3194085869     0.7354826890
    6      O      -1.6287166545     2.6107899495     1.3508810518
    7      C      -0.3367335590     2.7841601586     2.0546554112
    8      C       0.8548074702     3.1344086195     1.0796455147
    9      O       1.9276772957     2.1164097766     1.1595292010
   10      C       2.2652828972     1.6247173627    -0.1499017730
   11      C       3.4021223568     0.5653903957     0.0400246677
   12      C       3.0033100002    -0.8545230608     0.6172233706
   13      C       1.5117247645    -1.3033764898     0.4117903845
   14      O       0.8440247576    -1.9798748916     1.2298099489
   15      O      -2.5951027255    -2.5962215903     0.6600503723
   16      O       1.1164178231    -0.9310127963    -0.8974670223
   17      O       1.7451156675     2.0357930919    -1.2087410399
   18      C      -0.1631998100    -1.5602307049    -1.3074704208
   19      C       4.1920683890     0.1658282741    -1.2814945092
   20      C       5.6706875728    -0.1667087127    -0.8405415360
   21      C       5.4352641841    -1.5026345768    -0.0399453960
   22      C       3.9025936385    -1.7740478271    -0.3263034738
   23      O       3.6697424201    -1.1679729886    -1.6559672511
   24      H       4.1066668156     1.0288842098     0.7558815174
   25      H       3.2595324602    -0.9539434451     1.6861913805
   26      H       4.0785355631     0.8782281958    -2.1214168971
   27      H       6.3045332007    -0.3364970201    -1.7259343921
   28      H       6.1229883338     0.6284308021    -0.2268044559
   29      H       6.0550083473    -2.3263332373    -0.4278547800
   30      H       5.6349384775    -1.3888903999     1.0378035313
   31      H       3.6091673598    -2.8420002753    -0.3300846846
   32      O      -0.6946366616     0.5520304300     0.6603693630
   33      C      -1.7428838741    -3.4229242920     1.5551815551
   34      C      -3.6285719123    -0.8221133423    -1.2736043959
   35      C      -4.9282294966    -0.2209573217    -1.9326648024
   36      C      -4.5656142540     1.3119627908    -1.9685375417
   37      C      -3.0894960855     1.2976879019    -1.4073998998
   38      O      -2.5534163035    -0.0002435768    -1.8822802378
   39      H      -4.6558219576    -0.4185099171     0.6486768370
   40      H      -3.8111363508     1.8065368476     0.6650216873
   41      H      -2.1587657325    -3.4652596599     2.5812800036
   42      H      -3.4419823406    -1.8986698994    -1.4489662662
   43      H      -5.0657495595    -0.6250319479    -2.9484321866
   44      H      -5.8335546926    -0.4329378804    -1.3417092944
   45      H      -4.5837272530     1.7087168718    -2.9959846734
   46      H      -5.2361830932     1.9217634427    -1.3419676336
   47      H      -2.4455190900     2.1299415446    -1.7524326961
   48      H      -0.7101345432    -3.0007538872     1.5813799330
   49      H      -1.7372884856    -4.4353243758     1.1121046384
   50      H       0.0375790740    -2.1347740741    -2.2330046150
   51      H      -0.9356280542    -0.7790623958    -1.5090939175
   52      H      -0.5384435979    -2.2393739641    -0.5211566283
   53      H       0.5007806367     3.1918443198     0.0257131912
   54      H       1.2924857707     4.1159619873     1.3601848660
   55      H      -0.0735746782     1.8653956955     2.6230643292
   56      H      -0.5069351274     3.6188358200     2.7628320830
 ----------------------------------------------------------------

    9   -1510.2904282505      2.26E-09 Convergence criterion met
 Total energy in the final basis set = -1510.29042825
 Final energy is   -1510.29042825054
 **  OPTIMIZATION CONVERGED  **

                    Orbital Energies (a.u.)
 --------------------------------------------------------------

 Alpha MOs
 -- Occupied --
-18.932 -18.925 -18.925 -18.918 -18.903 -18.882 -18.875 -18.874
-18.863 -18.858 -10.099 -10.096 -10.092 -10.088 -10.070 -10.068
-10.063 -10.063 -10.055 -10.053 -10.040 -10.037 -10.037 -10.031
-10.030 -10.025 -10.024 -10.019 -10.016 -10.015  -1.014  -1.004
 -1.001  -0.992  -0.980  -0.963  -0.937  -0.931  -0.925  -0.919
 -0.767  -0.757  -0.727  -0.719  -0.712  -0.703  -0.692  -0.648
 -0.637  -0.616  -0.593  -0.577  -0.549  -0.542  -0.538  -0.532
 -0.511  -0.504  -0.478  -0.468  -0.462  -0.452  -0.449  -0.440
 -0.435  -0.426  -0.425  -0.416  -0.406  -0.399  -0.393  -0.386
 -0.385  -0.376  -0.368  -0.359  -0.358  -0.355  -0.347  -0.341
 -0.338  -0.336  -0.332  -0.326  -0.324  -0.320  -0.317  -0.314
 -0.305  -0.301  -0.299  -0.297  -0.293  -0.285  -0.277  -0.273
 -0.265  -0.255  -0.244  -0.241  -0.240  -0.228  -0.226  -0.184
 -0.166  -0.165  -0.163  -0.154  -0.152  -0.149  -0.141  -0.139
 -0.134

          Ground-State Mulliken Net Atomic Charges

     Atom                 Charge (a.u.)
  ----------------------------------------
      1 O                    -0.215489
      2 C                     0.212226
      3 C                    -0.080048
      4 C                    -0.078990
      5 C                     0.213537
      6 O                    -0.173816
      7 C                    -0.050774
      8 C                    -0.057155
      9 O                    -0.174889
     10 C                     0.217622
     11 C                    -0.077757
     12 C                    -0.075194
     13 C                     0.221481
     14 O                    -0.224944
     15 O                    -0.175012
     16 O                    -0.161393
     17 O                    -0.208084
     18 C                    -0.149334
     19 C                     0.025848
     20 C                    -0.142201
     21 C                    -0.145313
     22 C                     0.025185
     23 O                    -0.184296
     24 H                     0.082683
     25 H                     0.084981
     26 H                     0.088420
     27 H                     0.076879
     28 H                     0.072010
     29 H                     0.077095
     30 H                     0.073108
     31 H                     0.081124
     32 O                    -0.209307
     33 C                    -0.145685
     34 C                     0.024618
     35 C                    -0.142416
     36 C                    -0.143769
     37 C                     0.027124
     38 O                    -0.185421
     39 H                     0.083971
     40 H                     0.088595
     41 H                     0.083176
     42 H                     0.096540
     43 H                     0.079679
     44 H                     0.074972
     45 H                     0.080253
     46 H                     0.075642
     47 H                     0.087425
     48 H                     0.118595
     49 H                     0.080892
     50 H                     0.075019
     51 H                     0.112616
     52 H                     0.088061
     53 H                     0.101220
     54 H                     0.080646
     55 H                     0.101252
     56 H                     0.088796
  ----------------------------------------
  Sum of atomic charges =    -0.000000

                    Cartesian Multipole Moments
 -----------------------------------------------------------------
    Charge (ESU x 10^10)
                -0.0000
    Dipole Moment (Debye)
         X      -0.9394      Y       1.1731      Z       0.5397
       Tot       1.5969
    Quadrupole Moments (Debye-Ang)
        XX    -136.1287     XY      -0.7457     YY    -151.3766
        XZ       7.8432     YZ       2.3820     ZZ    -166.4565

 Total job time:  93.55s(wall), 4460.21s(cpu)
        *  Thank you very much for using Q-Chem.  Have a nice day.  *
