 Q-Chem 5.0, Q-Chem, Inc., Pleasanton, CA (2017)
 Q-Chem 5.0.1 for Intel X86 EM64T Linux

User input:
--------------------------------------------------------------
$molecule
0  1
O -2.3407247663 -0.9193986603 2.2868155512
C -2.8211593418 -1.2653333071 1.1848056887
C -3.6610500867 -0.3456018253 0.2213425902
C -3.119030267 1.1419724894 0.1513457923
C -1.6895078911 1.316004661 0.7675707042
O -1.638561717 2.5726624967 1.4527033213
C -0.3181364908 2.7203456229 2.1083215289
C 0.832009489 3.1010069457 1.0965171613
O 1.9106249241 2.0885717449 1.171894675
C 2.2673108249 1.6114473755 -0.1365627992
C 3.4084973676 0.5596611283 0.0701842348
C 2.9936955356 -0.8665614422 0.6231266962
C 1.5064748804 -1.315336216 0.3823703472
O 0.8375050223 -2.0383169353 1.1593552146
O -2.7017496363 -2.5712998604 0.6281417301
O 1.12368972 -0.9030784669 -0.9186733759
O 1.7599004224 2.0275603222 -1.1992524093
C -0.1404564464 -1.5401300504 -1.3642033053
C 4.2282984927 0.1722282261 -1.2360743055
C 5.6948761487 -0.1719817159 -0.7642219225
C 5.4363021316 -1.5184202612 0.0110541577
C 3.9091911651 -1.7783212375 -0.3123426609
O 3.7081648909 -1.1541645956 -1.6388034719
H 4.0933938957 1.0189054055 0.8071618355
H 3.2284347788 -0.9792911444 1.6957361879
H 4.1384492511 0.894861322 -2.0701405568
H 6.3498618112 -0.3310754005 -1.6360638416
H 6.1342269723 0.6128879017 -0.1282690364
H 6.0604710001 -2.3391282734 -0.3761202739
H 5.6132671066 -1.4219943952 1.0944329284
H 3.6111134423 -2.8447354285 -0.3360440864
O -0.7051795404 0.5560570381 0.6490483895
C -1.8182265157 -3.4004373457 1.4897472032
C -3.6562859951 -0.7590545244 -1.3097203959
C -4.9183133485 -0.1057015185 -1.9918299657
C -4.4947264518 1.4114455676 -2.0204522475
C -3.0339148013 1.3394755067 -1.4245584151
O -2.5374989909 0.0233581253 -1.8908585851
H -4.6994898336 -0.3413322312 0.602705726
H -3.8046664962 1.8653070849 0.6248206555
H -2.1997834838 -3.4501879611 2.5289383977
H -3.5071677165 -1.841251125 -1.4867708713
H -5.0533251934 -0.5041397317 -3.0101491359
H -5.8418890893 -0.2815406825 -1.417476229
H -4.4728541531 1.8072442576 -3.0481913528
H -5.1551360921 2.047842783 -1.4098528918
H -2.349226954 2.1464046473 -1.7510270643
H -0.7834943641 -2.98065153 1.4870827572
H -1.8265163851 -4.4106480054 1.0416214556
H 0.0719016424 -2.0373339664 -2.3307723267
H -0.9410120639 -0.7729925069 -1.5041486267
H -0.4787178835 -2.2897146979 -0.6263022453
H 0.4520700939 3.1447091375 0.05143203
H 1.2618815088 4.0907531528 1.3597911681
H -0.0303306309 1.7802510753 2.6272909055
H -0.4569924794 3.5262794215 2.8554662348
$end

$rem
JOBTYPE                   OPT
METHOD                    B3LYP
DFT_D                     d3_op
BASIS                     STO-3G
GEOM_OPT_MAX_CYCLES       100
GEOM_OPT_TOL_GRADIENT     300
GEOM_OPT_TOL_DISPLACEMENT 1200
GEOM_OPT_TOL_ENERGY       100
SYMMETRY                  False
THRESH                    12
SCF_CONVERGENCE           8
MAX_SUB_FILE_NUM          128
MEM_STATIC                400
MEM_TOTAL                 4000
$end
--------------------------------------------------------------

   16   -1510.2911599874      7.46E-09 Convergence criterion met
 Total energy in the final basis set = -1510.29115999
   14   -1510.2846006036      2.68E-09 Convergence criterion met
 Total energy in the final basis set = -1510.28460060
   14   -1510.2783713887      3.36E-09 Convergence criterion met
 Total energy in the final basis set = -1510.27837139
   15   -1510.1424460646      8.55E-09 Convergence criterion met
 Total energy in the final basis set = -1510.14244606
   14   -1510.2487641620      9.77E-09 Convergence criterion met
 Total energy in the final basis set = -1510.24876416
   15   -1510.2738337490      3.66E-09 Convergence criterion met
 Total energy in the final basis set = -1510.27383375
   14   -1510.2775486155      4.71E-09 Convergence criterion met
 Total energy in the final basis set = -1510.27754862
   13   -1510.2803496726      7.77E-09 Convergence criterion met
    9   -1510.2947177047      3.38E-09 Convergence criterion met
 Total energy in the final basis set = -1510.29471770
    9   -1510.2947244846      5.17E-09 Convergence criterion met
 Total energy in the final basis set = -1510.29472448
    9   -1510.2947254472      4.69E-09 Convergence criterion met
 Total energy in the final basis set = -1510.29472545
    9   -1510.2947261710      8.43E-09 Convergence criterion met
 Total energy in the final basis set = -1510.29472617
   10   -1510.2947256049      6.38E-09 Convergence criterion met
 Total energy in the final basis set = -1510.29472560
    9   -1510.2947296053      7.72E-09 Convergence criterion met
 Total energy in the final basis set = -1510.29472961

             Standard Nuclear Orientation (Angstroms)
    I     Atom           X                Y                Z
 ----------------------------------------------------------------
    1      O      -2.1575918789    -0.4280684211     2.3369312079
    2      C      -2.7416835417    -1.0137241187     1.3966560570
    3      C      -3.6660281430    -0.3195111101     0.3281365783
    4      C      -3.0849922988     1.0880639217    -0.1261140249
    5      C      -1.6709805313     1.3677867654     0.4907000115
    6      O      -1.7671546735     2.4968075216     1.3660257415
    7      C      -0.4805425170     2.6950761721     2.0728018933
    8      C       0.6837903413     3.2224471452     1.1389017263
    9      O       1.8560958469     2.3263981343     1.2517067090
   10      C       2.1208144345     1.6612668673     0.0049281488
   11      C       3.3697806698     0.7473829977     0.2337908741
   12      C       3.0794720601    -0.8053795354     0.4328259321
   13      C       1.5784188663    -1.2660392880     0.3380022766
   14      O       0.8579104232    -1.5728688236     1.3184988109
   15      O      -2.6561459533    -2.4117564306     1.1463035345
   16      O       1.2181794054    -1.3783137405    -1.0274634302
   17      O       1.4875891249     1.8667555976    -1.0523516471
   18      C      -0.1232016752    -1.9885764259    -1.2054192892
   19      C       4.3196723088     0.7146492008    -1.0402539335
   20      C       5.7481446792     0.2338462605    -0.5676367314
   21      C       5.4867071415    -1.3009271258    -0.3392149676
   22      C       3.9615600459    -1.4159505387    -0.7412999798
   23      O       3.8135564341    -0.4272452617    -1.8318603401
   24      H       3.8991052180     1.1418952416     1.1187148454
   25      H       3.4430059384    -1.1266641376     1.4253621361
   26      H       4.3031663280     1.6409803354    -1.6461546922
   27      H       6.4941141471     0.4030938090    -1.3603567841
   28      H       6.0792786206     0.7514984403     0.3465984372
   29      H       6.1073378506    -1.9203899761    -1.0062015994
   30      H       5.6659476887    -1.6146086830     0.7015517471
   31      H       3.6381907943    -2.4182152444    -1.0821307740
   32      O      -0.6139438606     0.7411191595     0.2627496221
   33      C      -1.6556094148    -3.0178454779     2.0638725836
   34      C      -3.7376157337    -1.0859382598    -1.0560192013
   35      C      -4.9706562361    -0.5350532204    -1.8699866931
   36      C      -4.4404129304     0.8834969515    -2.3032354507
   37      C      -2.9845781235     0.8709138031    -1.6935824967
   38      O      -2.5772180642    -0.5492521803    -1.8086234781
   39      H      -4.6734506139    -0.2018527270     0.7689757267
   40      H      -3.7621737662     1.9179331824     0.1394468103
   41      H      -1.9612367266    -2.9069098357     3.1234674906
   42      H      -3.6648676825    -2.1864103147    -0.9647840563
   43      H      -5.1721786459    -1.1741432688    -2.7445917829
   44      H      -5.8830404179    -0.4799905429    -1.2548930921
   45      H      -4.3992908001     0.9829526357    -3.3995022232
   46      H      -5.0487329764     1.7065616110    -1.8956600268
   47      H      -2.2484184843     1.5220721028    -2.2035587360
   48      H      -0.6590806564    -2.5388340518     1.9047135154
   49      H      -1.6201220876    -4.0903885167     1.7997498334
   50      H      -0.0693787397    -2.5626700970    -2.1495226080
   51      H      -0.9294292943    -1.2178662042    -1.2939449064
   52      H      -0.3613694781    -2.6722792761    -0.3697023663
   53      H       0.3559998633     3.2505364089     0.0761494361
   54      H       1.0039312367     4.2365264696     1.4556287376
   55      H      -0.1473364624     1.7419237066     2.5397422487
   56      H      -0.7042689036     3.4317850224     2.8690428222
 ----------------------------------------------------------------

    9   -1510.2947287878      5.25E-09 Convergence criterion met
 Total energy in the final basis set = -1510.29472879
 Final energy is   -1510.29472878778
 **  OPTIMIZATION CONVERGED  **

                    Orbital Energies (a.u.)
 --------------------------------------------------------------

 Alpha MOs
 -- Occupied --
-18.929 -18.928 -18.923 -18.922 -18.901 -18.881 -18.871 -18.867
-18.866 -18.861 -10.095 -10.093 -10.092 -10.090 -10.065 -10.064
-10.062 -10.061 -10.053 -10.052 -10.040 -10.038 -10.036 -10.031
-10.029 -10.025 -10.024 -10.023 -10.015 -10.014  -1.011  -1.004
 -0.999  -0.995  -0.978  -0.963  -0.933  -0.929  -0.926  -0.921
 -0.765  -0.755  -0.725  -0.717  -0.710  -0.702  -0.690  -0.650
 -0.639  -0.614  -0.592  -0.576  -0.547  -0.540  -0.537  -0.531
 -0.509  -0.505  -0.476  -0.466  -0.462  -0.451  -0.450  -0.438
 -0.434  -0.428  -0.426  -0.414  -0.407  -0.396  -0.391  -0.386
 -0.385  -0.373  -0.367  -0.362  -0.356  -0.351  -0.345  -0.344
 -0.336  -0.334  -0.331  -0.326  -0.324  -0.321  -0.318  -0.312
 -0.305  -0.300  -0.298  -0.295  -0.291  -0.281  -0.275  -0.271
 -0.268  -0.254  -0.247  -0.240  -0.238  -0.231  -0.227  -0.177
 -0.169  -0.165  -0.161  -0.151  -0.149  -0.146  -0.143  -0.139
 -0.135

          Ground-State Mulliken Net Atomic Charges

     Atom                 Charge (a.u.)
  ----------------------------------------
      1 O                    -0.214140
      2 C                     0.211401
      3 C                    -0.079308
      4 C                    -0.080390
      5 C                     0.212726
      6 O                    -0.171239
      7 C                    -0.050701
      8 C                    -0.056754
      9 O                    -0.174749
     10 C                     0.215303
     11 C                    -0.078198
     12 C                    -0.077316
     13 C                     0.218661
     14 O                    -0.222951
     15 O                    -0.173078
     16 O                    -0.160175
     17 O                    -0.204861
     18 C                    -0.146064
     19 C                     0.026159
     20 C                    -0.144033
     21 C                    -0.144775
     22 C                     0.027339
     23 O                    -0.182580
     24 H                     0.085070
     25 H                     0.082655
     26 H                     0.083990
     27 H                     0.076776
     28 H                     0.072428
     29 H                     0.076625
     30 H                     0.072429
     31 H                     0.084293
     32 O                    -0.215133
     33 C                    -0.144884
     34 C                     0.024125
     35 C                    -0.143216
     36 C                    -0.143582
     37 C                     0.026883
     38 O                    -0.185327
     39 H                     0.084788
     40 H                     0.086495
     41 H                     0.082673
     42 H                     0.095294
     43 H                     0.079311
     44 H                     0.074631
     45 H                     0.079800
     46 H                     0.075169
     47 H                     0.089824
     48 H                     0.119002
     49 H                     0.080943
     50 H                     0.078546
     51 H                     0.117363
     52 H                     0.080492
     53 H                     0.100902
     54 H                     0.081801
     55 H                     0.101906
     56 H                     0.087653
  ----------------------------------------
  Sum of atomic charges =    -0.000000

                    Cartesian Multipole Moments
 -----------------------------------------------------------------
    Charge (ESU x 10^10)
                -0.0000
    Dipole Moment (Debye)
         X      -1.0112      Y       0.4723      Z       0.7090
       Tot       1.3223
    Quadrupole Moments (Debye-Ang)
        XX    -137.3118     XY      -0.5500     YY    -149.6253
        XZ       8.1584     YZ       0.2255     ZZ    -165.9020

 Total job time:  136.12s(wall), 6495.16s(cpu)
        *  Thank you very much for using Q-Chem.  Have a nice day.  *
