 Q-Chem 5.0, Q-Chem, Inc., Pleasanton, CA (2017)
 Q-Chem 5.0.1 for Intel X86 EM64T Linux

User input:
--------------------------------------------------------------
$molecule
0  1
O -3.94934 -3.66094 2.70899
C -3.26408 -4.56952 2.26188
C -3.36658 -6.02376 2.66595
C -4.77604 -6.58772 2.90932
C -5.9351 -5.68486 2.54946
O -6.93723 -5.82855 3.46626
C -8.04321 -4.94985 3.23399
C -8.89562 -5.47103 2.08165
O -8.99803 -4.46992 1.05687
C -8.71614 -4.89187 -0.20076
C -8.84513 -3.79598 -1.23181
C -7.69646 -2.77678 -1.24035
C -6.44416 -3.18627 -0.49151
O -5.69211 -2.42605 0.10098
O -2.18243 -4.23069 1.50835
O -5.94079 -4.37204 -0.938
O -8.51142 -6.06072 -0.50692
C -4.60332 -4.65782 -1.09863
C -8.79757 -4.27097 -2.70499
C -9.50152 -3.24654 -3.59553
C -8.51012 -2.10083 -3.5464
C -7.37661 -2.75636 -2.74914
O -7.45803 -4.11706 -3.09793
H -9.84363 -3.3295 -1.07072
H -8.00058 -1.77783 -0.85711
H -9.24255 -5.27749 -2.86196
H -9.50657 -3.6668 -4.62711
H -10.54211 -2.98617 -3.3054
H -8.18624 -1.87222 -4.58595
H -8.87479 -1.1772 -3.04684
H -6.40543 -2.25677 -2.96148
O -6.04861 -5.0976 1.49408
C -1.87109 -2.94378 1.12016
C -2.89685 -6.97404 1.53648
C -2.51862 -8.33793 2.11704
C -3.88779 -8.90229 2.42109
C -4.77379 -7.763 1.91348
O -4.06612 -7.25504 0.81232
H -2.69435 -6.14976 3.54338
H -4.91475 -6.9688 3.94728
H -1.69961 -2.30506 2.01269
H -2.04226 -6.58522 0.94278
H -2.06186 -8.9446 1.30253
H -1.81908 -8.29093 2.97925
H -4.04588 -9.80361 1.78737
H -4.07486 -9.15389 3.48737
H -5.79869 -8.14157 1.70061
H -2.69395 -2.5181 0.50707
H -0.9448 -2.96226 0.51032
H -4.49584 -5.69452 -1.47719
H -4.07174 -4.57 -0.14495
H -4.15371 -3.95905 -1.83544
H -8.5734 -6.48862 1.76506
H -9.92853 -5.60964 2.46952
H -7.74165 -3.88212 3.13112
H -8.66717 -5.00068 4.15266
$end

$opt
CONSTRAINT
tors           1           2           3           4     +39.026
tors           3           4           5           6    -142.288
tors           4           5           6           7    +176.783
tors           5           6           7           8     +76.825
tors           6           7           8           9    -123.046
tors           7           8           9          10    +129.886
tors           8           9          10          11    +179.839
tors           9          10          11          12     +75.430
tors          11          12          13          14    -147.346
ENDCONSTRAINT
$end

$rem
JOBTYPE                   OPT
METHOD                    B3LYP
DFT_D                     d3_op
BASIS                     STO-3G
GEOM_OPT_MAX_CYCLES       100
GEOM_OPT_TOL_GRADIENT     300
GEOM_OPT_TOL_DISPLACEMENT 1200
GEOM_OPT_TOL_ENERGY       100
SYMMETRY                  False
THRESH                    12
SCF_CONVERGENCE           8
MAX_SUB_FILE_NUM          128
MEM_STATIC                400
MEM_TOTAL                 4000
$end
--------------------------------------------------------------

   16   -1510.1434093078      1.54E-09 Convergence criterion met
 Total energy in the final basis set = -1510.14340931
   14   -1510.2143611068      6.15E-09 Convergence criterion met
 Total energy in the final basis set = -1510.21436111
   15   -1510.2449767332      2.69E-09 Convergence criterion met
 Total energy in the final basis set = -1510.24497673
   15   -1510.2704177240      2.25E-09 Convergence criterion met
 Total energy in the final basis set = -1510.27041772
   14   -1510.2723655263      3.62E-09 Convergence criterion met
 Total energy in the final basis set = -1510.27236553
    2   -1510.2723655264      7.22E-09 Convergence criterion met
 Total energy in the final basis set = -1510.27236553
   14   -1510.2816097162      3.96E-09 Convergence criterion met
 Total energy in the final basis set = -1510.28160972
   14   -1510.2802899313      6.72E-09 Convergence criterion met
    9   -1510.2911639395      5.43E-09 Convergence criterion met
 Total energy in the final basis set = -1510.29116394
   11   -1510.2911822068      4.50E-09 Convergence criterion met
 Total energy in the final basis set = -1510.29118221
   11   -1510.2912054044      5.78E-09 Convergence criterion met
 Total energy in the final basis set = -1510.29120540
    9   -1510.2912164820      9.19E-09 Convergence criterion met
 Total energy in the final basis set = -1510.29121648
    9   -1510.2912229557      5.21E-09 Convergence criterion met
 Total energy in the final basis set = -1510.29122296
    9   -1510.2912245335      4.17E-09 Convergence criterion met
 Total energy in the final basis set = -1510.29122453

             Standard Nuclear Orientation (Angstroms)
    I     Atom           X                Y                Z
 ----------------------------------------------------------------
    1      O      -2.3407247663    -0.9193986603     2.2868155512
    2      C      -2.8211593418    -1.2653333071     1.1848056887
    3      C      -3.6610500867    -0.3456018253     0.2213425902
    4      C      -3.1190302670     1.1419724894     0.1513457923
    5      C      -1.6895078911     1.3160046610     0.7675707042
    6      O      -1.6385617170     2.5726624967     1.4527033213
    7      C      -0.3181364908     2.7203456229     2.1083215289
    8      C       0.8320094890     3.1010069457     1.0965171613
    9      O       1.9106249241     2.0885717449     1.1718946750
   10      C       2.2673108249     1.6114473755    -0.1365627992
   11      C       3.4084973676     0.5596611283     0.0701842348
   12      C       2.9936955356    -0.8665614422     0.6231266962
   13      C       1.5064748804    -1.3153362160     0.3823703472
   14      O       0.8375050223    -2.0383169353     1.1593552146
   15      O      -2.7017496363    -2.5712998604     0.6281417301
   16      O       1.1236897200    -0.9030784669    -0.9186733759
   17      O       1.7599004224     2.0275603222    -1.1992524093
   18      C      -0.1404564464    -1.5401300504    -1.3642033053
   19      C       4.2282984927     0.1722282261    -1.2360743055
   20      C       5.6948761487    -0.1719817159    -0.7642219225
   21      C       5.4363021316    -1.5184202612     0.0110541577
   22      C       3.9091911651    -1.7783212375    -0.3123426609
   23      O       3.7081648909    -1.1541645956    -1.6388034719
   24      H       4.0933938957     1.0189054055     0.8071618355
   25      H       3.2284347788    -0.9792911444     1.6957361879
   26      H       4.1384492511     0.8948613220    -2.0701405568
   27      H       6.3498618112    -0.3310754005    -1.6360638416
   28      H       6.1342269723     0.6128879017    -0.1282690364
   29      H       6.0604710001    -2.3391282734    -0.3761202739
   30      H       5.6132671066    -1.4219943952     1.0944329284
   31      H       3.6111134423    -2.8447354285    -0.3360440864
   32      O      -0.7051795404     0.5560570381     0.6490483895
   33      C      -1.8182265157    -3.4004373457     1.4897472032
   34      C      -3.6562859951    -0.7590545244    -1.3097203959
   35      C      -4.9183133485    -0.1057015185    -1.9918299657
   36      C      -4.4947264518     1.4114455676    -2.0204522475
   37      C      -3.0339148013     1.3394755067    -1.4245584151
   38      O      -2.5374989909     0.0233581253    -1.8908585851
   39      H      -4.6994898336    -0.3413322312     0.6027057260
   40      H      -3.8046664962     1.8653070849     0.6248206555
   41      H      -2.1997834838    -3.4501879611     2.5289383977
   42      H      -3.5071677165    -1.8412511250    -1.4867708713
   43      H      -5.0533251934    -0.5041397317    -3.0101491359
   44      H      -5.8418890893    -0.2815406825    -1.4174762290
   45      H      -4.4728541531     1.8072442576    -3.0481913528
   46      H      -5.1551360921     2.0478427830    -1.4098528918
   47      H      -2.3492269540     2.1464046473    -1.7510270643
   48      H      -0.7834943641    -2.9806515300     1.4870827572
   49      H      -1.8265163851    -4.4106480054     1.0416214556
   50      H       0.0719016424    -2.0373339664    -2.3307723267
   51      H      -0.9410120639    -0.7729925069    -1.5041486267
   52      H      -0.4787178835    -2.2897146979    -0.6263022453
   53      H       0.4520700939     3.1447091375     0.0514320300
   54      H       1.2618815088     4.0907531528     1.3597911681
   55      H      -0.0303306309     1.7802510753     2.6272909055
   56      H      -0.4569924794     3.5262794215     2.8554662348
 ----------------------------------------------------------------

    9   -1510.2912252220      2.17E-09 Convergence criterion met
 Total energy in the final basis set = -1510.29122522
 Final energy is   -1510.29122522203
 **  OPTIMIZATION CONVERGED  **

                    Orbital Energies (a.u.)
 --------------------------------------------------------------

 Alpha MOs
 -- Occupied --
-18.932 -18.925 -18.924 -18.918 -18.904 -18.882 -18.873 -18.873
-18.864 -18.858 -10.098 -10.095 -10.093 -10.088 -10.069 -10.068
-10.064 -10.064 -10.055 -10.053 -10.040 -10.038 -10.038 -10.031
-10.030 -10.026 -10.024 -10.020 -10.016 -10.015  -1.014  -1.004
 -1.001  -0.993  -0.981  -0.963  -0.936  -0.930  -0.925  -0.919
 -0.767  -0.757  -0.727  -0.719  -0.712  -0.703  -0.692  -0.648
 -0.637  -0.616  -0.593  -0.577  -0.549  -0.542  -0.538  -0.532
 -0.511  -0.504  -0.478  -0.468  -0.462  -0.452  -0.450  -0.440
 -0.435  -0.426  -0.426  -0.415  -0.406  -0.398  -0.393  -0.386
 -0.385  -0.375  -0.368  -0.359  -0.358  -0.355  -0.347  -0.341
 -0.338  -0.336  -0.332  -0.326  -0.324  -0.320  -0.317  -0.314
 -0.305  -0.301  -0.299  -0.296  -0.291  -0.285  -0.277  -0.274
 -0.265  -0.255  -0.244  -0.242  -0.240  -0.228  -0.226  -0.183
 -0.166  -0.166  -0.163  -0.153  -0.151  -0.149  -0.142  -0.139
 -0.134

          Ground-State Mulliken Net Atomic Charges

     Atom                 Charge (a.u.)
  ----------------------------------------
      1 O                    -0.215151
      2 C                     0.211862
      3 C                    -0.079943
      4 C                    -0.079434
      5 C                     0.213126
      6 O                    -0.172849
      7 C                    -0.050861
      8 C                    -0.056092
      9 O                    -0.175446
     10 C                     0.217874
     11 C                    -0.077816
     12 C                    -0.075100
     13 C                     0.221125
     14 O                    -0.225493
     15 O                    -0.174742
     16 O                    -0.161166
     17 O                    -0.208278
     18 C                    -0.148774
     19 C                     0.025809
     20 C                    -0.142273
     21 C                    -0.145275
     22 C                     0.025103
     23 O                    -0.184690
     24 H                     0.082796
     25 H                     0.084908
     26 H                     0.088234
     27 H                     0.076866
     28 H                     0.072039
     29 H                     0.077119
     30 H                     0.073176
     31 H                     0.081246
     32 O                    -0.211008
     33 C                    -0.145141
     34 C                     0.024759
     35 C                    -0.142501
     36 C                    -0.143658
     37 C                     0.027368
     38 O                    -0.184970
     39 H                     0.083965
     40 H                     0.088228
     41 H                     0.083157
     42 H                     0.096664
     43 H                     0.079789
     44 H                     0.075122
     45 H                     0.080365
     46 H                     0.075740
     47 H                     0.087638
     48 H                     0.118244
     49 H                     0.081073
     50 H                     0.075877
     51 H                     0.113715
     52 H                     0.085890
     53 H                     0.100520
     54 H                     0.080921
     55 H                     0.102029
     56 H                     0.088313
  ----------------------------------------
  Sum of atomic charges =    -0.000000

                    Cartesian Multipole Moments
 -----------------------------------------------------------------
    Charge (ESU x 10^10)
                -0.0000
    Dipole Moment (Debye)
         X      -0.9536      Y       1.2170      Z       0.5252
       Tot       1.6329
    Quadrupole Moments (Debye-Ang)
        XX    -136.3714     XY      -1.0013     YY    -151.6692
        XZ       8.3621     YZ       2.2524     ZZ    -166.0368

 Total job time:  107.93s(wall), 5148.49s(cpu)
        *  Thank you very much for using Q-Chem.  Have a nice day.  *
