 Q-Chem 5.0, Q-Chem, Inc., Pleasanton, CA (2017)
 Q-Chem 5.0.1 for Intel X86 EM64T Linux

User input:
--------------------------------------------------------------
$molecule
0  1
O -2.2205370576 -0.9344889964 2.2806394836
C -2.7505171352 -1.2920219272 1.2055999541
C -3.6439298826 -0.3931239794 0.2719530208
C -3.1702126414 1.1167758759 0.2064427698
C -1.722417972 1.3431951163 0.7610382055
O -1.6863593227 2.5888731272 1.4694823749
C -0.3545049934 2.7441812087 2.1021398817
C 0.7747480019 3.1010968246 1.057531804
O 1.8775922513 2.1198012876 1.1762638768
C 2.2556825443 1.6200669 -0.1181814926
C 3.4187163584 0.5990877735 0.1137925671
C 3.0091777966 -0.860557625 0.5812613156
C 1.5226183222 -1.3049100769 0.3323971791
O 0.8571352281 -2.0371623463 1.1035822186
O -2.6626508948 -2.6055370201 0.6600105975
O 1.1332923763 -0.8815086818 -0.9631024308
O 1.7465768675 2.0002956932 -1.1935470884
C -0.147336125 -1.4961009996 -1.3947710104
C 4.2899951529 0.2859829993 -1.1787495139
C 5.7379041832 -0.0952102744 -0.6781404385
C 5.4545420723 -1.4948743489 -0.0150635671
C 3.9344839565 -1.7177313964 -0.3941748692
O 3.7738901379 -1.006890241 -1.681341655
H 4.057858255 1.045267489 0.8975440273
H 3.2454480911 -1.029421024 1.6462672711
H 4.235017407 1.0586124598 -1.9700018148
H 6.4251559499 -0.1896809309 -1.5342810704
H 6.1510110442 0.640735197 0.0298818815
H 6.0833868478 -2.2872958314 -0.450681294
H 5.6059835182 -1.4849131789 1.0762869072
H 3.6281554741 -2.7772326158 -0.4948243503
O -0.7179904742 0.619925551 0.5905757691
C -1.7549201227 -3.4341138229 1.4960451449
C -3.6498198575 -0.79271328 -1.2638749507
C -4.9587992846 -0.2022166915 -1.9131881409
C -4.6195080213 1.3360978083 -1.9275928334
C -3.1425457229 1.3357652911 -1.3687203449
O -2.5858344545 0.0522973404 -1.8597622103
H -4.6746540653 -0.4390121384 0.6712563469
H -3.8664288434 1.8047687664 0.7156425445
H -2.1112056927 -3.4900526396 2.5439468479
H -3.448829475 -1.8644302861 -1.4526026647
H -5.0903271111 -0.5937312242 -2.9346511904
H -5.8604549631 -0.4366421543 -1.3251494788
H -4.6460202991 1.747710669 -2.9489710581
H -5.2974655371 1.926487671 -1.2904983013
H -2.5116555962 2.1821863559 -1.703212407
H -0.7229524387 -3.0095181051 1.4697719887
H -1.7704884951 -4.4425803611 1.0442433899
H 0.0389370813 -1.9741889047 -2.3761437335
H -0.9430146238 -0.7190241849 -1.5008077651
H -0.4774446341 -2.2577711581 -0.664873597
H 0.3866775559 3.0814480293 0.0150931827
H 1.1817691697 4.1141113115 1.2632758295
H -0.0597945495 1.81159058 2.63069565
H -0.4781265257 3.5624728037 2.8382553229
$end

$rem
JOBTYPE                   OPT
METHOD                    B3LYP
DFT_D                     d3_op
BASIS                     STO-3G
GEOM_OPT_MAX_CYCLES       100
GEOM_OPT_TOL_GRADIENT     300
GEOM_OPT_TOL_DISPLACEMENT 1200
GEOM_OPT_TOL_ENERGY       100
SYMMETRY                  False
THRESH                    12
SCF_CONVERGENCE           8
MAX_SUB_FILE_NUM          128
MEM_STATIC                400
MEM_TOTAL                 4000
$end
--------------------------------------------------------------

   16   -1510.2916387551      6.03E-09 Convergence criterion met
 Total energy in the final basis set = -1510.29163876
   14   -1510.2871077800      3.12E-09 Convergence criterion met
 Total energy in the final basis set = -1510.28710778
   14   -1510.2870679728      3.55E-09 Convergence criterion met
 Total energy in the final basis set = -1510.28706797
   16   -1509.5813365467      2.85E-09 Convergence criterion met
 Total energy in the final basis set = -1509.58133655
   16   -1510.2840790064      3.00E-09 Convergence criterion met
 Total energy in the final basis set = -1510.28407901
   14   -1510.2851316208      7.33E-09 Convergence criterion met
 Total energy in the final basis set = -1510.28513162
   15   -1510.2760810955      4.90E-09 Convergence criterion met
 Total energy in the final basis set = -1510.27608110
   14   -1510.2801143318      6.50E-09 Convergence criterion met
   12   -1510.2945722423      3.12E-09 Convergence criterion met
 Total energy in the final basis set = -1510.29457224
   12   -1510.2945419983      4.59E-09 Convergence criterion met
 Total energy in the final basis set = -1510.29454200
   11   -1510.2945581074      8.76E-09 Convergence criterion met
 Total energy in the final basis set = -1510.29455811
    9   -1510.2945554673      8.79E-09 Convergence criterion met
 Total energy in the final basis set = -1510.29455547
   11   -1510.2945496056      2.45E-09 Convergence criterion met
 Total energy in the final basis set = -1510.29454961
   10   -1510.2945464525      8.76E-09 Convergence criterion met
 Total energy in the final basis set = -1510.29454645

             Standard Nuclear Orientation (Angstroms)
    I     Atom           X                Y                Z
 ----------------------------------------------------------------
    1      O       2.5762888638     0.7461321332     2.5747505652
    2      C       2.8977704615     1.1740920119     1.4435172692
    3      C       3.7321082237     0.3761975144     0.3707723459
    4      C       3.1002921661    -1.0443230182     0.0426507997
    5      C       1.7176149456    -1.2908256867     0.7317332001
    6      O       1.7456362002    -2.5933582906     1.3289423934
    7      C       0.4384335357    -2.9002138262     1.9537363205
    8      C      -0.6643486640    -3.2900489556     0.8871116399
    9      O      -1.8688123679    -2.4514298650     1.0690416878
   10      C      -2.0016308497    -1.5099716851    -0.0125488682
   11      C      -3.2989985070    -0.6830657013     0.2626563302
   12      C      -3.0962516721     0.8797020992     0.4717037788
   13      C      -1.6233135004     1.4154816145     0.3588168378
   14      O      -0.9538136876     1.8743253860     1.3155755214
   15      O       2.5802431830     2.4715938585     0.9520273466
   16      O      -1.2330432697     1.3824573516    -1.0012566198
   17      O      -1.2273924374    -1.4594343717    -0.9918462179
   18      C       0.0975536621     2.0005804279    -1.2238367542
   19      C      -4.2794892493    -0.6921302761    -0.9920895261
   20      C      -5.7196323674    -0.2822842052    -0.4873557996
   21      C      -5.5321949932     1.2648278429    -0.2673481490
   22      C      -4.0206008406     1.4520174277    -0.6903726559
   23      O      -3.8432223454     0.4748722733    -1.7869368691
   24      H      -3.7822775962    -1.1276911375     1.1502696670
   25      H      -3.4674865581     1.1767702110     1.4685996312
   26      H      -4.2353844629    -1.6145610830    -1.6027775689
   27      H      -6.4735277828    -0.4920922526    -1.2627195787
   28      H      -6.0029774218    -0.8137435935     0.4349261093
   29      H      -6.1916381618     1.8497578250    -0.9282330652
   30      H      -5.7126383904     1.5732285369     0.7747454924
   31      H      -3.7489032522     2.4692406627    -1.0320308923
   32      O       0.7262848398    -0.5294286117     0.7464042499
   33      C       1.6638308434     3.1594565522     1.8983072276
   34      C       3.7549126271     1.0390923508    -1.0666926489
   35      C       4.9285497149     0.3908919446    -1.8980577733
   36      C       4.3310378693    -1.0305736343    -2.2178857058
   37      C       2.9136309324    -0.9299778178    -1.5321516565
   38      O       2.5416651735     0.4903420346    -1.7217738836
   39      H       4.7569596682     0.2510346091     0.7666020573
   40      H       3.7790903545    -1.8708120534     0.3149352888
   41      H       2.0257677665     3.0753054529     2.9417704291
   42      H       3.7191719858     2.1447471204    -1.0571613946
   43      H       5.1128035300     0.9666280694    -2.8191666926
   44      H       5.8654240615     0.3387625921    -1.3206340151
   45      H       4.2230028018    -1.1893160979    -3.3026608590
   46      H       4.9340314933    -1.8512067894    -1.7978473124
   47      H       2.1312009218    -1.5912248083    -1.9531743204
   48      H       0.6422716027     2.7155633284     1.8099014849
   49      H       1.6503788239     4.2204964087     1.5893743451
   50      H       0.0444170866     2.4808274273    -2.2190656668
   51      H       0.9165750266     1.2386411636    -1.2329565237
   52      H       0.3147254230     2.7643430282    -0.4549441949
   53      H      -0.2721404307    -3.1302527039    -0.1420803404
   54      H      -0.9716400471    -4.3481626319     1.0118244388
   55      H       0.0672425291    -2.0294800230     2.5369093825
   56      H       0.6348748800    -3.7465723746     2.6405913332
 ----------------------------------------------------------------

    9   -1510.2945467624      1.89E-09 Convergence criterion met
 Total energy in the final basis set = -1510.29454676
 Final energy is   -1510.29454676240
 **  OPTIMIZATION CONVERGED  **

                    Orbital Energies (a.u.)
 --------------------------------------------------------------

 Alpha MOs
 -- Occupied --
-18.932 -18.926 -18.923 -18.922 -18.901 -18.884 -18.875 -18.873
-18.862 -18.859 -10.097 -10.094 -10.090 -10.090 -10.069 -10.065
-10.065 -10.061 -10.056 -10.055 -10.037 -10.035 -10.034 -10.033
-10.030 -10.024 -10.023 -10.022 -10.017 -10.016  -1.013  -1.004
 -0.999  -0.995  -0.977  -0.965  -0.937  -0.930  -0.923  -0.921
 -0.764  -0.757  -0.726  -0.719  -0.711  -0.704  -0.693  -0.646
 -0.639  -0.617  -0.592  -0.577  -0.547  -0.540  -0.538  -0.533
 -0.509  -0.507  -0.477  -0.467  -0.462  -0.455  -0.448  -0.439
 -0.436  -0.429  -0.427  -0.413  -0.405  -0.397  -0.392  -0.387
 -0.383  -0.374  -0.367  -0.359  -0.358  -0.354  -0.344  -0.341
 -0.336  -0.336  -0.331  -0.327  -0.324  -0.322  -0.320  -0.311
 -0.305  -0.303  -0.300  -0.296  -0.291  -0.283  -0.274  -0.272
 -0.270  -0.257  -0.243  -0.242  -0.236  -0.231  -0.229  -0.181
 -0.166  -0.165  -0.163  -0.153  -0.150  -0.146  -0.141  -0.139
 -0.137

          Ground-State Mulliken Net Atomic Charges

     Atom                 Charge (a.u.)
  ----------------------------------------
      1 O                    -0.218885
      2 C                     0.210637
      3 C                    -0.079543
      4 C                    -0.079813
      5 C                     0.211806
      6 O                    -0.171752
      7 C                    -0.052162
      8 C                    -0.057882
      9 O                    -0.175026
     10 C                     0.212761
     11 C                    -0.078299
     12 C                    -0.077843
     13 C                     0.218242
     14 O                    -0.220896
     15 O                    -0.173968
     16 O                    -0.159395
     17 O                    -0.203603
     18 C                    -0.145344
     19 C                     0.026778
     20 C                    -0.143935
     21 C                    -0.144480
     22 C                     0.027544
     23 O                    -0.182187
     24 H                     0.086022
     25 H                     0.083136
     26 H                     0.082630
     27 H                     0.077147
     28 H                     0.073171
     29 H                     0.077076
     30 H                     0.073246
     31 H                     0.084026
     32 O                    -0.210214
     33 C                    -0.147347
     34 C                     0.024644
     35 C                    -0.143431
     36 C                    -0.143418
     37 C                     0.027239
     38 O                    -0.184887
     39 H                     0.083855
     40 H                     0.087190
     41 H                     0.085142
     42 H                     0.095876
     43 H                     0.079058
     44 H                     0.074531
     45 H                     0.079771
     46 H                     0.075289
     47 H                     0.089160
     48 H                     0.118569
     49 H                     0.078776
     50 H                     0.078673
     51 H                     0.116629
     52 H                     0.083603
     53 H                     0.099377
     54 H                     0.083776
     55 H                     0.100108
     56 H                     0.088824
  ----------------------------------------
  Sum of atomic charges =    -0.000000

                    Cartesian Multipole Moments
 -----------------------------------------------------------------
    Charge (ESU x 10^10)
                -0.0000
    Dipole Moment (Debye)
         X       0.4796      Y      -1.2634      Z       0.0254
       Tot       1.3516
    Quadrupole Moments (Debye-Ang)
        XX    -137.9708     XY      -0.4614     YY    -149.0120
        XZ      -8.9004     YZ      -0.6975     ZZ    -167.4038

 Total job time:  162.61s(wall), 7761.08s(cpu)
        *  Thank you very much for using Q-Chem.  Have a nice day.  *
