 Q-Chem 5.0, Q-Chem, Inc., Pleasanton, CA (2017)
 Q-Chem 5.0.1 for Intel X86 EM64T Linux

User input:
--------------------------------------------------------------
$molecule
0  1
O -3.94934 -3.66094 2.70899
C -3.26408 -4.56952 2.26188
C -3.36658 -6.02376 2.66595
C -4.7706 -6.57088 2.9713
C -5.93325 -5.65234 2.66696
O -6.89457 -5.78667 3.62781
C -7.97651 -4.86183 3.47509
C -8.86745 -5.28275 2.31096
O -9.00601 -4.19553 1.38271
C -8.80605 -4.5125 0.07937
C -8.96612 -3.32918 -0.84518
C -7.74719 -2.39828 -0.92211
C -6.45278 -2.9572 -0.36639
O -5.59928 -2.31315 0.22632
O -2.18722 -4.23338 1.50117
O -6.09201 -4.15745 -0.90242
O -8.6933 -5.65902 -0.33904
C -4.79581 -4.59304 -1.07626
C -9.11965 -3.69549 -2.3425
C -9.83194 -2.55991 -3.07804
C -8.75137 -1.4976 -3.07031
C -7.59482 -2.29174 -2.4526
O -7.82329 -3.61352 -2.87576
H -9.90401 -2.8104 -0.5421
H -7.91926 -1.40849 -0.44473
H -9.66023 -4.65194 -2.51257
H -9.98494 -2.90215 -4.12698
H -10.80944 -2.24555 -2.65325
H -8.52593 -1.21859 -4.12349
H -8.98223 -0.58831 -2.47402
H -6.61572 -1.85056 -2.74395
O -6.08718 -5.0589 1.61373
C -1.8884 -2.95021 1.09241
C -2.97226 -6.96766 1.50109
C -2.57673 -8.34127 2.04543
C -3.93196 -8.89179 2.42682
C -4.83287 -7.74136 1.97248
O -4.1813 -7.23171 0.83855
H -2.64253 -6.17249 3.49737
H -4.86595 -6.95222 4.01396
H -1.72359 -2.29503 1.97421
H -2.14804 -6.58141 0.86411
H -2.17949 -8.94319 1.19682
H -1.82429 -8.31523 2.86277
H -4.13415 -9.79239 1.8048
H -4.06134 -9.13918 3.50262
H -5.87152 -8.10856 1.81301
H -2.71533 -2.54415 0.47174
H -0.96184 -2.9695 0.48298
H -4.81026 -5.60569 -1.52817
H -4.26555 -4.64116 -0.11456
H -4.25423 -3.9038 -1.75817
H -8.54296 -6.25937 1.88598
H -9.88215 -5.47764 2.72164
H -7.62099 -3.80818 3.4014
H -8.5821 -4.91864 4.40549
$end

$opt
CONSTRAINT
tors           1           2           3           4     +36.325
tors           3           4           5           6    -142.288
tors           4           5           6           7    +174.741
tors           5           6           7           8     +74.252
tors           6           7           8           9    -125.577
tors           7           8           9          10    +131.768
tors           8           9          10          11    +179.977
tors           9          10          11          12     +80.300
tors          11          12          13          14    -144.429
ENDCONSTRAINT
$end

$rem
JOBTYPE                   OPT
METHOD                    B3LYP
DFT_D                     d3_op
BASIS                     STO-3G
GEOM_OPT_MAX_CYCLES       100
GEOM_OPT_TOL_GRADIENT     300
GEOM_OPT_TOL_DISPLACEMENT 1200
GEOM_OPT_TOL_ENERGY       100
SYMMETRY                  False
THRESH                    12
SCF_CONVERGENCE           8
MAX_SUB_FILE_NUM          128
MEM_STATIC                400
MEM_TOTAL                 4000
$end
--------------------------------------------------------------

   16   -1510.1479341516      1.69E-09 Convergence criterion met
 Total energy in the final basis set = -1510.14793415
   14   -1510.2187514587      7.13E-09 Convergence criterion met
 Total energy in the final basis set = -1510.21875146
   15   -1510.2538808348      2.37E-09 Convergence criterion met
 Total energy in the final basis set = -1510.25388083
   15   -1510.2718237413      2.78E-09 Convergence criterion met
 Total energy in the final basis set = -1510.27182374
   14   -1510.2799846879      5.72E-09 Convergence criterion met
 Total energy in the final basis set = -1510.27998469
   13   -1510.2841744544      9.34E-09 Convergence criterion met
 Total energy in the final basis set = -1510.28417445
   13   -1510.2858195631      5.06E-09 Convergence criterion met
 Total energy in the final basis set = -1510.28581956
   13   -1510.2876832693      7.19E-09 Convergence criterion met
   10   -1510.2915846127      7.36E-09 Convergence criterion met
 Total energy in the final basis set = -1510.29158461
    9   -1510.2915851912      9.00E-09 Convergence criterion met
 Total energy in the final basis set = -1510.29158519
    9   -1510.2915868135      3.67E-09 Convergence criterion met
 Total energy in the final basis set = -1510.29158681
    9   -1510.2915883270      3.61E-09 Convergence criterion met
 Total energy in the final basis set = -1510.29158833
    9   -1510.2915903903      2.63E-09 Convergence criterion met
 Total energy in the final basis set = -1510.29159039
    9   -1510.2915914681      2.61E-09 Convergence criterion met
 Total energy in the final basis set = -1510.29159147

             Standard Nuclear Orientation (Angstroms)
    I     Atom           X                Y                Z
 ----------------------------------------------------------------
    1      O      -2.2205370576    -0.9344889964     2.2806394836
    2      C      -2.7505171352    -1.2920219272     1.2055999541
    3      C      -3.6439298826    -0.3931239794     0.2719530208
    4      C      -3.1702126414     1.1167758759     0.2064427698
    5      C      -1.7224179720     1.3431951163     0.7610382055
    6      O      -1.6863593227     2.5888731272     1.4694823749
    7      C      -0.3545049934     2.7441812087     2.1021398817
    8      C       0.7747480019     3.1010968246     1.0575318040
    9      O       1.8775922513     2.1198012876     1.1762638768
   10      C       2.2556825443     1.6200669000    -0.1181814926
   11      C       3.4187163584     0.5990877735     0.1137925671
   12      C       3.0091777966    -0.8605576250     0.5812613156
   13      C       1.5226183222    -1.3049100769     0.3323971791
   14      O       0.8571352281    -2.0371623463     1.1035822186
   15      O      -2.6626508948    -2.6055370201     0.6600105975
   16      O       1.1332923763    -0.8815086818    -0.9631024308
   17      O       1.7465768675     2.0002956932    -1.1935470884
   18      C      -0.1473361250    -1.4961009996    -1.3947710104
   19      C       4.2899951529     0.2859829993    -1.1787495139
   20      C       5.7379041832    -0.0952102744    -0.6781404385
   21      C       5.4545420723    -1.4948743489    -0.0150635671
   22      C       3.9344839565    -1.7177313964    -0.3941748692
   23      O       3.7738901379    -1.0068902410    -1.6813416550
   24      H       4.0578582550     1.0452674890     0.8975440273
   25      H       3.2454480911    -1.0294210240     1.6462672711
   26      H       4.2350174070     1.0586124598    -1.9700018148
   27      H       6.4251559499    -0.1896809309    -1.5342810704
   28      H       6.1510110442     0.6407351970     0.0298818815
   29      H       6.0833868478    -2.2872958314    -0.4506812940
   30      H       5.6059835182    -1.4849131789     1.0762869072
   31      H       3.6281554741    -2.7772326158    -0.4948243503
   32      O      -0.7179904742     0.6199255510     0.5905757691
   33      C      -1.7549201227    -3.4341138229     1.4960451449
   34      C      -3.6498198575    -0.7927132800    -1.2638749507
   35      C      -4.9587992846    -0.2022166915    -1.9131881409
   36      C      -4.6195080213     1.3360978083    -1.9275928334
   37      C      -3.1425457229     1.3357652911    -1.3687203449
   38      O      -2.5858344545     0.0522973404    -1.8597622103
   39      H      -4.6746540653    -0.4390121384     0.6712563469
   40      H      -3.8664288434     1.8047687664     0.7156425445
   41      H      -2.1112056927    -3.4900526396     2.5439468479
   42      H      -3.4488294750    -1.8644302861    -1.4526026647
   43      H      -5.0903271111    -0.5937312242    -2.9346511904
   44      H      -5.8604549631    -0.4366421543    -1.3251494788
   45      H      -4.6460202991     1.7477106690    -2.9489710581
   46      H      -5.2974655371     1.9264876710    -1.2904983013
   47      H      -2.5116555962     2.1821863559    -1.7032124070
   48      H      -0.7229524387    -3.0095181051     1.4697719887
   49      H      -1.7704884951    -4.4425803611     1.0442433899
   50      H       0.0389370813    -1.9741889047    -2.3761437335
   51      H      -0.9430146238    -0.7190241849    -1.5008077651
   52      H      -0.4774446341    -2.2577711581    -0.6648735970
   53      H       0.3866775559     3.0814480293     0.0150931827
   54      H       1.1817691697     4.1141113115     1.2632758295
   55      H      -0.0597945495     1.8115905800     2.6306956500
   56      H      -0.4781265257     3.5624728037     2.8382553229
 ----------------------------------------------------------------

    9   -1510.2915918708      2.44E-09 Convergence criterion met
 Total energy in the final basis set = -1510.29159187
 Final energy is   -1510.29159187083
 **  OPTIMIZATION CONVERGED  **

                    Orbital Energies (a.u.)
 --------------------------------------------------------------

 Alpha MOs
 -- Occupied --
-18.932 -18.925 -18.924 -18.920 -18.903 -18.882 -18.872 -18.872
-18.864 -18.859 -10.097 -10.094 -10.093 -10.089 -10.069 -10.067
-10.063 -10.063 -10.055 -10.053 -10.040 -10.038 -10.037 -10.031
-10.030 -10.025 -10.024 -10.022 -10.016 -10.015  -1.013  -1.003
 -1.001  -0.994  -0.980  -0.964  -0.936  -0.929  -0.925  -0.920
 -0.766  -0.757  -0.727  -0.719  -0.712  -0.703  -0.692  -0.648
 -0.638  -0.615  -0.593  -0.577  -0.549  -0.542  -0.538  -0.532
 -0.511  -0.504  -0.477  -0.467  -0.461  -0.452  -0.450  -0.440
 -0.435  -0.427  -0.426  -0.415  -0.406  -0.398  -0.393  -0.387
 -0.385  -0.374  -0.368  -0.359  -0.358  -0.355  -0.347  -0.341
 -0.337  -0.336  -0.332  -0.326  -0.324  -0.321  -0.317  -0.314
 -0.305  -0.301  -0.299  -0.296  -0.291  -0.285  -0.277  -0.273
 -0.265  -0.256  -0.244  -0.242  -0.240  -0.228  -0.227  -0.182
 -0.166  -0.165  -0.163  -0.152  -0.151  -0.148  -0.142  -0.140
 -0.136

          Ground-State Mulliken Net Atomic Charges

     Atom                 Charge (a.u.)
  ----------------------------------------
      1 O                    -0.214609
      2 C                     0.211865
      3 C                    -0.079915
      4 C                    -0.079461
      5 C                     0.212869
      6 O                    -0.172691
      7 C                    -0.050516
      8 C                    -0.055789
      9 O                    -0.175043
     10 C                     0.217447
     11 C                    -0.078161
     12 C                    -0.075500
     13 C                     0.220360
     14 O                    -0.225523
     15 O                    -0.175285
     16 O                    -0.160060
     17 O                    -0.207021
     18 C                    -0.147609
     19 C                     0.026064
     20 C                    -0.142655
     21 C                    -0.145157
     22 C                     0.025547
     23 O                    -0.184306
     24 H                     0.083372
     25 H                     0.084760
     26 H                     0.087683
     27 H                     0.076981
     28 H                     0.072230
     29 H                     0.077082
     30 H                     0.073269
     31 H                     0.081261
     32 O                    -0.211167
     33 C                    -0.145577
     34 C                     0.024589
     35 C                    -0.142485
     36 C                    -0.143836
     37 C                     0.027107
     38 O                    -0.185524
     39 H                     0.084001
     40 H                     0.088157
     41 H                     0.082472
     42 H                     0.096360
     43 H                     0.079679
     44 H                     0.075088
     45 H                     0.080198
     46 H                     0.075629
     47 H                     0.086837
     48 H                     0.118732
     49 H                     0.080918
     50 H                     0.076533
     51 H                     0.113750
     52 H                     0.086080
     53 H                     0.101295
     54 H                     0.079924
     55 H                     0.101383
     56 H                     0.088368
  ----------------------------------------
  Sum of atomic charges =    -0.000000

                    Cartesian Multipole Moments
 -----------------------------------------------------------------
    Charge (ESU x 10^10)
                -0.0000
    Dipole Moment (Debye)
         X      -1.0240      Y       1.0476      Z       0.6568
       Tot       1.6055
    Quadrupole Moments (Debye-Ang)
        XX    -136.1482     XY      -1.0237     YY    -151.4482
        XZ       8.0839     YZ       2.3768     ZZ    -166.2431

 Total job time:  90.65s(wall), 4323.92s(cpu)
        *  Thank you very much for using Q-Chem.  Have a nice day.  *
