 Q-Chem 5.0, Q-Chem, Inc., Pleasanton, CA (2017)
 Q-Chem 5.0.1 for Intel X86 EM64T Linux

User input:
--------------------------------------------------------------
$molecule
0  1
O 6.2923569079 0.7147040936 -0.4301672546
C 5.0989318132 0.704863223 -0.060485888
C 4.3707190785 -0.4302112319 0.7418595347
C 2.7842555802 -0.4197010164 0.6824752869
C 2.2280446992 0.4100951817 -0.5557690328
O 1.321172248 1.499343422 -0.269031185
C -0.0128722586 1.2095017885 0.295719167
C -0.5482881092 -0.268419334 0.3844576769
O -1.1855553097 -0.6560722468 -0.8959377637
C -2.361657994 -1.4755158845 -0.7200923891
C -3.7296361175 -1.0054391719 -0.0509570133
C -4.0242379279 0.3422783808 0.7294628066
C -3.1043768355 1.5758581625 0.4751840474
O -2.7252900457 2.0479471294 -0.6202506902
O 4.2187585472 1.8301777098 -0.1568449702
O -2.8561987343 2.1928487565 1.7484821806
O -2.3740415375 -2.5822696329 -1.3085227653
C -2.2109992599 3.5168678572 1.579153881
C -4.9108302003 -0.9960508002 -1.1386477096
C -6.2063870129 -1.5468272544 -0.4273538022
C -6.5240305142 -0.3583449968 0.5533915283
C -5.4472446741 0.709098001 0.1051856941
O -5.228477779 0.4344465131 -1.3314758184
H -3.9461236111 -1.8266372428 0.6586347862
H -4.0760323452 0.170764114 1.8189842117
H -4.6506606166 -1.4797197644 -2.0999250918
H -7.0138034876 -1.6847160501 -1.1643858917
H -6.0310437001 -2.5022096309 0.0921406884
H -7.5420292922 0.0344776888 0.4040952263
H -6.4067286624 -0.637985387 1.612668282
H -5.7456838315 1.7646988839 0.2575502406
O 2.6096306994 0.2219906038 -1.7301268527
C 4.8473635673 2.9194822897 -0.9364425962
C 4.7249200797 -1.8993194847 0.2630652202
C 4.533908162 -2.8558616315 1.5026257438
C 2.9665658341 -2.8292500366 1.6497198915
C 2.5489713294 -1.9752714007 0.3846453023
O 3.5963214754 -2.2711460026 -0.6169644602
H 4.6912585198 -0.3022217074 1.7938965347
H 2.3322795663 -0.0751293534 1.6278449413
H 5.0528484667 2.6015335415 -1.9787928823
H 5.6910197597 -1.98376489 -0.2718723958
H 4.8976659685 -3.8684334077 1.264963211
H 5.0563909582 -2.4925419467 2.4018840695
H 2.5349795015 -3.840965036 1.5933266164
H 2.6387335847 -2.3577034535 2.5901497806
H 1.5593081092 -2.2297836206 -0.0402661162
H 5.7971951096 3.2555198257 -0.4724759648
H 4.1170586761 3.7493044491 -0.940419329
H -2.8811628444 4.2932839726 1.998001583
H -2.030167027 3.7112242978 0.5030137165
H -1.2517287416 3.5276569192 2.1317034295
H 0.2587758856 -0.9853136108 0.629449136
H -1.2793343435 -0.2993231241 1.2214837161
H -0.7419469867 1.7847487835 -0.3178812778
H -0.0378130661 1.6192716464 1.3317320977
$end

$rem
JOBTYPE                   OPT
METHOD                    B3LYP
DFT_D                     d3_op
BASIS                     STO-3G
GEOM_OPT_MAX_CYCLES       100
GEOM_OPT_TOL_GRADIENT     300
GEOM_OPT_TOL_DISPLACEMENT 1200
GEOM_OPT_TOL_ENERGY       100
SYMMETRY                  False
THRESH                    12
SCF_CONVERGENCE           8
MAX_SUB_FILE_NUM          128
MEM_STATIC                400
MEM_TOTAL                 4000
$end
--------------------------------------------------------------

   16   -1510.2179611440      2.74E-09 Convergence criterion met
 Total energy in the final basis set = -1510.21796114
   13   -1510.2222229264      8.15E-09 Convergence criterion met
 Total energy in the final basis set = -1510.22222293
   14   -1510.2252736381      3.49E-09 Convergence criterion met
 Total energy in the final basis set = -1510.22527364
   14   -1510.2287371532      6.93E-09 Convergence criterion met
 Total energy in the final basis set = -1510.22873715
   13   -1510.2323129396      4.17E-09 Convergence criterion met
 Total energy in the final basis set = -1510.23231294
   13   -1510.2356767465      5.08E-09 Convergence criterion met
 Total energy in the final basis set = -1510.23567675
   13   -1510.2388510304      4.27E-09 Convergence criterion met
 Total energy in the final basis set = -1510.23885103
   13   -1510.2419925284      8.10E-09 Convergence criterion met
   12   -1510.2647240832      3.90E-09 Convergence criterion met
 Total energy in the final basis set = -1510.26472408
   11   -1510.2647404848      9.83E-09 Convergence criterion met
 Total energy in the final basis set = -1510.26474048
   11   -1510.2647457337      4.84E-09 Convergence criterion met
 Total energy in the final basis set = -1510.26474573
   10   -1510.2647475945      6.47E-09 Convergence criterion met
 Total energy in the final basis set = -1510.26474759
    9   -1510.2647486092      5.07E-09 Convergence criterion met
 Total energy in the final basis set = -1510.26474861
    9   -1510.2647498377      3.03E-09 Convergence criterion met
 Total energy in the final basis set = -1510.26474984

             Standard Nuclear Orientation (Angstroms)
    I     Atom           X                Y                Z
 ----------------------------------------------------------------
    1      O      -5.7245285620     0.7478279345    -0.4805711954
    2      C      -4.4796925048     0.7771554536    -0.3937334786
    3      C      -3.4479977303    -0.1997336698    -1.0640797096
    4      C      -2.3662816494    -0.7795540425    -0.0555880901
    5      C      -2.4836296343    -0.2189942303     1.4243506778
    6      O      -1.5617700426     0.7813113076     1.8970146952
    7      C      -0.7611580201     1.4610475490     0.8581548769
    8      C       0.6230453558     0.7680932304     0.5885728316
    9      O       1.4918947272     1.1057402239     1.7421367782
   10      C       2.8271996633     0.5788650405     1.6816479522
   11      C       3.2115061119    -0.4399168722     0.5304334312
   12      C       3.5688414671     0.2180657545    -0.8768634763
   13      C       3.4718857476     1.7787442082    -0.8916622150
   14      O       4.3200598217     2.6158190887    -0.5221930687
   15      O      -3.7434014202     1.7462365485     0.3585093391
   16      O       2.1816831783     2.1326544320    -1.4400410596
   17      O       3.6165053341     0.9229065423     2.5884652871
   18      C       1.9800709415     3.6005281005    -1.4048366546
   19      C       4.5899012232    -1.1476357245     0.8809838943
   20      C       4.7251986492    -2.4411295469    -0.0145327983
   21      C       5.0535251722    -1.8046479646    -1.4164319943
   22      C       5.0706307633    -0.2661979327    -1.0560578725
   23      O       5.6067745150    -0.2294183970     0.3207044839
   24      H       2.4072171777    -1.1858054433     0.4093599597
   25      H       2.9080026613    -0.1725516071    -1.6711394173
   26      H       4.7570389831    -1.2891834776     1.9661575370
   27      H       5.5527251733    -3.0724705290     0.3459066762
   28      H       3.8011384644    -3.0409935011    -0.0220648471
   29      H       6.0413433472    -2.1233976985    -1.7854188159
   30      H       4.2973183478    -2.0433169967    -2.1813738375
   31      H       5.6776579594     0.3734572167    -1.7256301251
   32      O      -3.3067223458    -0.6620640402     2.2549353704
   33      C      -4.6615170743     2.6281640775     1.1130106205
   34      C      -4.1759427568    -1.5265376952    -1.5282188613
   35      C      -3.2058834408    -2.3336202407    -2.4779345289
   36      C      -2.1885677943    -2.9339463856    -1.4365874211
   37      C      -2.7433454942    -2.3254859408    -0.0877447328
   38      O      -4.2089166254    -2.3326184678    -0.2859955189
   39      H      -2.9615336244     0.3260780013    -1.9072036764
   40      H      -1.3522006353    -0.6291406405    -0.4543700532
   41      H      -5.3086649924     2.0431957647     1.7976844579
   42      H      -5.2025188030    -1.3608099161    -1.9092186576
   43      H      -3.7554413787    -3.1259255923    -3.0105349433
   44      H      -2.7191911166    -1.6814548120    -3.2205939696
   45      H      -2.2399103004    -4.0340627577    -1.4105731673
   46      H      -1.1471678213    -2.6331992848    -1.6342689593
   47      H      -2.4764580555    -2.8808976661     0.8320189928
   48      H      -5.3057678379     3.2217074386     0.4324757957
   49      H      -4.0164753764     3.3055729090     1.7021831203
   50      H       1.7176408611     3.9462081870    -2.4232450581
   51      H       2.9139102373     4.0881287559    -1.0595605421
   52      H       1.1506579831     3.8365040574    -0.7091892259
   53      H       0.4874218158    -0.3297269689     0.4917622686
   54      H       1.0630035388     1.1839799993    -0.3539086099
   55      H      -0.5620779220     2.4763479941     1.2609271958
   56      H      -1.3252051704     1.5738962700    -0.0904154562
 ----------------------------------------------------------------

    8   -1510.2647504906      8.34E-09 Convergence criterion met
 Total energy in the final basis set = -1510.26475049
 Final energy is   -1510.26475049061
 **  OPTIMIZATION CONVERGED  **

                    Orbital Energies (a.u.)
 --------------------------------------------------------------

 Alpha MOs
 -- Occupied --
-18.957 -18.944 -18.932 -18.928 -18.905 -18.896 -18.892 -18.887
-18.876 -18.868 -10.119 -10.108 -10.101 -10.098 -10.078 -10.075
-10.070 -10.069 -10.068 -10.065 -10.064 -10.064 -10.054 -10.046
-10.046 -10.041 -10.028 -10.027 -10.027 -10.026  -1.031  -1.021
 -1.007  -1.000  -0.978  -0.975  -0.958  -0.946  -0.940  -0.930
 -0.773  -0.769  -0.732  -0.729  -0.715  -0.712  -0.709  -0.677
 -0.668  -0.611  -0.609  -0.596  -0.558  -0.553  -0.547  -0.544
 -0.520  -0.514  -0.495  -0.482  -0.478  -0.470  -0.464  -0.458
 -0.446  -0.437  -0.434  -0.432  -0.421  -0.420  -0.418  -0.407
 -0.399  -0.394  -0.389  -0.379  -0.374  -0.364  -0.362  -0.359
 -0.355  -0.348  -0.341  -0.339  -0.335  -0.323  -0.320  -0.318
 -0.316  -0.313  -0.307  -0.306  -0.298  -0.294  -0.292  -0.287
 -0.281  -0.271  -0.261  -0.249  -0.241  -0.239  -0.237  -0.199
 -0.186  -0.179  -0.170  -0.167  -0.163  -0.151  -0.149  -0.148
 -0.144

          Ground-State Mulliken Net Atomic Charges

     Atom                 Charge (a.u.)
  ----------------------------------------
      1 O                    -0.204025
      2 C                     0.213300
      3 C                    -0.080053
      4 C                    -0.086456
      5 C                     0.209211
      6 O                    -0.167801
      7 C                    -0.046857
      8 C                    -0.069587
      9 O                    -0.170286
     10 C                     0.202448
     11 C                    -0.084001
     12 C                    -0.080960
     13 C                     0.211370
     14 O                    -0.193098
     15 O                    -0.175144
     16 O                    -0.175090
     17 O                    -0.195598
     18 C                    -0.137303
     19 C                     0.026738
     20 C                    -0.144326
     21 C                    -0.144205
     22 C                     0.027005
     23 O                    -0.181912
     24 H                     0.077983
     25 H                     0.083747
     26 H                     0.093526
     27 H                     0.080678
     28 H                     0.072249
     29 H                     0.080262
     30 H                     0.072028
     31 H                     0.086602
     32 O                    -0.204569
     33 C                    -0.127095
     34 C                     0.024692
     35 C                    -0.144641
     36 C                    -0.144123
     37 C                     0.026161
     38 O                    -0.184203
     39 H                     0.080567
     40 H                     0.073209
     41 H                     0.097653
     42 H                     0.091770
     43 H                     0.079684
     44 H                     0.071479
     45 H                     0.079335
     46 H                     0.068368
     47 H                     0.087553
     48 H                     0.089133
     49 H                     0.094453
     50 H                     0.089369
     51 H                     0.108089
     52 H                     0.087652
     53 H                     0.070250
     54 H                     0.102440
     55 H                     0.094809
     56 H                     0.087520
  ----------------------------------------
  Sum of atomic charges =    -0.000000

                    Cartesian Multipole Moments
 -----------------------------------------------------------------
    Charge (ESU x 10^10)
                -0.0000
    Dipole Moment (Debye)
         X       0.5580      Y      -0.2996      Z      -6.1640
       Tot       6.1964
    Quadrupole Moments (Debye-Ang)
        XX    -193.4955     XY     -19.1847     YY    -150.7171
        XZ      -5.2122     YZ      -2.4448     ZZ    -167.8444

 Total job time:  144.51s(wall), 6860.52s(cpu)
        *  Thank you very much for using Q-Chem.  Have a nice day.  *
