 Q-Chem 5.0, Q-Chem, Inc., Pleasanton, CA (2017)
 Q-Chem 5.0.1 for Intel X86 EM64T Linux

User input:
--------------------------------------------------------------
$molecule
0  1
O -3.94934 -3.66094 2.70899
C -3.26408 -4.56952 2.26188
C -3.36658 -6.02376 2.66595
C -2.1637 -6.92746 2.34928
C -0.92277 -6.23941 1.8251
O -0.57237 -6.77162 0.61705
C -0.15144 -8.13709 0.70404
C 0.00904 -8.54562 2.16469
O 1.31612 -8.17984 2.6344
C 1.90139 -9.06544 3.47839
C 2.23186 -10.38091 2.81431
C 1.65064 -10.55809 1.40397
C 1.14531 -9.29605 0.73418
O 1.74801 -8.23396 0.67692
O -2.65177 -4.32742 1.07034
O 0.85766 -9.85342 -0.54894
O 2.3696 -8.72421 4.55274
C 1.29326 -9.41106 -1.79517
C 3.73631 -10.58781 2.57837
C 4.03552 -12.08176 2.51122
C 3.37968 -12.43564 1.19456
C 2.96303 -11.03916 0.70974
O 3.93772 -10.18267 1.25085
H 1.85299 -11.16678 3.50632
H 0.85418 -11.33803 1.36409
H 4.37876 -10.09863 3.3427
H 5.13919 -12.18415 2.40099
H 3.69827 -12.68093 3.38431
H 4.15451 -12.87752 0.52916
H 2.5037 -13.11613 1.26555
H 2.91673 -11.05705 -0.39557
O -0.42811 -5.212 2.26704
C -2.55375 -3.088 0.47173
C -3.65389 -6.11523 4.15099
C -4.08421 -7.53317 4.53957
C -2.74356 -8.21506 4.5281
C -1.88369 -7.09061 3.95224
O -2.37453 -5.96748 4.63312
H -4.25289 -6.38877 2.09985
H -2.49704 -7.86984 1.86712
H -2.00231 -2.38783 1.13521
H -4.3992 -5.36799 4.50169
H -4.49853 -7.57531 5.57127
H -4.82399 -7.93441 3.81293
H -2.41494 -8.35095 5.58431
H -2.7079 -9.19687 4.01014
H -0.82322 -7.2234 4.26519
H -3.56536 -2.68365 0.2548
H -1.99687 -3.18863 -0.48229
H 1.8379 -10.2311 -2.30568
H 1.97224 -8.53643 -1.71698
H 0.41782 -9.13997 -2.4199
H -0.69619 -8.66081 2.92472
H -0.30194 -9.62237 2.38742
H -0.12908 -7.95644 -0.44738
H -1.10695 -8.71447 0.49999
$end

$opt
CONSTRAINT
tors           1           2           3           4    -161.053
tors           3           4           5           6    -123.158
tors           4           5           6           7     -66.316
tors           5           6           7           8      -9.474
tors           6           7           8           9     -85.263
tors           7           8           9          10    -142.105
tors           8           9          10          11     +66.316
tors           9          10          11          12      -9.474
tors          11          12          13          14     +47.368
ENDCONSTRAINT
$end

$rem
JOBTYPE                   OPT
METHOD                    B3LYP
DFT_D                     d3_op
BASIS                     STO-3G
GEOM_OPT_MAX_CYCLES       100
GEOM_OPT_TOL_GRADIENT     300
GEOM_OPT_TOL_DISPLACEMENT 1200
GEOM_OPT_TOL_ENERGY       100
SYMMETRY                  False
THRESH                    12
SCF_CONVERGENCE           8
MAX_SUB_FILE_NUM          128
MEM_STATIC                400
MEM_TOTAL                 4000
$end
--------------------------------------------------------------

   17   -1509.6125865770      6.92E-09 Convergence criterion met
 Total energy in the final basis set = -1509.61258658
   15   -1509.7262575819      6.69E-09 Convergence criterion met
 Total energy in the final basis set = -1509.72625758
   15   -1509.8091428071      6.31E-09 Convergence criterion met
 Total energy in the final basis set = -1509.80914281
   15   -1509.8769184879      4.90E-09 Convergence criterion met
 Total energy in the final basis set = -1509.87691849
   15   -1509.9299299680      3.55E-09 Convergence criterion met
 Total energy in the final basis set = -1509.92992997
   14   -1509.9734007557      6.43E-09 Convergence criterion met
 Total energy in the final basis set = -1509.97340076
   13   -1510.0098461507      8.68E-09 Convergence criterion met
 Total energy in the final basis set = -1510.00984615
   13   -1510.0408147252      7.76E-09 Convergence criterion met
   11   -1510.2179971946      2.45E-09 Convergence criterion met
 Total energy in the final basis set = -1510.21799719
    9   -1510.2180035250      9.56E-09 Convergence criterion met
 Total energy in the final basis set = -1510.21800353
    9   -1510.2180062428      4.41E-09 Convergence criterion met
 Total energy in the final basis set = -1510.21800624
    9   -1510.2180080683      4.79E-09 Convergence criterion met
 Total energy in the final basis set = -1510.21800807
    9   -1510.2180094698      3.91E-09 Convergence criterion met
 Total energy in the final basis set = -1510.21800947
    9   -1510.2180105699      2.89E-09 Convergence criterion met
 Total energy in the final basis set = -1510.21801057

             Standard Nuclear Orientation (Angstroms)
    I     Atom           X                Y                Z
 ----------------------------------------------------------------
    1      O       6.2923569079     0.7147040936    -0.4301672546
    2      C       5.0989318132     0.7048632230    -0.0604858880
    3      C       4.3707190785    -0.4302112319     0.7418595347
    4      C       2.7842555802    -0.4197010164     0.6824752869
    5      C       2.2280446992     0.4100951817    -0.5557690328
    6      O       1.3211722480     1.4993434220    -0.2690311850
    7      C      -0.0128722586     1.2095017885     0.2957191670
    8      C      -0.5482881092    -0.2684193340     0.3844576769
    9      O      -1.1855553097    -0.6560722468    -0.8959377637
   10      C      -2.3616579940    -1.4755158845    -0.7200923891
   11      C      -3.7296361175    -1.0054391719    -0.0509570133
   12      C      -4.0242379279     0.3422783808     0.7294628066
   13      C      -3.1043768355     1.5758581625     0.4751840474
   14      O      -2.7252900457     2.0479471294    -0.6202506902
   15      O       4.2187585472     1.8301777098    -0.1568449702
   16      O      -2.8561987343     2.1928487565     1.7484821806
   17      O      -2.3740415375    -2.5822696329    -1.3085227653
   18      C      -2.2109992599     3.5168678572     1.5791538810
   19      C      -4.9108302003    -0.9960508002    -1.1386477096
   20      C      -6.2063870129    -1.5468272544    -0.4273538022
   21      C      -6.5240305142    -0.3583449968     0.5533915283
   22      C      -5.4472446741     0.7090980010     0.1051856941
   23      O      -5.2284777790     0.4344465131    -1.3314758184
   24      H      -3.9461236111    -1.8266372428     0.6586347862
   25      H      -4.0760323452     0.1707641140     1.8189842117
   26      H      -4.6506606166    -1.4797197644    -2.0999250918
   27      H      -7.0138034876    -1.6847160501    -1.1643858917
   28      H      -6.0310437001    -2.5022096309     0.0921406884
   29      H      -7.5420292922     0.0344776888     0.4040952263
   30      H      -6.4067286624    -0.6379853870     1.6126682820
   31      H      -5.7456838315     1.7646988839     0.2575502406
   32      O       2.6096306994     0.2219906038    -1.7301268527
   33      C       4.8473635673     2.9194822897    -0.9364425962
   34      C       4.7249200797    -1.8993194847     0.2630652202
   35      C       4.5339081620    -2.8558616315     1.5026257438
   36      C       2.9665658341    -2.8292500366     1.6497198915
   37      C       2.5489713294    -1.9752714007     0.3846453023
   38      O       3.5963214754    -2.2711460026    -0.6169644602
   39      H       4.6912585198    -0.3022217074     1.7938965347
   40      H       2.3322795663    -0.0751293534     1.6278449413
   41      H       5.0528484667     2.6015335415    -1.9787928823
   42      H       5.6910197597    -1.9837648900    -0.2718723958
   43      H       4.8976659685    -3.8684334077     1.2649632110
   44      H       5.0563909582    -2.4925419467     2.4018840695
   45      H       2.5349795015    -3.8409650360     1.5933266164
   46      H       2.6387335847    -2.3577034535     2.5901497806
   47      H       1.5593081092    -2.2297836206    -0.0402661162
   48      H       5.7971951096     3.2555198257    -0.4724759648
   49      H       4.1170586761     3.7493044491    -0.9404193290
   50      H      -2.8811628444     4.2932839726     1.9980015830
   51      H      -2.0301670270     3.7112242978     0.5030137165
   52      H      -1.2517287416     3.5276569192     2.1317034295
   53      H       0.2587758856    -0.9853136108     0.6294491360
   54      H      -1.2793343435    -0.2993231241     1.2214837161
   55      H      -0.7419469867     1.7847487835    -0.3178812778
   56      H      -0.0378130661     1.6192716464     1.3317320977
 ----------------------------------------------------------------

    9   -1510.2180111266      2.22E-09 Convergence criterion met
 Total energy in the final basis set = -1510.21801113
 Final energy is   -1510.21801112663
 **  OPTIMIZATION CONVERGED  **

                    Orbital Energies (a.u.)
 --------------------------------------------------------------

 Alpha MOs
 -- Occupied --
-18.944 -18.937 -18.921 -18.898 -18.894 -18.891 -18.889 -18.889
-18.878 -18.875 -10.112 -10.108 -10.100 -10.097 -10.081 -10.071
-10.068 -10.066 -10.066 -10.062 -10.061 -10.059 -10.051 -10.044
-10.038 -10.035 -10.028 -10.025 -10.023 -10.021  -1.023  -1.012
 -1.008  -0.990  -0.980  -0.970  -0.948  -0.940  -0.936  -0.922
 -0.770  -0.762  -0.730  -0.723  -0.713  -0.710  -0.705  -0.672
 -0.660  -0.612  -0.607  -0.588  -0.553  -0.546  -0.546  -0.540
 -0.525  -0.507  -0.489  -0.474  -0.469  -0.464  -0.459  -0.447
 -0.440  -0.432  -0.428  -0.423  -0.419  -0.413  -0.410  -0.408
 -0.393  -0.387  -0.379  -0.376  -0.370  -0.363  -0.358  -0.356
 -0.349  -0.344  -0.337  -0.333  -0.329  -0.327  -0.322  -0.317
 -0.313  -0.312  -0.308  -0.307  -0.296  -0.290  -0.285  -0.278
 -0.276  -0.261  -0.252  -0.245  -0.236  -0.235  -0.216  -0.188
 -0.176  -0.175  -0.166  -0.156  -0.155  -0.152  -0.149  -0.143
 -0.136

          Ground-State Mulliken Net Atomic Charges

     Atom                 Charge (a.u.)
  ----------------------------------------
      1 O                    -0.211546
      2 C                     0.213301
      3 C                    -0.078679
      4 C                    -0.083510
      5 C                     0.225952
      6 O                    -0.195553
      7 C                    -0.054314
      8 C                    -0.053124
      9 O                    -0.176930
     10 C                     0.210323
     11 C                    -0.084778
     12 C                    -0.082448
     13 C                     0.209048
     14 O                    -0.204719
     15 O                    -0.167423
     16 O                    -0.173750
     17 O                    -0.189009
     18 C                    -0.137843
     19 C                     0.027872
     20 C                    -0.141966
     21 C                    -0.145275
     22 C                     0.027516
     23 O                    -0.183774
     24 H                     0.083098
     25 H                     0.086103
     26 H                     0.092039
     27 H                     0.080569
     28 H                     0.075932
     29 H                     0.080245
     30 H                     0.074075
     31 H                     0.083596
     32 O                    -0.185791
     33 C                    -0.126384
     34 C                     0.025541
     35 C                    -0.142255
     36 C                    -0.146179
     37 C                     0.022043
     38 O                    -0.182645
     39 H                     0.082893
     40 H                     0.075798
     41 H                     0.094068
     42 H                     0.091169
     43 H                     0.079138
     44 H                     0.073181
     45 H                     0.078593
     46 H                     0.070576
     47 H                     0.083148
     48 H                     0.089151
     49 H                     0.094714
     50 H                     0.087412
     51 H                     0.104441
     52 H                     0.086450
     53 H                     0.084348
     54 H                     0.079526
     55 H                     0.105255
     56 H                     0.070781
  ----------------------------------------
  Sum of atomic charges =     0.000000

                    Cartesian Multipole Moments
 -----------------------------------------------------------------
    Charge (ESU x 10^10)
                 0.0000
    Dipole Moment (Debye)
         X      -2.6732      Y       0.7393      Z       6.5618
       Tot       7.1239
    Quadrupole Moments (Debye-Ang)
        XX    -154.6198     XY       2.7228     YY    -155.3328
        XZ       0.3252     YZ      -2.7900     ZZ    -164.9188

 Total job time:  141.73s(wall), 6758.21s(cpu)
        *  Thank you very much for using Q-Chem.  Have a nice day.  *
