 Q-Chem 5.0, Q-Chem, Inc., Pleasanton, CA (2017)
 Q-Chem 5.0.1 for Intel X86 EM64T Linux

User input:
--------------------------------------------------------------
$molecule
0  1
O -4.696622776 2.3441967018 0.531160672
C -3.9973973763 1.6068431472 -0.194616896
C -4.4011010405 0.2213589702 -0.817072446
C -3.2397463183 -0.84767559 -0.846634251
C -2.1137619464 -0.4907586014 0.1882156111
O -0.8973842903 -1.18337518 -0.1430256493
C 0.2647572589 -0.3007232479 0.1183109004
C 0.8068493394 0.2409246981 -1.2572161548
O 1.659918392 1.4494373356 -1.1807026995
C 2.3862624348 1.5663704347 0.0781171203
C 3.9239473729 1.1893399523 -0.0810049525
C 4.5470448817 0.0335238782 0.8234723472
C 3.7589078053 -0.6904975116 1.9770819033
O 4.2532963126 -1.5973233263 2.6839634007
O -2.7592463074 2.0098284015 -0.8045776787
O 2.415200757 -0.2350497939 2.1180829008
O 1.874828569 2.1041875173 1.0810863133
C 1.7587967065 -0.9199485727 3.2581439386
C 4.2063894991 0.6071033151 -1.527446228
C 5.7534771337 0.6647023083 -1.834820645
C 6.2807178375 -0.5536430784 -0.9902966062
C 4.9472226503 -1.0342100073 -0.2995214928
O 3.9269740665 -0.8387487346 -1.3516176072
H 4.4906577784 2.1230041798 0.0976762498
H 5.4674684118 0.4172566313 1.3011478797
H 3.5395314574 1.0359599454 -2.2990398872
H 5.9386868041 0.5226984498 -2.9113023688
H 6.2000205524 1.6228683193 -1.5245458978
H 6.6830604537 -1.3490570013 -1.6379785388
H 7.0529735425 -0.2697906379 -0.2577137776
H 4.9517167751 -2.0823061066 0.0587324047
O -2.2279529659 0.2881627818 1.1608265271
C -2.3055881649 3.2956687112 -0.2325214631
C -5.5403512482 -0.5591192737 -0.0390972243
C -6.2627109533 -1.4964731133 -1.0822028278
C -5.1289239918 -2.553870477 -1.3569364917
C -4.0321184057 -2.1184889723 -0.303782712
O -4.8097746125 -1.5289693859 0.8123723624
H -4.7297296734 0.4328610844 -1.8522774852
H -2.7989972524 -0.9994846142 -1.8467216785
H -2.040630991 3.1839934891 0.8390335695
H -6.1979707179 0.0871281532 0.5746139124
H -7.1466102891 -1.9683151819 -0.6234859069
H -6.5779128101 -0.9582177222 -1.9901661916
H -5.471628779 -3.5815081381 -1.157944488
H -4.7450877269 -2.5045693699 -2.3888385363
H -3.3829211933 -2.9373599322 0.0633305746
H -3.0807237622 4.0833560958 -0.3262356398
H -1.4050689619 3.5859435814 -0.8046795498
H 0.7385592266 -0.4976938597 3.3137283024
H 2.2965482948 -0.7278417041 4.2080671093
H 1.7015418264 -2.0158499364 3.0974929389
H 1.3755558739 -0.5739371028 -1.7623837629
H -0.0544884881 0.5193575623 -1.9022724107
H 1.0596341082 -0.8674704824 0.6433677761
H -0.042712935 0.5436102984 0.7716659784
$end

$rem
JOBTYPE                   OPT
METHOD                    B3LYP
DFT_D                     d3_op
BASIS                     STO-3G
GEOM_OPT_MAX_CYCLES       100
GEOM_OPT_TOL_GRADIENT     300
GEOM_OPT_TOL_DISPLACEMENT 1200
GEOM_OPT_TOL_ENERGY       100
SYMMETRY                  False
THRESH                    12
SCF_CONVERGENCE           8
MAX_SUB_FILE_NUM          128
MEM_STATIC                400
MEM_TOTAL                 4000
$end
--------------------------------------------------------------

   16   -1510.2465427567      5.97E-09 Convergence criterion met
 Total energy in the final basis set = -1510.24654276
   14   -1510.2515186634      8.17E-09 Convergence criterion met
 Total energy in the final basis set = -1510.25151866
   14   -1510.2548918022      9.72E-09 Convergence criterion met
 Total energy in the final basis set = -1510.25489180
   15   -1510.2575649074      2.69E-09 Convergence criterion met
 Total energy in the final basis set = -1510.25756491
   14   -1510.2592180726      9.79E-09 Convergence criterion met
 Total energy in the final basis set = -1510.25921807
   14   -1510.2611274288      9.58E-09 Convergence criterion met
 Total energy in the final basis set = -1510.26112743
   14   -1510.2628864695      6.56E-09 Convergence criterion met
 Total energy in the final basis set = -1510.26288647
   14   -1510.2644400303      6.02E-09 Convergence criterion met
   11   -1510.2943136151      7.41E-09 Convergence criterion met
 Total energy in the final basis set = -1510.29431362
   11   -1510.2943267939      5.27E-09 Convergence criterion met
 Total energy in the final basis set = -1510.29432679
   11   -1510.2943265909      4.48E-09 Convergence criterion met
 Total energy in the final basis set = -1510.29432659
   11   -1510.2943356277      2.81E-09 Convergence criterion met
 Total energy in the final basis set = -1510.29433563
   11   -1510.2943447535      3.78E-09 Convergence criterion met
 Total energy in the final basis set = -1510.29434475
    9   -1510.2943457971      3.44E-09 Convergence criterion met
 Total energy in the final basis set = -1510.29434580

             Standard Nuclear Orientation (Angstroms)
    I     Atom           X                Y                Z
 ----------------------------------------------------------------
    1      O      -3.1115436074     2.3508590210    -1.3081431705
    2      C      -2.3091115948     1.4125678564    -1.4960172536
    3      C      -2.5978885871    -0.1301248499    -1.4508575558
    4      C      -2.0014156746    -0.8684465434    -0.1850595420
    5      C      -1.3635425717     0.1167608355     0.8434058804
    6      O      -0.7168293425    -0.6449444309     1.8727453936
    7      C      -0.0572156928     0.2588409415     2.8486074248
    8      C       1.3245933007     0.8050893203     2.3396422637
    9      O       2.3654780322    -0.1860039873     2.6904094705
   10      C       3.4669471239    -0.3629617851     1.7930400386
   11      C       3.5326184682     0.2277159191     0.3087240219
   12      C       2.6021391021    -0.4448079086    -0.7936038860
   13      C       1.5852320535    -1.5452526427    -0.3298392808
   14      O       0.5488118863    -1.8711654828    -0.9562055896
   15      O      -0.9487743153     1.5842634807    -1.9397335498
   16      O       2.0407534307    -2.1785703830     0.8539122564
   17      O       4.4330401562    -1.0290856337     2.2328526448
   18      C       0.9742264271    -3.0431452639     1.4204990766
   19      C       3.1908505579     1.7633102456     0.0812845265
   20      C       3.8380507738     2.2326547362    -1.2781417909
   21      C       2.8643484149     1.5812999880    -2.3336995231
   22      C       1.8555055667     0.8197120574    -1.3958711991
   23      O       1.7394715883     1.7471657222    -0.2382996834
   24      H       4.5867553037     0.0496528401     0.0316533719
   25      H       3.2355910471    -0.9078796606    -1.5729825220
   26      H       3.3883337130     2.4199892276     0.9503158943
   27      H       3.8302456960     3.3321574172    -1.3470419038
   28      H       4.8762344903     1.8793082910    -1.3827788883
   29      H       2.3390206823     2.3490716624    -2.9234118977
   30      H       3.3816463171     0.8971039020    -3.0245893726
   31      H       0.8353572509     0.6401798332    -1.8043692477
   32      O      -1.3804224582     1.3675431937     0.8182190973
   33      C      -0.5519503513     3.0093117499    -1.8543101081
   34      C      -4.1423046877    -0.4531798712    -1.2917754984
   35      C      -4.3800042099    -1.9433242776    -1.7547222538
   36      C      -3.7272405388    -2.7355859907    -0.5613651290
   37      C      -3.3066086753    -1.5539106197     0.4007353517
   38      O      -4.3444140522    -0.5218325258     0.1755168682
   39      H      -2.1834754115    -0.5746176193    -2.3736577283
   40      H      -1.2090608822    -1.5918621837    -0.4730046954
   41      H      -1.4124234001     3.6105402827    -1.5002440200
   42      H      -4.8152632951     0.3051584094    -1.7367650778
   43      H      -5.4587906975    -2.1525963846    -1.8340255764
   44      H      -3.9046639922    -2.1634938792    -2.7238377865
   45      H      -4.4554427508    -3.3976413373    -0.0667416975
   46      H      -2.8583185426    -3.3352659320    -0.8759623021
   47      H      -3.2422899749    -1.8186228070     1.4741350409
   48      H      -0.2365552110     3.3571215502    -2.8578044842
   49      H       0.3000324788     3.0797275867    -1.1459189663
   50      H       1.4208772154    -3.5322479874     2.3045464399
   51      H       0.6434983550    -3.8071777286     0.6887984839
   52      H       0.1154380255    -2.3977488664     1.7173639463
   53      H       1.2876264750     1.0610434803     1.2443607276
   54      H       1.5403789801     1.7424632343     2.8999517485
   55      H       0.0910963489    -0.3495306126     3.7640462665
   56      H      -0.7242401947     1.1179362752     3.0739422722
 ----------------------------------------------------------------

    9   -1510.2943449517      2.91E-09 Convergence criterion met
 Total energy in the final basis set = -1510.29434495
 Final energy is   -1510.29434495171
 **  OPTIMIZATION CONVERGED  **

                    Orbital Energies (a.u.)
 --------------------------------------------------------------

 Alpha MOs
 -- Occupied --
-18.951 -18.942 -18.922 -18.919 -18.919 -18.887 -18.886 -18.883
-18.865 -18.858 -10.114 -10.105 -10.095 -10.092 -10.077 -10.073
-10.068 -10.058 -10.058 -10.054 -10.049 -10.049 -10.044 -10.043
-10.034 -10.032 -10.030 -10.026 -10.017 -10.016  -1.026  -1.020
 -0.998  -0.997  -0.992  -0.966  -0.948  -0.944  -0.925  -0.924
 -0.775  -0.759  -0.732  -0.722  -0.717  -0.709  -0.694  -0.665
 -0.650  -0.611  -0.606  -0.579  -0.558  -0.551  -0.542  -0.533
 -0.522  -0.507  -0.495  -0.477  -0.475  -0.454  -0.452  -0.447
 -0.443  -0.428  -0.423  -0.419  -0.416  -0.414  -0.405  -0.399
 -0.397  -0.388  -0.378  -0.367  -0.364  -0.359  -0.356  -0.350
 -0.349  -0.343  -0.336  -0.336  -0.329  -0.324  -0.322  -0.319
 -0.313  -0.312  -0.303  -0.301  -0.295  -0.292  -0.284  -0.276
 -0.272  -0.260  -0.257  -0.252  -0.239  -0.231  -0.230  -0.192
 -0.182  -0.172  -0.167  -0.162  -0.159  -0.154  -0.146  -0.141
 -0.137

          Ground-State Mulliken Net Atomic Charges

     Atom                 Charge (a.u.)
  ----------------------------------------
      1 O                    -0.214353
      2 C                     0.219539
      3 C                    -0.081784
      4 C                    -0.092304
      5 C                     0.212483
      6 O                    -0.177942
      7 C                    -0.050949
      8 C                    -0.076449
      9 O                    -0.177861
     10 C                     0.212453
     11 C                    -0.086330
     12 C                    -0.083594
     13 C                     0.214375
     14 O                    -0.220581
     15 O                    -0.183502
     16 O                    -0.160598
     17 O                    -0.211015
     18 C                    -0.138445
     19 C                     0.021791
     20 C                    -0.143115
     21 C                    -0.142978
     22 C                     0.016293
     23 O                    -0.186384
     24 H                     0.089429
     25 H                     0.089537
     26 H                     0.087146
     27 H                     0.081007
     28 H                     0.078623
     29 H                     0.081037
     30 H                     0.077171
     31 H                     0.113747
     32 O                    -0.205061
     33 C                    -0.141748
     34 C                     0.024477
     35 C                    -0.143252
     36 C                    -0.143943
     37 C                     0.023594
     38 O                    -0.190447
     39 H                     0.085154
     40 H                     0.110689
     41 H                     0.101220
     42 H                     0.088125
     43 H                     0.077122
     44 H                     0.073405
     45 H                     0.076655
     46 H                     0.075124
     47 H                     0.082240
     48 H                     0.075373
     49 H                     0.095520
     50 H                     0.094368
     51 H                     0.086506
     52 H                     0.109203
     53 H                     0.116171
     54 H                     0.073591
     55 H                     0.094474
     56 H                     0.094993
  ----------------------------------------
  Sum of atomic charges =    -0.000000

                    Cartesian Multipole Moments
 -----------------------------------------------------------------
    Charge (ESU x 10^10)
                -0.0000
    Dipole Moment (Debye)
         X       1.4898      Y      -0.3895      Z      -2.2512
       Tot       2.7275
    Quadrupole Moments (Debye-Ang)
        XX    -172.1926     XY      17.5353     YY    -156.7541
        XZ      -9.8800     YZ       1.8033     ZZ    -157.9825

 Total job time:  204.35s(wall), 9742.77s(cpu)
        *  Thank you very much for using Q-Chem.  Have a nice day.  *
