 Q-Chem 5.0, Q-Chem, Inc., Pleasanton, CA (2017)
 Q-Chem 5.0.1 for Intel X86 EM64T Linux

User input:
--------------------------------------------------------------
$molecule
0  1
O -3.94934 -3.66094 2.70899
C -3.26408 -4.56952 2.26188
C -3.36658 -6.02376 2.66595
C -2.05424 -6.81773 2.77194
C -0.77335 -6.02476 2.63554
O 0.26082 -6.86278 2.32957
C 1.18975 -6.29486 1.40016
C 0.98716 -6.90324 0.01634
O 1.57819 -6.05641 -0.98189
C 2.63431 -5.31427 -0.56598
C 3.95953 -5.85506 -1.04765
C 4.97079 -6.17398 0.06316
C 4.40723 -6.25 1.46791
O 5.05197 -6.49121 2.4782
O -2.53605 -4.32623 1.13901
O 3.67675 -5.12068 1.72352
O 2.49874 -4.1261 -0.30519
C 3.41788 -4.5404 2.95806
C 3.92722 -7.23515 -1.75925
C 5.15428 -7.38338 -2.65981
C 6.24862 -7.54702 -1.62669
C 5.41084 -7.58563 -0.34533
O 4.19501 -8.17082 -0.74348
H 4.35369 -5.11216 -1.77789
H 5.79409 -5.42568 0.0905
H 3.01452 -7.41688 -2.36597
H 5.03973 -8.34706 -3.20675
H 5.3131 -6.56578 -3.39538
H 6.75275 -8.52372 -1.79978
H 7.00045 -6.72867 -1.5967
H 5.96277 -8.10989 0.46597
O -0.58638 -4.93317 3.15817
C -2.38319 -3.08395 0.56025
C -3.92128 -6.19732 4.09252
C -4.49122 -7.60568 4.26837
C -3.21633 -8.41752 4.34543
C -2.17061 -7.30624 4.22989
O -2.7684 -6.22004 4.89567
H -4.05097 -6.49159 1.92345
H -2.01286 -7.67786 2.06492
H -1.90033 -2.38632 1.27754
H -4.69262 -5.44354 4.36199
H -4.99967 -7.65339 5.25779
H -5.20253 -7.91015 3.47062
H -3.15267 -8.87608 5.3577
H -3.10294 -9.20388 3.56825
H -1.19714 -7.65393 4.64188
H -3.37055 -2.68088 0.24918
H -1.73654 -3.1783 -0.33616
H 2.77361 -3.64941 2.81174
H 4.36565 -4.21488 3.43713
H 2.89082 -5.25889 3.62108
H 1.31709 -7.96106 -0.06391
H -0.10484 -6.87384 -0.18589
H 2.12605 -6.6791 1.76328
H 1.08766 -5.18492 1.38222
$end

$opt
CONSTRAINT
tors           1           2           3           4    -142.105
tors           3           4           5           6    -161.053
tors           4           5           6           7    +142.105
tors           5           6           7           8    -104.211
tors           6           7           8           9    +161.053
tors           7           8           9          10     +28.421
tors           8           9          10          11    +104.211
tors           9          10          11          12    -123.158
tors          11          12          13          14    -180.000
ENDCONSTRAINT
$end

$rem
JOBTYPE                   OPT
METHOD                    B3LYP
DFT_D                     d3_op
BASIS                     STO-3G
GEOM_OPT_MAX_CYCLES       100
GEOM_OPT_TOL_GRADIENT     300
GEOM_OPT_TOL_DISPLACEMENT 1200
GEOM_OPT_TOL_ENERGY       100
SYMMETRY                  False
THRESH                    12
SCF_CONVERGENCE           8
MAX_SUB_FILE_NUM          128
MEM_STATIC                400
MEM_TOTAL                 4000
$end
--------------------------------------------------------------

   15   -1510.0560120836      9.88E-09 Convergence criterion met
 Total energy in the final basis set = -1510.05601208
   15   -1510.1349657167      3.25E-09 Convergence criterion met
 Total energy in the final basis set = -1510.13496572
   14   -1510.1799647823      3.77E-09 Convergence criterion met
 Total energy in the final basis set = -1510.17996478
   14   -1510.2073618415      3.36E-09 Convergence criterion met
 Total energy in the final basis set = -1510.20736184
   14   -1510.2222063093      4.82E-09 Convergence criterion met
 Total energy in the final basis set = -1510.22220631
   14   -1510.2311950636      4.57E-09 Convergence criterion met
 Total energy in the final basis set = -1510.23119506
   13   -1510.2371860023      5.88E-09 Convergence criterion met
 Total energy in the final basis set = -1510.23718600
   13   -1510.2411421516      3.64E-09 Convergence criterion met
   12   -1510.2466774648      3.87E-09 Convergence criterion met
 Total energy in the final basis set = -1510.24667746
   11   -1510.2467490519      5.61E-09 Convergence criterion met
 Total energy in the final basis set = -1510.24674905
   11   -1510.2467991041      4.17E-09 Convergence criterion met
 Total energy in the final basis set = -1510.24679910
   11   -1510.2468257334      3.60E-09 Convergence criterion met
 Total energy in the final basis set = -1510.24682573
   10   -1510.2468359694      7.83E-09 Convergence criterion met
 Total energy in the final basis set = -1510.24683597
    9   -1510.2468404026      6.42E-09 Convergence criterion met
 Total energy in the final basis set = -1510.24684040

             Standard Nuclear Orientation (Angstroms)
    I     Atom           X                Y                Z
 ----------------------------------------------------------------
    1      O      -4.6966227760     2.3441967018     0.5311606720
    2      C      -3.9973973763     1.6068431472    -0.1946168960
    3      C      -4.4011010405     0.2213589702    -0.8170724460
    4      C      -3.2397463183    -0.8476755900    -0.8466342510
    5      C      -2.1137619464    -0.4907586014     0.1882156111
    6      O      -0.8973842903    -1.1833751800    -0.1430256493
    7      C       0.2647572589    -0.3007232479     0.1183109004
    8      C       0.8068493394     0.2409246981    -1.2572161548
    9      O       1.6599183920     1.4494373356    -1.1807026995
   10      C       2.3862624348     1.5663704347     0.0781171203
   11      C       3.9239473729     1.1893399523    -0.0810049525
   12      C       4.5470448817     0.0335238782     0.8234723472
   13      C       3.7589078053    -0.6904975116     1.9770819033
   14      O       4.2532963126    -1.5973233263     2.6839634007
   15      O      -2.7592463074     2.0098284015    -0.8045776787
   16      O       2.4152007570    -0.2350497939     2.1180829008
   17      O       1.8748285690     2.1041875173     1.0810863133
   18      C       1.7587967065    -0.9199485727     3.2581439386
   19      C       4.2063894991     0.6071033151    -1.5274462280
   20      C       5.7534771337     0.6647023083    -1.8348206450
   21      C       6.2807178375    -0.5536430784    -0.9902966062
   22      C       4.9472226503    -1.0342100073    -0.2995214928
   23      O       3.9269740665    -0.8387487346    -1.3516176072
   24      H       4.4906577784     2.1230041798     0.0976762498
   25      H       5.4674684118     0.4172566313     1.3011478797
   26      H       3.5395314574     1.0359599454    -2.2990398872
   27      H       5.9386868041     0.5226984498    -2.9113023688
   28      H       6.2000205524     1.6228683193    -1.5245458978
   29      H       6.6830604537    -1.3490570013    -1.6379785388
   30      H       7.0529735425    -0.2697906379    -0.2577137776
   31      H       4.9517167751    -2.0823061066     0.0587324047
   32      O      -2.2279529659     0.2881627818     1.1608265271
   33      C      -2.3055881649     3.2956687112    -0.2325214631
   34      C      -5.5403512482    -0.5591192737    -0.0390972243
   35      C      -6.2627109533    -1.4964731133    -1.0822028278
   36      C      -5.1289239918    -2.5538704770    -1.3569364917
   37      C      -4.0321184057    -2.1184889723    -0.3037827120
   38      O      -4.8097746125    -1.5289693859     0.8123723624
   39      H      -4.7297296734     0.4328610844    -1.8522774852
   40      H      -2.7989972524    -0.9994846142    -1.8467216785
   41      H      -2.0406309910     3.1839934891     0.8390335695
   42      H      -6.1979707179     0.0871281532     0.5746139124
   43      H      -7.1466102891    -1.9683151819    -0.6234859069
   44      H      -6.5779128101    -0.9582177222    -1.9901661916
   45      H      -5.4716287790    -3.5815081381    -1.1579444880
   46      H      -4.7450877269    -2.5045693699    -2.3888385363
   47      H      -3.3829211933    -2.9373599322     0.0633305746
   48      H      -3.0807237622     4.0833560958    -0.3262356398
   49      H      -1.4050689619     3.5859435814    -0.8046795498
   50      H       0.7385592266    -0.4976938597     3.3137283024
   51      H       2.2965482948    -0.7278417041     4.2080671093
   52      H       1.7015418264    -2.0158499364     3.0974929389
   53      H       1.3755558739    -0.5739371028    -1.7623837629
   54      H      -0.0544884881     0.5193575623    -1.9022724107
   55      H       1.0596341082    -0.8674704824     0.6433677761
   56      H      -0.0427129350     0.5436102984     0.7716659784
 ----------------------------------------------------------------

    9   -1510.2468409737      4.64E-09 Convergence criterion met
 Total energy in the final basis set = -1510.24684097
 Final energy is   -1510.24684097368
 **  OPTIMIZATION CONVERGED  **

                    Orbital Energies (a.u.)
 --------------------------------------------------------------

 Alpha MOs
 -- Occupied --
-18.946 -18.922 -18.921 -18.906 -18.900 -18.892 -18.885 -18.885
-18.878 -18.867 -10.111 -10.107 -10.102 -10.093 -10.069 -10.067
-10.064 -10.060 -10.060 -10.059 -10.056 -10.055 -10.044 -10.040
-10.038 -10.034 -10.024 -10.023 -10.020 -10.019  -1.021  -1.012
 -1.006  -0.999  -0.976  -0.969  -0.943  -0.940  -0.933  -0.927
 -0.765  -0.762  -0.725  -0.723  -0.712  -0.705  -0.692  -0.667
 -0.654  -0.616  -0.601  -0.582  -0.547  -0.545  -0.541  -0.536
 -0.518  -0.508  -0.480  -0.476  -0.465  -0.456  -0.453  -0.447
 -0.436  -0.433  -0.430  -0.416  -0.415  -0.406  -0.403  -0.402
 -0.390  -0.382  -0.374  -0.368  -0.365  -0.357  -0.353  -0.351
 -0.346  -0.340  -0.335  -0.332  -0.328  -0.323  -0.320  -0.316
 -0.311  -0.310  -0.308  -0.304  -0.301  -0.297  -0.280  -0.274
 -0.271  -0.263  -0.249  -0.243  -0.241  -0.233  -0.232  -0.187
 -0.173  -0.166  -0.163  -0.159  -0.156  -0.154  -0.147  -0.146
 -0.142

          Ground-State Mulliken Net Atomic Charges

     Atom                 Charge (a.u.)
  ----------------------------------------
      1 O                    -0.213580
      2 C                     0.216146
      3 C                    -0.080010
      4 C                    -0.077081
      5 C                     0.221243
      6 O                    -0.183832
      7 C                    -0.062631
      8 C                    -0.048992
      9 O                    -0.200476
     10 C                     0.224609
     11 C                    -0.082408
     12 C                    -0.080943
     13 C                     0.207284
     14 O                    -0.215529
     15 O                    -0.179803
     16 O                    -0.167485
     17 O                    -0.174979
     18 C                    -0.127853
     19 C                     0.020520
     20 C                    -0.145381
     21 C                    -0.143008
     22 C                     0.024691
     23 O                    -0.195699
     24 H                     0.084084
     25 H                     0.086979
     26 H                     0.094724
     27 H                     0.078587
     28 H                     0.073885
     29 H                     0.078876
     30 H                     0.074974
     31 H                     0.086004
     32 O                    -0.200879
     33 C                    -0.129573
     34 C                     0.024094
     35 C                    -0.142241
     36 C                    -0.144879
     37 C                     0.024489
     38 O                    -0.189706
     39 H                     0.083178
     40 H                     0.086574
     41 H                     0.092200
     42 H                     0.091487
     43 H                     0.078258
     44 H                     0.073266
     45 H                     0.078147
     46 H                     0.073389
     47 H                     0.083500
     48 H                     0.088267
     49 H                     0.089909
     50 H                     0.098887
     51 H                     0.092695
     52 H                     0.090960
     53 H                     0.085376
     54 H                     0.086286
     55 H                     0.093707
     56 H                     0.099693
  ----------------------------------------
  Sum of atomic charges =     0.000000

                    Cartesian Multipole Moments
 -----------------------------------------------------------------
    Charge (ESU x 10^10)
                 0.0000
    Dipole Moment (Debye)
         X       2.0431      Y      -0.5246      Z      -2.6645
       Tot       3.3984
    Quadrupole Moments (Debye-Ang)
        XX    -150.5222     XY      11.0490     YY    -161.4060
        XZ       8.0455     YZ      -0.7403     ZZ    -161.0244

 Total job time:  63.54s(wall), 3020.56s(cpu)
        *  Thank you very much for using Q-Chem.  Have a nice day.  *
