 Q-Chem 5.0, Q-Chem, Inc., Pleasanton, CA (2017)
 Q-Chem 5.0.1 for Intel X86 EM64T Linux

User input:
--------------------------------------------------------------
$molecule
0  1
O -3.94934 -3.66094 2.70899
C -3.26408 -4.56952 2.26188
C -3.36658 -6.02376 2.66595
C -2.09215 -6.69516 3.20345
C -0.90361 -5.79095 3.44399
O -0.71023 -4.98095 2.36143
C -0.73146 -3.58772 2.68963
C -1.6137 -3.3487 3.91055
O -2.64657 -2.40338 3.5905
C -3.23902 -1.80486 4.65348
C -4.73589 -2.00302 4.68141
C -5.50042 -1.32248 3.53659
C -4.65983 -0.8616 2.36283
O -4.82244 -1.19846 1.19894
O -2.76292 -4.4304 0.99885
O -3.71686 0.0809 2.63554
O -2.60751 -1.26646 5.55342
C -2.88878 0.65591 1.69465
C -5.57974 -3.29677 4.83028
C -6.88194 -2.99311 5.58404
C -7.64896 -2.20603 4.52477
C -6.67663 -2.30164 3.33744
O -6.11141 -3.56145 3.54477
H -4.97324 -1.44892 5.61942
H -5.9213 -0.35168 3.88521
H -5.01758 -4.10286 5.34207
H -7.4008 -3.96562 5.7441
H -6.76802 -2.48465 6.56553
H -8.59078 -2.75325 4.29739
H -7.88646 -1.15458 4.79521
H -7.2004 -2.14035 2.37114
O -0.26676 -5.70673 4.48915
C -3.01662 -3.38387 0.13783
C -4.32766 -6.35418 3.82393
C -4.757 -7.82377 3.76694
C -3.49677 -8.50911 4.24093
C -2.61241 -7.29478 4.52124
O -3.51751 -6.31627 4.97314
H -3.75437 -6.5531 1.76539
H -1.72765 -7.46944 2.49213
H -2.69184 -2.42172 0.57665
H -5.24339 -5.74755 3.82109
H -5.54881 -7.9782 4.53494
H -5.13789 -8.15804 2.7779
H -3.719 -9.03729 5.19519
H -3.03686 -9.21524 3.51617
H -1.79846 -7.57589 5.22448
H -4.10043 -3.34731 -0.09923
H -2.45572 -3.54777 -0.80472
H -2.22704 1.3919 2.19535
H -3.49179 1.18278 0.92458
H -2.25695 -0.11968 1.21371
H -2.04768 -4.12959 4.56872
H -0.9235 -2.83393 4.61963
H -0.91811 -2.92494 1.82562
H 0.31814 -3.33688 2.96697
$end

$opt
CONSTRAINT
tors           1           2           3           4    -123.158
tors           3           4           5           6     -47.368
tors           4           5           6           7    +123.158
tors           5           6           7           8     -28.421
tors           6           7           8           9    -123.158
tors           7           8           9          10    -161.053
tors           8           9          10          11    -123.158
tors           9          10          11          12     -66.316
tors          11          12          13          14    +123.158
ENDCONSTRAINT
$end

$rem
JOBTYPE                   OPT
METHOD                    B3LYP
DFT_D                     d3_op
BASIS                     STO-3G
GEOM_OPT_MAX_CYCLES       100
GEOM_OPT_TOL_GRADIENT     300
GEOM_OPT_TOL_DISPLACEMENT 1200
GEOM_OPT_TOL_ENERGY       100
SYMMETRY                  False
THRESH                    12
SCF_CONVERGENCE           8
MAX_SUB_FILE_NUM          128
MEM_STATIC                400
MEM_TOTAL                 4000
$end
--------------------------------------------------------------

   15   -1510.0496911818      8.10E-09 Convergence criterion met
 Total energy in the final basis set = -1510.04969118
   14   -1510.1224738962      5.08E-09 Convergence criterion met
 Total energy in the final basis set = -1510.12247390
   14   -1510.1747029043      5.66E-09 Convergence criterion met
 Total energy in the final basis set = -1510.17470290
   14   -1510.2058730669      6.65E-09 Convergence criterion met
 Total energy in the final basis set = -1510.20587307
   14   -1510.2225185960      5.46E-09 Convergence criterion met
 Total energy in the final basis set = -1510.22251860
   14   -1510.2320303011      3.35E-09 Convergence criterion met
 Total energy in the final basis set = -1510.23203030
   14   -1510.2381147957      4.35E-09 Convergence criterion met
 Total energy in the final basis set = -1510.23811480
   13   -1510.2421023641      8.53E-09 Convergence criterion met
    9   -1510.2484337220      4.76E-09 Convergence criterion met
 Total energy in the final basis set = -1510.24843372
    9   -1510.2484381559      6.10E-09 Convergence criterion met
 Total energy in the final basis set = -1510.24843816
    9   -1510.2484408240      7.73E-09 Convergence criterion met
 Total energy in the final basis set = -1510.24844082
    9   -1510.2484442998      8.10E-09 Convergence criterion met
 Total energy in the final basis set = -1510.24844430
    9   -1510.2484462517      6.44E-09 Convergence criterion met
 Total energy in the final basis set = -1510.24844625
    9   -1510.2484474886      5.20E-09 Convergence criterion met
 Total energy in the final basis set = -1510.24844749

             Standard Nuclear Orientation (Angstroms)
    I     Atom           X                Y                Z
 ----------------------------------------------------------------
    1      O      -0.1095293799    -0.5357225693     1.5789320166
    2      C       1.1052447345    -0.7310999747     1.7956442743
    3      C       2.3228891552     0.1439241790     1.3371274350
    4      C       3.4255444899    -0.6009385509     0.4789789497
    5      C       2.9249104091    -1.7607006734    -0.4929619335
    6      O       2.0234447776    -2.6565718501     0.1871156097
    7      C       0.7236733150    -2.7184958632    -0.5435306998
    8      C       0.2251329995    -1.4733205805    -1.3964228451
    9      O      -1.1031227860    -1.0623124765    -0.9042720486
   10      C      -1.7810415542    -0.2489576873    -1.9088945209
   11      C      -2.2243799881     1.1756342767    -1.4217625620
   12      C      -3.3489276264     1.1969879574    -0.3109321809
   13      C      -3.5667874315    -0.2311615069     0.3026349239
   14      O      -3.4871097609    -0.5790732591     1.4978666004
   15      O       1.6133820073    -1.7154169659     2.7125222368
   16      O      -3.8382140354    -1.1226868539    -0.7902989348
   17      O      -1.8917316522    -0.6210627190    -3.0985688696
   18      C      -3.8211242566    -2.5278990332    -0.3256855062
   19      C      -1.1061048505     2.0732047270    -0.7753310588
   20      C      -1.5671376827     3.5810023828    -0.8840269295
   21      C      -2.7021526660     3.6323657422     0.2063275733
   22      C      -2.6632332015     2.1528841195     0.7578261618
   23      O      -1.2237853379     1.7911080118     0.6719669044
   24      H      -2.6087606608     1.6616518439    -2.3376398527
   25      H      -4.3043195479     1.5940923070    -0.6976558152
   26      H      -0.0876454940     1.8679549591    -1.1527508907
   27      H      -0.7319446454     4.2525954097    -0.6284682810
   28      H      -1.9305401033     3.8366221605    -1.8920742838
   29      H      -2.4622151985     4.3511207603     1.0058420842
   30      H      -3.6858306814     3.8905736255    -0.2173430305
   31      H      -3.0300176960     2.0082755859     1.7925777273
   32      O       3.2500128646    -1.8792301802    -1.6930431336
   33      C       0.5112576021    -2.5753352683     3.1980015244
   34      C       1.9847979221     1.4102775851     0.4728876266
   35      C       3.0673979816     2.5059213102     0.7918875127
   36      C       4.3474904005     1.8406589051     0.1637692189
   37      C       3.7328132054     0.5776840747    -0.5513421690
   38      O       2.3403172370     0.9919379745    -0.9083653199
   39      H       2.8065226522     0.4611376495     2.2804975017
   40      H       4.2872512234    -0.9289199382     1.0869480977
   41      H       0.5926484933    -3.5803462928     2.7368988454
   42      H       0.9282266520     1.7245536292     0.5679903851
   43      H       2.8165793993     3.4512283247     0.2842544370
   44      H       3.1668383926     2.6973648042     1.8721980576
   45      H       4.8339862933     2.5034942365    -0.5690500042
   46      H       5.0915567237     1.5550242293     0.9248460909
   47      H       4.2653150897     0.2326159179    -1.4585094119
   48      H      -0.4637147189    -2.1191079921     2.9297829849
   49      H       0.6031408507    -2.6704795682     4.2969123067
   50      H      -4.2240283223    -3.1349291342    -1.1570633442
   51      H      -4.4426788111    -2.6656643697     0.5817296439
   52      H      -2.7807391818    -2.8436661977    -0.1031757269
   53      H       0.9422853237    -0.6165616110    -1.2933785369
   54      H       0.1824602812    -1.7570973920    -2.4702785725
   55      H      -0.0350768172    -2.9051760354     0.2459191777
   56      H       0.7354397426    -3.6102649216    -1.2099244058
 ----------------------------------------------------------------

    9   -1510.2484476153      6.49E-09 Convergence criterion met
 Total energy in the final basis set = -1510.24844762
 Final energy is   -1510.24844761527
 **  OPTIMIZATION CONVERGED  **

                    Orbital Energies (a.u.)
 --------------------------------------------------------------

 Alpha MOs
 -- Occupied --
-18.933 -18.918 -18.917 -18.899 -18.897 -18.890 -18.888 -18.878
-18.875 -18.869 -10.108 -10.098 -10.095 -10.090 -10.066 -10.060
-10.059 -10.058 -10.057 -10.057 -10.054 -10.048 -10.037 -10.036
-10.034 -10.033 -10.022 -10.020 -10.020 -10.019  -1.012  -1.010
 -0.999  -0.993  -0.971  -0.969  -0.940  -0.935  -0.926  -0.922
 -0.763  -0.763  -0.724  -0.722  -0.706  -0.704  -0.692  -0.658
 -0.652  -0.609  -0.596  -0.583  -0.547  -0.545  -0.536  -0.533
 -0.512  -0.503  -0.477  -0.471  -0.463  -0.456  -0.453  -0.440
 -0.431  -0.430  -0.418  -0.411  -0.406  -0.405  -0.404  -0.396
 -0.389  -0.376  -0.368  -0.365  -0.360  -0.355  -0.348  -0.347
 -0.343  -0.337  -0.335  -0.331  -0.330  -0.329  -0.322  -0.313
 -0.308  -0.304  -0.304  -0.296  -0.290  -0.286  -0.275  -0.273
 -0.272  -0.252  -0.245  -0.240  -0.238  -0.232  -0.229  -0.174
 -0.171  -0.165  -0.159  -0.155  -0.154  -0.148  -0.145  -0.141
 -0.138

          Ground-State Mulliken Net Atomic Charges

     Atom                 Charge (a.u.)
  ----------------------------------------
      1 O                    -0.201437
      2 C                     0.209395
      3 C                    -0.081239
      4 C                    -0.077356
      5 C                     0.220173
      6 O                    -0.181538
      7 C                    -0.054369
      8 C                    -0.056660
      9 O                    -0.190630
     10 C                     0.217412
     11 C                    -0.079106
     12 C                    -0.077643
     13 C                     0.218654
     14 O                    -0.203336
     15 O                    -0.172316
     16 O                    -0.169829
     17 O                    -0.202012
     18 C                    -0.128081
     19 C                     0.021120
     20 C                    -0.143058
     21 C                    -0.144937
     22 C                     0.026458
     23 O                    -0.184862
     24 H                     0.083932
     25 H                     0.086210
     26 H                     0.089158
     27 H                     0.076295
     28 H                     0.074593
     29 H                     0.077191
     30 H                     0.073373
     31 H                     0.090326
     32 O                    -0.191457
     33 C                    -0.136574
     34 C                     0.012397
     35 C                    -0.141363
     36 C                    -0.146374
     37 C                     0.020934
     38 O                    -0.199147
     39 H                     0.085443
     40 H                     0.088514
     41 H                     0.082176
     42 H                     0.104181
     43 H                     0.076546
     44 H                     0.074863
     45 H                     0.078401
     46 H                     0.074630
     47 H                     0.090930
     48 H                     0.101783
     49 H                     0.083358
     50 H                     0.090821
     51 H                     0.091166
     52 H                     0.092768
     53 H                     0.089247
     54 H                     0.087711
     55 H                     0.092749
     56 H                     0.080416
  ----------------------------------------
  Sum of atomic charges =    -0.000000

                    Cartesian Multipole Moments
 -----------------------------------------------------------------
    Charge (ESU x 10^10)
                 0.0000
    Dipole Moment (Debye)
         X       0.1552      Y       1.7517      Z       1.2963
       Tot       2.1847
    Quadrupole Moments (Debye-Ang)
        XX    -151.1213     XY       2.9290     YY    -149.0328
        XZ       4.1548     YZ      -3.0624     ZZ    -168.3730

 Total job time:  127.50s(wall), 6086.01s(cpu)
        *  Thank you very much for using Q-Chem.  Have a nice day.  *
