 Q-Chem 5.0, Q-Chem, Inc., Pleasanton, CA (2017)
 Q-Chem 5.0.1 for Intel X86 EM64T Linux

User input:
--------------------------------------------------------------
$molecule
0  1
O -0.1095293799 -0.5357225693 1.5789320166
C 1.1052447345 -0.7310999747 1.7956442743
C 2.3228891552 0.143924179 1.337127435
C 3.4255444899 -0.6009385509 0.4789789497
C 2.9249104091 -1.7607006734 -0.4929619335
O 2.0234447776 -2.6565718501 0.1871156097
C 0.723673315 -2.7184958632 -0.5435306998
C 0.2251329995 -1.4733205805 -1.3964228451
O -1.103122786 -1.0623124765 -0.9042720486
C -1.7810415542 -0.2489576873 -1.9088945209
C -2.2243799881 1.1756342767 -1.421762562
C -3.3489276264 1.1969879574 -0.3109321809
C -3.5667874315 -0.2311615069 0.3026349239
O -3.4871097609 -0.5790732591 1.4978666004
O 1.6133820073 -1.7154169659 2.7125222368
O -3.8382140354 -1.1226868539 -0.7902989348
O -1.8917316522 -0.621062719 -3.0985688696
C -3.8211242566 -2.5278990332 -0.3256855062
C -1.1061048505 2.073204727 -0.7753310588
C -1.5671376827 3.5810023828 -0.8840269295
C -2.702152666 3.6323657422 0.2063275733
C -2.6632332015 2.1528841195 0.7578261618
O -1.2237853379 1.7911080118 0.6719669044
H -2.6087606608 1.6616518439 -2.3376398527
H -4.3043195479 1.594092307 -0.6976558152
H -0.087645494 1.8679549591 -1.1527508907
H -0.7319446454 4.2525954097 -0.628468281
H -1.9305401033 3.8366221605 -1.8920742838
H -2.4622151985 4.3511207603 1.0058420842
H -3.6858306814 3.8905736255 -0.2173430305
H -3.030017696 2.0082755859 1.7925777273
O 3.2500128646 -1.8792301802 -1.6930431336
C 0.5112576021 -2.5753352683 3.1980015244
C 1.9847979221 1.4102775851 0.4728876266
C 3.0673979816 2.5059213102 0.7918875127
C 4.3474904005 1.8406589051 0.1637692189
C 3.7328132054 0.5776840747 -0.551342169
O 2.340317237 0.9919379745 -0.9083653199
H 2.8065226522 0.4611376495 2.2804975017
H 4.2872512234 -0.9289199382 1.0869480977
H 0.5926484933 -3.5803462928 2.7368988454
H 0.928226652 1.7245536292 0.5679903851
H 2.8165793993 3.4512283247 0.284254437
H 3.1668383926 2.6973648042 1.8721980576
H 4.8339862933 2.5034942365 -0.5690500042
H 5.0915567237 1.5550242293 0.9248460909
H 4.2653150897 0.2326159179 -1.4585094119
H -0.4637147189 -2.1191079921 2.9297829849
H 0.6031408507 -2.6704795682 4.2969123067
H -4.2240283223 -3.1349291342 -1.1570633442
H -4.4426788111 -2.6656643697 0.5817296439
H -2.7807391818 -2.8436661977 -0.1031757269
H 0.9422853237 -0.616561611 -1.2933785369
H 0.1824602812 -1.757097392 -2.4702785725
H -0.0350768172 -2.9051760354 0.2459191777
H 0.7354397426 -3.6102649216 -1.2099244058
$end

$rem
JOBTYPE                   OPT
METHOD                    B3LYP
DFT_D                     d3_op
BASIS                     STO-3G
GEOM_OPT_MAX_CYCLES       100
GEOM_OPT_TOL_GRADIENT     300
GEOM_OPT_TOL_DISPLACEMENT 1200
GEOM_OPT_TOL_ENERGY       100
SYMMETRY                  False
THRESH                    12
SCF_CONVERGENCE           8
MAX_SUB_FILE_NUM          128
MEM_STATIC                400
MEM_TOTAL                 4000
$end
--------------------------------------------------------------

   16   -1510.2486481453      5.11E-09 Convergence criterion met
 Total energy in the final basis set = -1510.24864815
   15   -1510.2510191861      3.52E-09 Convergence criterion met
 Total energy in the final basis set = -1510.25101919
   14   -1510.2594781563      6.39E-09 Convergence criterion met
 Total energy in the final basis set = -1510.25947816
   14   -1510.2666377653      5.38E-09 Convergence criterion met
 Total energy in the final basis set = -1510.26663777
   15   -1510.2653882582      2.19E-09 Convergence criterion met
 Total energy in the final basis set = -1510.26538826
   14   -1510.2716295712      2.38E-09 Convergence criterion met
 Total energy in the final basis set = -1510.27162957
   14   -1510.2729495614      8.91E-09 Convergence criterion met
 Total energy in the final basis set = -1510.27294956
   13   -1510.2753372692      7.85E-09 Convergence criterion met
   11   -1510.3020974202      9.36E-09 Convergence criterion met
 Total energy in the final basis set = -1510.30209742
   12   -1510.3021257040      3.80E-09 Convergence criterion met
 Total energy in the final basis set = -1510.30212570
   11   -1510.3021375014      7.01E-09 Convergence criterion met
 Total energy in the final basis set = -1510.30213750
   12   -1510.3021353042      2.89E-09 Convergence criterion met
 Total energy in the final basis set = -1510.30213530
   11   -1510.3021413894      4.63E-09 Convergence criterion met
 Total energy in the final basis set = -1510.30214139
    9   -1510.3021426584      7.63E-09 Convergence criterion met
 Total energy in the final basis set = -1510.30214266

             Standard Nuclear Orientation (Angstroms)
    I     Atom           X                Y                Z
 ----------------------------------------------------------------
    1      O       1.9584771420    -0.0193746437     3.5520467358
    2      C       1.9675644485     0.0813555072     2.3054377562
    3      C       2.9933825907     0.9093734232     1.4534370392
    4      C       3.3777547297     0.2469653061     0.0602378962
    5      C       2.7532697042    -1.1843348655    -0.1435925242
    6      O       1.8071432763    -1.1462575443    -1.2188452157
    7      C       1.1401499251    -2.4614193075    -1.3569364682
    8      C      -0.2475787451    -2.1882939098    -2.0184223040
    9      O      -1.0374154847    -1.2822480473    -1.1520943475
   10      C      -1.2424081105    -0.0251472113    -1.8096596722
   11      C      -2.0640223182     0.9410286120    -0.9029492582
   12      C      -3.1840383890     0.3066719865     0.0257565621
   13      C      -3.1195855013    -1.2565518673     0.1576626339
   14      O      -2.6234655763    -1.9240838452     1.0942390907
   15      O       1.0237271766    -0.5345205961     1.4282823827
   16      O      -3.8246774334    -1.8363089851    -0.9458034269
   17      O      -0.7972980040     0.2406226118    -2.9491329556
   18      C      -3.7833014844    -3.3131014349    -0.8485554443
   19      C      -1.1519027599     1.6815088684     0.1825528514
   20      C      -1.8720571219     3.0402668530     0.5343071930
   21      C      -3.1129105485     2.5205767197     1.3546562667
   22      C      -2.8152289407     0.9697461851     1.4155287184
   23      O      -1.3387301674     0.8883238810     1.4153048895
   24      H      -2.5155654148     1.6851918341    -1.5823674565
   25      H      -4.1913910099     0.5827287965    -0.3346210625
   26      H      -0.0648692302     1.7406847788    -0.0780065117
   27      H      -1.2163497817     3.6695587964     1.1575293501
   28      H      -2.1607732833     3.6117370301    -0.3620295661
   29      H      -3.1396648168     2.9484589897     2.3692906750
   30      H      -4.0717681931     2.7376365319     0.8568102361
   31      H      -3.2322888021     0.4382166326     2.2926783239
   32      O       3.0781398152    -2.2267509022     0.4665778232
   33      C       0.1633672935    -1.4936883186     2.1660775613
   34      C       2.3856653388     2.2932920872     0.9640907836
   35      C       3.5646331195     3.2086948502     0.4464592754
   36      C       3.8802696684     2.5475199338    -0.9476977512
   37      C       2.8560498085     1.3462697389    -0.9569643940
   38      O       1.6745972595     1.9301509245    -0.2796172701
   39      H       3.8849321874     1.0728697741     2.0840588725
   40      H       4.4752108155     0.1371865745    -0.0122023902
   41      H       0.6252452243    -2.5015609392     2.1177268821
   42      H       1.6915891572     2.7719163755     1.6819973374
   43      H       3.2219103745     4.2493465195     0.3320852975
   44      H       4.4284917021     3.1934665098     1.1297597835
   45      H       3.6670083686     3.2391219517    -1.7782948154
   46      H       4.9239874296     2.2053299625    -1.0313454656
   47      H       2.5731010881     0.9569938702    -1.9534757574
   48      H      -0.8409715283    -1.5065562978     1.6852650220
   49      H       0.0808444156    -1.1881655830     3.2268150298
   50      H      -4.2640205255    -3.6950736053    -1.7679451205
   51      H      -4.3393424904    -3.6796428404     0.0387461219
   52      H      -2.7418315601    -3.6878619264    -0.7875284339
   53      H      -0.1192929592    -1.6917401641    -3.0055893593
   54      H      -0.8079767121    -3.1392635373    -2.1353855917
   55      H       1.0235319649    -2.9419068356    -0.3628670429
   56      H       1.7389842652    -3.1415975071    -2.0040553532
 ----------------------------------------------------------------

    9   -1510.3021420560      2.82E-09 Convergence criterion met
 Total energy in the final basis set = -1510.30214206
 Final energy is   -1510.30214205600
 **  OPTIMIZATION CONVERGED  **

                    Orbital Energies (a.u.)
 --------------------------------------------------------------

 Alpha MOs
 -- Occupied --
-18.935 -18.933 -18.925 -18.924 -18.904 -18.876 -18.873 -18.872
-18.865 -18.860 -10.101 -10.098 -10.096 -10.090 -10.070 -10.069
-10.067 -10.064 -10.064 -10.051 -10.037 -10.036 -10.034 -10.033
-10.030 -10.028 -10.024 -10.023 -10.013 -10.009  -1.016  -1.008
 -1.004  -0.995  -0.980  -0.960  -0.937  -0.933  -0.927  -0.924
 -0.765  -0.757  -0.726  -0.719  -0.712  -0.703  -0.691  -0.662
 -0.639  -0.612  -0.594  -0.576  -0.548  -0.541  -0.537  -0.528
 -0.512  -0.505  -0.487  -0.476  -0.467  -0.459  -0.441  -0.437
 -0.433  -0.424  -0.417  -0.416  -0.406  -0.405  -0.402  -0.400
 -0.389  -0.376  -0.369  -0.362  -0.356  -0.354  -0.351  -0.346
 -0.343  -0.339  -0.332  -0.329  -0.327  -0.321  -0.320  -0.307
 -0.305  -0.302  -0.299  -0.295  -0.292  -0.289  -0.288  -0.274
 -0.264  -0.251  -0.248  -0.238  -0.234  -0.231  -0.218  -0.178
 -0.174  -0.168  -0.161  -0.158  -0.155  -0.149  -0.146  -0.140
 -0.134

          Ground-State Mulliken Net Atomic Charges

     Atom                 Charge (a.u.)
  ----------------------------------------
      1 O                    -0.213128
      2 C                     0.211856
      3 C                    -0.078852
      4 C                    -0.079079
      5 C                     0.218427
      6 O                    -0.174217
      7 C                    -0.046517
      8 C                    -0.052348
      9 O                    -0.170445
     10 C                     0.216359
     11 C                    -0.081156
     12 C                    -0.079523
     13 C                     0.223580
     14 O                    -0.218726
     15 O                    -0.165225
     16 O                    -0.171500
     17 O                    -0.215052
     18 C                    -0.127851
     19 C                     0.006101
     20 C                    -0.143774
     21 C                    -0.145757
     22 C                     0.024603
     23 O                    -0.191376
     24 H                     0.084254
     25 H                     0.083986
     26 H                     0.117161
     27 H                     0.072720
     28 H                     0.071123
     29 H                     0.075596
     30 H                     0.070757
     31 H                     0.082846
     32 O                    -0.225723
     33 C                    -0.140790
     34 C                     0.028329
     35 C                    -0.143513
     36 C                    -0.143366
     37 C                     0.028100
     38 O                    -0.188320
     39 H                     0.086178
     40 H                     0.083778
     41 H                     0.074341
     42 H                     0.087590
     43 H                     0.078796
     44 H                     0.076088
     45 H                     0.079211
     46 H                     0.074996
     47 H                     0.097035
     48 H                     0.117993
     49 H                     0.092418
     50 H                     0.089149
     51 H                     0.087962
     52 H                     0.087817
     53 H                     0.104804
     54 H                     0.082565
     55 H                     0.097244
     56 H                     0.082475
  ----------------------------------------
  Sum of atomic charges =     0.000000

                    Cartesian Multipole Moments
 -----------------------------------------------------------------
    Charge (ESU x 10^10)
                 0.0000
    Dipole Moment (Debye)
         X      -0.6304      Y       0.7985      Z      -1.9553
       Tot       2.2041
    Quadrupole Moments (Debye-Ang)
        XX    -146.4967     XY       8.5725     YY    -148.5618
        XZ      -4.9666     YZ       8.6203     ZZ    -171.0972

 Total job time:  290.37s(wall), 13637.68s(cpu)
        *  Thank you very much for using Q-Chem.  Have a nice day.  *
