 Q-Chem 5.0, Q-Chem, Inc., Pleasanton, CA (2017)
 Q-Chem 5.0.1 for Intel X86 EM64T Linux

User input:
--------------------------------------------------------------
$molecule
0  1
O -2.1351065396 -1.0489085568 -2.2244764045
C -1.4591740376 -0.9277718594 -1.2128206383
C -1.9560210431 -1.1310325346 0.2015417423
C -2.2122578697 0.1291884823 1.0441721374
C -2.113475898 1.4547715072 0.3222419832
O -0.8135892558 1.873133481 0.2960621228
C -0.6779453782 3.2735539049 0.0320931771
C 0.7378556121 3.5842849014 -0.4423445493
O 1.6596398325 2.6322499419 0.1115758406
C 1.2856845087 1.3324920949 0.0118944874
C 2.0220573285 0.4328122114 0.9757425748
C 1.9934844323 -1.0603402893 0.6180640095
C 1.5599211527 -1.3930407735 -0.7954556609
O 0.5807170908 -0.9316395708 -1.3636412255
O -1.0424982847 0.3903992797 -1.4511531502
O 2.3748399559 -2.2049953888 -1.5239397241
O 1.4350096047 1.1097345355 -1.1696047171
C 2.131767141 -2.5911549559 -2.8257912173
C 3.5598310875 0.6455393618 1.0277153251
C 4.0778446434 0.2083315818 2.3966881766
C 3.8851400704 -1.2913195341 2.3027643652
C 3.4751847292 -1.4211757835 0.8295945987
O 4.1105264198 -0.3429809643 0.1910690699
H 1.622093524 0.6670810869 1.9881421639
H 1.2873892466 -1.6001799194 1.2855303315
H 3.8824228837 1.6886031742 0.8216120248
H 5.1700702803 0.4274600145 2.4044528694
H 3.6077638325 0.6905200921 3.280739708
H 4.8620720553 -1.7835910435 2.5049622667
H 3.0979907291 -1.711511001 2.9660777326
H 3.7332572413 -2.4359337946 0.4569651445
O -3.0776929625 2.165102432 0.0530984092
C -1.0409541125 1.1548425876 -2.6466043274
C -3.3635801927 -1.7675025593 0.2246774131
C -3.6035637286 -2.460960127 1.5652656203
C -3.7812605891 -1.2633710113 2.4698605831
C -3.681909174 -0.1280495853 1.4464203677
O -4.2410045987 -0.672940075 0.2788348903
H -1.2462089991 -1.8420636336 0.6780532837
H -1.5792746574 0.191346427 1.9581182565
H -1.7120038579 2.0290297456 -2.5250553163
H -3.5333814996 -2.4906733749 -0.6031222346
H -4.576073867 -2.9990974535 1.4958833488
H -2.8088202641 -3.1750439227 1.8710999202
H -4.8069258664 -1.2981328399 2.9006312922
H -3.0316362109 -1.1651415648 3.2845739633
H -4.1814960765 0.7803583607 1.8499071629
H -1.369836907 0.5993064197 -3.5497233601
H -0.034157217 1.5308283541 -2.8955061436
H 2.9528913663 -3.2536143823 -3.1681510159
H 2.0888432728 -1.7003491553 -3.48818505
H 1.1730032032 -3.1497753867 -2.8850906861
H 0.751846999 3.4491906392 -1.5463279787
H 1.0377265565 4.6347380953 -0.2444330047
H -0.8275418546 3.7871016928 1.0069712417
H -1.3985161053 3.6957167334 -0.7050478216
$end

$rem
JOBTYPE                   OPT
METHOD                    B3LYP
DFT_D                     d3_op
BASIS                     STO-3G
GEOM_OPT_MAX_CYCLES       100
GEOM_OPT_TOL_GRADIENT     300
GEOM_OPT_TOL_DISPLACEMENT 1200
GEOM_OPT_TOL_ENERGY       100
SYMMETRY                  False
THRESH                    12
SCF_CONVERGENCE           8
MAX_SUB_FILE_NUM          128
MEM_STATIC                400
MEM_TOTAL                 4000
$end
--------------------------------------------------------------

   17   -1509.9394863185      3.12E-09 Convergence criterion met
 Total energy in the final basis set = -1509.93948632
   16   -1510.0116339832      4.20E-09 Convergence criterion met
 Total energy in the final basis set = -1510.01163398
   15   -1510.0994426952      3.30E-09 Convergence criterion met
 Total energy in the final basis set = -1510.09944270
   15   -1510.1512740919      4.37E-09 Convergence criterion met
 Total energy in the final basis set = -1510.15127409
   15   -1510.1945776854      3.33E-09 Convergence criterion met
 Total energy in the final basis set = -1510.19457769
   14   -1510.2195871723      1.00E-08 Convergence criterion met
 Total energy in the final basis set = -1510.21958717
   14   -1510.2386749079      6.89E-09 Convergence criterion met
 Total energy in the final basis set = -1510.23867491
   13   -1510.2525557434      8.90E-09 Convergence criterion met
   11   -1510.3053523669      4.68E-09 Convergence criterion met
 Total energy in the final basis set = -1510.30535237
   12   -1510.3053556229      2.11E-09 Convergence criterion met
 Total energy in the final basis set = -1510.30535562
   10   -1510.3053520182      7.44E-09 Convergence criterion met
 Total energy in the final basis set = -1510.30535202
    9   -1510.3053570395      6.39E-09 Convergence criterion met
 Total energy in the final basis set = -1510.30535704
    9   -1510.3053578784      2.09E-09 Convergence criterion met
 Total energy in the final basis set = -1510.30535788
    9   -1510.3053578234      3.99E-09 Convergence criterion met
 Total energy in the final basis set = -1510.30535782

             Standard Nuclear Orientation (Angstroms)
    I     Atom           X                Y                Z
 ----------------------------------------------------------------
    1      O      -3.3874501358     0.1935668504    -2.9418514656
    2      C      -2.5005998831    -0.2498464451    -2.1830468654
    3      C      -2.6747192649    -1.0260556211    -0.8313468642
    4      C      -2.1209408908    -0.2679093173     0.4387488341
    5      C      -1.7999181216     1.2253782077     0.1164398711
    6      O      -1.3250082957     1.8786349158     1.3020450191
    7      C      -0.9705053825     3.2860498010     1.0012289055
    8      C       0.3885043352     3.3906089794     0.2139855699
    9      O       1.4890289942     2.7461875670     0.9723556738
   10      C       1.5564039451     1.3520743263     0.6683398935
   11      C       2.6778316954     0.7020627138     1.5397303997
   12      C       2.6361170273    -0.8816655469     1.5079597934
   13      C       1.4332796123    -1.4700446393     0.6745615498
   14      O       0.2936361778    -1.7312128699     1.1342919650
   15      O      -1.0965078840    -0.2937279622    -2.5230501443
   16      O       1.8800438751    -1.8031670382    -0.6326818527
   17      O       0.8438778780     0.7736328636    -0.1848508714
   18      C       0.7612926399    -2.3212782435    -1.4575609003
   19      C       4.1203203763     0.9788197757     0.9253704228
   20      C       5.1996904846     0.6201921088     2.0212582364
   21      C       5.1592409386    -0.9523363572     1.9812574963
   22      C       4.0562726689    -1.2033141045     0.8779861836
   23      O       4.2707401302    -0.0936065300    -0.0817812481
   24      H       2.5978880886     1.0979038478     2.5678631562
   25      H       2.5453944938    -1.2801650619     2.5343415918
   26      H       4.2328146287     1.9765050691     0.4580991243
   27      H       6.1881724591     1.0082777922     1.7281571632
   28      H       4.9381236435     1.0294486940     3.0101374140
   29      H       6.1256083654    -1.3728398211     1.6606571320
   30      H       4.8851715778    -1.3967316363     2.9513613404
   31      H       4.1156081643    -2.1785624155     0.3587956318
   32      O      -1.9600128501     1.8117426789    -0.9789313013
   33      C      -0.8358464335     0.4448936012    -3.7747943985
   34      C      -4.1920225973    -1.2492721308    -0.4249438755
   35      C      -4.2382089640    -2.4841473678     0.5558126681
   36      C      -3.5760518541    -1.8626514745     1.8425696467
   37      C      -3.3804358808    -0.3582522466     1.3966338351
   38      O      -4.5058807806    -0.1063694255     0.4650037379
   39      H      -2.1559037250    -1.9944597280    -0.9405501450
   40      H      -1.2123032680    -0.7733457024     0.8437116842
   41      H      -0.3017427973     1.3886566896    -3.5446804392
   42      H      -4.8948255419    -1.2776848867    -1.2802997893
   43      H      -5.2806612812    -2.7864874995     0.7451163857
   44      H      -3.6815169989    -3.3510195390     0.1655287991
   45      H      -4.2439000653    -1.9271476992     2.7160641771
   46      H      -2.6138407580    -2.3376010780     2.0927157931
   47      H      -3.3797092208     0.3826840703     2.2197286963
   48      H      -1.8004842982     0.6748452225    -4.2710474617
   49      H      -0.2030472647    -0.1851531325    -4.4292879338
   50      H       1.2341474828    -2.8143684233    -2.3266288939
   51      H       0.0949771434    -1.4923759722    -1.8082430055
   52      H       0.1637278408    -3.0631631087    -0.8909506946
   53      H       0.2706297417     2.9168237418    -0.7830751122
   54      H       0.6699620948     4.4567586390     0.0985196156
   55      H      -0.8788259392     3.7849295055     1.9865929966
   56      H      -1.7666683739     3.7807114616     0.4032562381
 ----------------------------------------------------------------

    8   -1510.3053570984      7.11E-09 Convergence criterion met
 Total energy in the final basis set = -1510.30535710
 Final energy is   -1510.30535709839
 **  OPTIMIZATION CONVERGED  **

                    Orbital Energies (a.u.)
 --------------------------------------------------------------

 Alpha MOs
 -- Occupied --
-18.945 -18.934 -18.927 -18.921 -18.890 -18.889 -18.877 -18.875
-18.862 -18.861 -10.110 -10.099 -10.098 -10.091 -10.078 -10.077
-10.064 -10.059 -10.049 -10.049 -10.048 -10.043 -10.036 -10.036
-10.023 -10.023 -10.021 -10.016 -10.011 -10.009  -1.026  -1.010
 -1.001  -0.996  -0.972  -0.960  -0.948  -0.936  -0.927  -0.924
 -0.765  -0.753  -0.729  -0.720  -0.710  -0.704  -0.691  -0.651
 -0.647  -0.621  -0.594  -0.576  -0.547  -0.539  -0.536  -0.527
 -0.516  -0.501  -0.487  -0.471  -0.463  -0.451  -0.449  -0.445
 -0.435  -0.424  -0.423  -0.420  -0.408  -0.405  -0.400  -0.396
 -0.392  -0.378  -0.371  -0.367  -0.364  -0.352  -0.349  -0.343
 -0.342  -0.334  -0.332  -0.331  -0.325  -0.323  -0.315  -0.314
 -0.306  -0.303  -0.301  -0.297  -0.292  -0.282  -0.280  -0.270
 -0.264  -0.258  -0.249  -0.246  -0.236  -0.229  -0.223  -0.197
 -0.171  -0.167  -0.163  -0.161  -0.152  -0.148  -0.144  -0.141
 -0.134

          Ground-State Mulliken Net Atomic Charges

     Atom                 Charge (a.u.)
  ----------------------------------------
      1 O                    -0.216558
      2 C                     0.222682
      3 C                    -0.082026
      4 C                    -0.090946
      5 C                     0.221598
      6 O                    -0.173820
      7 C                    -0.050551
      8 C                    -0.054218
      9 O                    -0.170884
     10 C                     0.217014
     11 C                    -0.078498
     12 C                    -0.080808
     13 C                     0.222485
     14 O                    -0.235048
     15 O                    -0.176470
     16 O                    -0.165328
     17 O                    -0.206319
     18 C                    -0.146793
     19 C                     0.025597
     20 C                    -0.143563
     21 C                    -0.144389
     22 C                     0.026128
     23 O                    -0.186672
     24 H                     0.087902
     25 H                     0.083175
     26 H                     0.084223
     27 H                     0.078439
     28 H                     0.073955
     29 H                     0.078116
     30 H                     0.073451
     31 H                     0.089560
     32 O                    -0.212515
     33 C                    -0.131691
     34 C                     0.023311
     35 C                    -0.142710
     36 C                    -0.144774
     37 C                     0.023336
     38 O                    -0.193948
     39 H                     0.084197
     40 H                     0.117643
     41 H                     0.084764
     42 H                     0.086882
     43 H                     0.075505
     44 H                     0.072037
     45 H                     0.074847
     46 H                     0.079506
     47 H                     0.082401
     48 H                     0.101273
     49 H                     0.082790
     50 H                     0.080071
     51 H                     0.116540
     52 H                     0.077968
     53 H                     0.103381
     54 H                     0.091249
     55 H                     0.090761
     56 H                     0.095737
  ----------------------------------------
  Sum of atomic charges =     0.000000

                    Cartesian Multipole Moments
 -----------------------------------------------------------------
    Charge (ESU x 10^10)
                 0.0000
    Dipole Moment (Debye)
         X       2.9553      Y       0.2264      Z       2.0746
       Tot       3.6179
    Quadrupole Moments (Debye-Ang)
        XX    -167.5942     XY       5.2783     YY    -146.9969
        XZ       1.5138     YZ       2.9020     ZZ    -156.3326

 Total job time:  252.95s(wall), 12080.34s(cpu)
        *  Thank you very much for using Q-Chem.  Have a nice day.  *
