 Q-Chem 5.0, Q-Chem, Inc., Pleasanton, CA (2017)
 Q-Chem 5.0.1 for Intel X86 EM64T Linux

User input:
--------------------------------------------------------------
$molecule
0  1
O -4.8151835847 -0.0537529505 0.8201239214
C -4.4108579277 -0.1085598518 -0.360985019
C -3.0501420764 -0.6807121194 -0.8885701782
C -1.8410634526 0.3641991044 -0.8486900589
C -2.288062859 1.7671960806 -0.2536854493
O -1.6106726461 2.3349101091 0.9017008687
C -0.203355133 2.6959544838 0.6004553977
C 0.7231547024 2.3747215376 1.8377809007
O 0.8313926968 0.9333117196 2.1269518124
C 2.0094176528 0.1805227691 1.7833549634
C 3.2421416844 0.6806046754 0.8864870582
C 3.7170886261 -0.5527958901 -0.0014421634
C 3.5534974108 -1.9817112847 0.6394807102
O 4.1664161813 -2.4205425698 1.6356228077
O -5.187920082 0.2918567236 -1.4984171097
O 2.5691648209 -2.7298951541 -0.0945605669
O 1.9551267303 -1.0036248661 2.1887127003
C 2.3551573327 -4.0456496616 0.5516952157
C 2.8302711792 1.6401451134 -0.3125250353
C 4.0649588904 1.9254737484 -1.2662664149
C 4.0593328925 0.6519749104 -2.1891423438
C 3.0284369519 -0.2390167771 -1.4018983516
O 1.9517183832 0.7365953057 -1.0955812252
H 4.0483096879 1.0747419332 1.5321482572
H 4.8103727111 -0.4440063259 -0.1308120499
H 2.2955244879 2.5601969949 -0.0382794653
H 3.8969325272 2.8501563689 -1.8401661216
H 5.0029808519 2.0318093153 -0.6977093701
H 3.6784261696 0.886900566 -3.1962939956
H 5.0503097431 0.1799528949 -2.2810070665
H 2.6237844735 -1.1202708134 -1.9338445926
O -3.3568988308 2.3150990678 -0.6066939454
C -6.4501906528 0.921120567 -1.049877031
C -2.4900536504 -1.8523976165 0.0194021759
C -1.4055215124 -2.649599463 -0.8056164789
C -0.219808118 -1.6145849106 -0.8234191164
C -0.8205764863 -0.4486239134 0.056785163
O -1.6906033922 -1.1394782246 1.0340557447
H -3.2181106005 -1.0158149677 -1.9278827654
H -1.4423824173 0.5324878892 -1.8658358004
H -6.254302595 1.8724111565 -0.5137711732
H -3.2746210469 -2.4681597299 0.5002537318
H -1.1292028575 -3.5732915771 -0.2721024928
H -1.7582492508 -2.9169263475 -1.8147905086
H 0.708758331 -2.0216444671 -0.3815156662
H 0.0096763834 -1.2670705077 -1.842969906
H -0.0937898183 0.1594122468 0.6197973412
H -7.0284608574 0.2508875955 -0.3813952979
H -7.0336877354 1.1274585841 -1.9659839818
H 1.5815591081 -4.557715352 -0.0495116828
H 1.9985519872 -3.9244439168 1.5947679048
H 3.2836865853 -4.6517922637 0.5597873483
H 1.7081849096 2.8692376358 1.7279216894
H 0.2330750773 2.8066168519 2.7379098708
H -0.1443066383 3.7936333265 0.4147924815
H 0.1760944066 2.1721014713 -0.3021949423
$end

$rem
JOBTYPE                   OPT
METHOD                    B3LYP
DFT_D                     d3_op
BASIS                     STO-3G
GEOM_OPT_MAX_CYCLES       100
GEOM_OPT_TOL_GRADIENT     300
GEOM_OPT_TOL_DISPLACEMENT 1200
GEOM_OPT_TOL_ENERGY       100
SYMMETRY                  False
THRESH                    12
SCF_CONVERGENCE           8
MAX_SUB_FILE_NUM          128
MEM_STATIC                400
MEM_TOTAL                 4000
$end
--------------------------------------------------------------

   16   -1510.2376732651      6.13E-09 Convergence criterion met
 Total energy in the final basis set = -1510.23767327
   14   -1510.2399909537      4.65E-09 Convergence criterion met
 Total energy in the final basis set = -1510.23999095
   14   -1510.2446516231      2.47E-09 Convergence criterion met
 Total energy in the final basis set = -1510.24465162
   14   -1510.2103387006      8.46E-09 Convergence criterion met
 Total energy in the final basis set = -1510.21033870
   14   -1510.2473234714      4.17E-09 Convergence criterion met
 Total energy in the final basis set = -1510.24732347
   14   -1510.2475428281      2.69E-09 Convergence criterion met
 Total energy in the final basis set = -1510.24754283
   13   -1510.2509761901      6.38E-09 Convergence criterion met
 Total energy in the final basis set = -1510.25097619
   13   -1510.2541063820      4.44E-09 Convergence criterion met
   13   -1510.2703303692      3.02E-09 Convergence criterion met
 Total energy in the final basis set = -1510.27033037
   12   -1510.2704271692      4.68E-09 Convergence criterion met
 Total energy in the final basis set = -1510.27042717
   12   -1510.2704130944      3.58E-09 Convergence criterion met
 Total energy in the final basis set = -1510.27041309
   11   -1510.2704378501      4.53E-09 Convergence criterion met
 Total energy in the final basis set = -1510.27043785
   11   -1510.2704513014      5.70E-09 Convergence criterion met
 Total energy in the final basis set = -1510.27045130
   11   -1510.2704602841      4.92E-09 Convergence criterion met
 Total energy in the final basis set = -1510.27046028

             Standard Nuclear Orientation (Angstroms)
    I     Atom           X                Y                Z
 ----------------------------------------------------------------
    1      O      -4.4993081889    -0.3806618857     0.1221538603
    2      C      -3.5295145919     0.0944790944    -0.5046437109
    3      C      -2.1191864450    -0.5442700542    -0.7356641632
    4      C      -1.2366468131    -0.5936679952     0.5842196067
    5      C      -1.8846555625     0.0797505471     1.8617079963
    6      O      -2.2468251425     1.4848115996     1.8218457006
    7      C      -1.4497232947     2.3062458629     0.8961054185
    8      C      -0.0235682139     2.6562111649     1.4941972209
    9      O       0.5843766350     1.4683886094     2.1299655956
   10      C       1.6130685462     0.7642066550     1.4264861125
   11      C       2.2529206196     1.3277689991     0.0939414566
   12      C       3.4471129670     0.4007244133    -0.3991392535
   13      C       3.7746399639    -0.8366947522     0.5238494088
   14      O       4.6994034785    -0.8986519610     1.3623045419
   15      O      -3.5436278386     1.3795651478    -1.1480470940
   16      O       2.9879076482    -1.9652453847     0.0981076251
   17      O       2.0021063916    -0.2964865896     1.9732936232
   18      C       3.2823925301    -3.1273044900     0.9649912633
   19      C       1.3081439178     1.2711057532    -1.1877102469
   20      C       1.9653248335     2.1414818868    -2.3303844093
   21      C       3.1090613728     1.1818181027    -2.8245574001
   22      C       2.9290192460    -0.0343790151    -1.8356878506
   23      O       1.4586123084    -0.1194175850    -1.6628415404
   24      H       2.6100504218     2.3566071529     0.2804580123
   25      H       4.3755990798     0.9946048977    -0.4705091499
   26      H       0.2428598737     1.4949434427    -1.0076557829
   27      H       1.2313019587     2.3421079577    -3.1266590556
   28      H       2.3483076506     3.1027903830    -1.9520929470
   29      H       2.9426845508     0.8595497139    -3.8648133166
   30      H       4.1103212148     1.6353400719    -2.7508252869
   31      H       3.3299800060    -1.0023526130    -2.1917412755
   32      O      -2.2039377736    -0.5509143264     2.8902433486
   33      C      -4.8348326833     2.0566765258    -0.8915425393
   34      C      -2.2117956983    -2.0935161895    -1.0692936774
   35      C      -0.7868673061    -2.5653157413    -1.5727406279
   36      C      -0.0048007045    -2.6922433170    -0.2139138166
   37      C      -1.0867236305    -2.1591621587     0.7990259737
   38      O      -2.3541885363    -2.7125670114     0.2653550292
   39      H      -1.6087784020     0.0173608378    -1.5377051771
   40      H      -0.2505851451    -0.1515137144     0.3877914492
   41      H      -4.9815114071     2.2501377992     0.1910727340
   42      H      -3.0645635556    -2.3703722730    -1.7191108136
   43      H      -0.8585398892    -3.5302815512    -2.0987228247
   44      H      -0.3207865835    -1.8238080417    -2.2423709388
   45      H       0.2256316925    -3.7451823955     0.0132064287
   46      H       0.9365539542    -2.1100133862    -0.1999248379
   47      H      -0.9550387289    -2.4495050919     1.8593379466
   48      H      -5.6917793149     1.4568136333    -1.2597157998
   49      H      -4.7928680199     3.0170021386    -1.4376639761
   50      H       2.7680444958    -3.9922792731     0.5082592325
   51      H       2.8941369403    -2.9642206178     1.9912740456
   52      H       4.3717717804    -3.3243936380     1.0243810837
   53      H       0.6129012466     3.1173690555     0.7131511455
   54      H      -0.1559830575     3.3880728134     2.3179582299
   55      H      -2.0126800635     3.2551623774     0.7781885815
   56      H      -1.3631289647     1.8459906277    -0.1076922855
 ----------------------------------------------------------------

    9   -1510.2704609912      5.75E-09 Convergence criterion met
 Total energy in the final basis set = -1510.27046099
 Final energy is   -1510.27046099116
 **  OPTIMIZATION CONVERGED  **

                    Orbital Energies (a.u.)
 --------------------------------------------------------------

 Alpha MOs
 -- Occupied --
-18.959 -18.933 -18.930 -18.926 -18.908 -18.904 -18.879 -18.878
-18.877 -18.863 -10.125 -10.098 -10.098 -10.097 -10.095 -10.086
-10.082 -10.073 -10.065 -10.060 -10.056 -10.053 -10.046 -10.046
-10.038 -10.036 -10.034 -10.032 -10.006  -9.997  -1.032  -1.012
 -1.004  -1.001  -0.989  -0.961  -0.959  -0.937  -0.935  -0.929
 -0.778  -0.758  -0.737  -0.727  -0.723  -0.711  -0.696  -0.663
 -0.657  -0.621  -0.611  -0.593  -0.566  -0.553  -0.546  -0.531
 -0.527  -0.506  -0.498  -0.481  -0.477  -0.465  -0.462  -0.452
 -0.446  -0.436  -0.426  -0.424  -0.416  -0.412  -0.410  -0.408
 -0.403  -0.394  -0.386  -0.376  -0.365  -0.359  -0.351  -0.350
 -0.347  -0.346  -0.341  -0.335  -0.333  -0.328  -0.325  -0.321
 -0.315  -0.310  -0.303  -0.297  -0.293  -0.292  -0.282  -0.280
 -0.272  -0.262  -0.256  -0.256  -0.247  -0.239  -0.223  -0.200
 -0.179  -0.171  -0.170  -0.167  -0.164  -0.154  -0.145  -0.145
 -0.134

          Ground-State Mulliken Net Atomic Charges

     Atom                 Charge (a.u.)
  ----------------------------------------
      1 O                    -0.202901
      2 C                     0.203217
      3 C                    -0.082797
      4 C                    -0.087013
      5 C                     0.213643
      6 O                    -0.172975
      7 C                    -0.050288
      8 C                    -0.052352
      9 O                    -0.163775
     10 C                     0.211904
     11 C                    -0.085147
     12 C                    -0.081214
     13 C                     0.217495
     14 O                    -0.219645
     15 O                    -0.178297
     16 O                    -0.174805
     17 O                    -0.184173
     18 C                    -0.127770
     19 C                     0.019177
     20 C                    -0.144507
     21 C                    -0.143865
     22 C                     0.026342
     23 O                    -0.188834
     24 H                     0.083768
     25 H                     0.085363
     26 H                     0.076763
     27 H                     0.080391
     28 H                     0.073685
     29 H                     0.080704
     30 H                     0.077022
     31 H                     0.092567
     32 O                    -0.186288
     33 C                    -0.130449
     34 C                     0.026335
     35 C                    -0.146401
     36 C                    -0.152534
     37 C                     0.025361
     38 O                    -0.186897
     39 H                     0.079901
     40 H                     0.078860
     41 H                     0.091590
     42 H                     0.081168
     43 H                     0.072999
     44 H                     0.078076
     45 H                     0.069550
     46 H                     0.095225
     47 H                     0.092423
     48 H                     0.090977
     49 H                     0.086928
     50 H                     0.088588
     51 H                     0.093667
     52 H                     0.089108
     53 H                     0.085394
     54 H                     0.097911
     55 H                     0.092826
     56 H                     0.083998
  ----------------------------------------
  Sum of atomic charges =     0.000000

                    Cartesian Multipole Moments
 -----------------------------------------------------------------
    Charge (ESU x 10^10)
                 0.0000
    Dipole Moment (Debye)
         X       2.4754      Y       4.8926      Z      -5.2172
       Tot       7.5687
    Quadrupole Moments (Debye-Ang)
        XX    -171.3756     XY      -6.5200     YY    -147.2158
        XZ       2.0817     YZ       2.0663     ZZ    -170.3921

 Total job time:  268.32s(wall), 12807.59s(cpu)
        *  Thank you very much for using Q-Chem.  Have a nice day.  *
