 Q-Chem 5.0, Q-Chem, Inc., Pleasanton, CA (2017)
 Q-Chem 5.0.1 for Intel X86 EM64T Linux

User input:
--------------------------------------------------------------
$molecule
0  1
O -3.94934 -3.66094 2.70899
C -3.26408 -4.56952 2.26188
C -3.36658 -6.02376 2.66595
C -2.57813 -6.46456 3.91009
C -1.91791 -5.36653 4.71416
O -2.35444 -5.41196 6.00753
C -1.93723 -6.59245 6.70153
C -3.04922 -7.08032 7.62436
O -4.17262 -7.52198 6.84605
C -4.32285 -8.86634 6.74971
C -3.14122 -9.63113 7.29697
C -2.76362 -10.89202 6.50588
C -3.36746 -11.00861 5.12078
O -4.55691 -11.14884 4.87561
O -2.42291 -4.29715 1.22865
O -2.48697 -11.15434 4.09093
O -5.41387 -9.3597 6.51206
C -2.77906 -11.73956 2.8733
C -1.5816 -9.37275 7.70699
C -1.09729 -10.40564 8.7518
C -0.79171 -11.57709 7.86964
C -1.23912 -11.01396 6.53304
O -0.83088 -9.68848 6.56611
H -3.5861 -9.9549 8.26448
H -3.19789 -11.79278 6.99886
H -1.20751 -8.46178 8.19575
H -0.13508 -10.0865 9.21713
H -1.83933 -10.58959 9.55801
H 0.31196 -11.72183 7.82229
H -1.28014 -12.5319 8.16145
H -0.80817 -11.63918 5.72184
O -1.18826 -4.49019 4.27732
C -2.22616 -3.04032 0.69597
C -4.80057 -6.46343 3.01256
C -5.007 -7.79654 2.35297
C -3.94546 -8.56907 3.10223
C -3.56763 -7.5632 4.2431
O -4.74175 -6.81665 4.37873
H -2.97674 -6.57085 1.76997
H -1.67024 -6.991 3.53515
H -1.83055 -2.35334 1.47448
H -5.60091 -5.74022 2.74265
H -6.02863 -8.13261 2.6492
H -4.91215 -7.83022 1.2458
H -4.48345 -9.44966 3.43573
H -3.04302 -8.8373 2.51099
H -3.08038 -8.16299 4.98613
H -3.1811 -2.6412 0.29218
H -1.48879 -3.10668 -0.13008
H -1.87559 -11.70761 2.23075
H -3.60365 -11.21719 2.35083
H -3.06732 -12.80096 3.0275
H -2.95277 -7.58446 8.60841
H -3.39264 -6.13589 8.10009
H -1.13648 -6.24883 7.39149
H -1.43779 -7.35819 6.07738
$end

$opt
CONSTRAINT
tors           1           2           3           4     -85.263
tors           3           4           5           6    +123.158
tors           4           5           6           7     +66.316
tors           5           6           7           8    -142.105
tors           6           7           8           9     +66.316
tors           7           8           9          10    +104.211
tors           8           9          10          11      -9.474
tors           9          10          11          12    -142.105
tors          11          12          13          14     -66.316
ENDCONSTRAINT
$end

$rem
JOBTYPE                   OPT
METHOD                    B3LYP
DFT_D                     d3_op
BASIS                     STO-3G
GEOM_OPT_MAX_CYCLES       100
GEOM_OPT_TOL_GRADIENT     300
GEOM_OPT_TOL_DISPLACEMENT 1200
GEOM_OPT_TOL_ENERGY       100
SYMMETRY                  False
THRESH                    12
SCF_CONVERGENCE           8
MAX_SUB_FILE_NUM          128
MEM_STATIC                400
MEM_TOTAL                 4000
$end
--------------------------------------------------------------

   16   -1509.9788971750      2.78E-09 Convergence criterion met
 Total energy in the final basis set = -1509.97889718
   14   -1510.0687513886      2.56E-09 Convergence criterion met
 Total energy in the final basis set = -1510.06875139
   14   -1510.1274530026      8.59E-09 Convergence criterion met
 Total energy in the final basis set = -1510.12745300
   14   -1510.1636178890      7.82E-09 Convergence criterion met
 Total energy in the final basis set = -1510.16361789
   14   -1510.1862031130      4.69E-09 Convergence criterion met
 Total energy in the final basis set = -1510.18620311
   13   -1510.2023963774      7.63E-09 Convergence criterion met
 Total energy in the final basis set = -1510.20239638
   13   -1510.2123349576      7.81E-09 Convergence criterion met
 Total energy in the final basis set = -1510.21233496
   13   -1510.2191740515      8.92E-09 Convergence criterion met
   10   -1510.2375787774      6.11E-09 Convergence criterion met
 Total energy in the final basis set = -1510.23757878
    9   -1510.2375810139      6.05E-09 Convergence criterion met
 Total energy in the final basis set = -1510.23758101
    9   -1510.2375822279      5.98E-09 Convergence criterion met
 Total energy in the final basis set = -1510.23758223
    9   -1510.2375832572      4.95E-09 Convergence criterion met
 Total energy in the final basis set = -1510.23758326
    9   -1510.2375844027      7.19E-09 Convergence criterion met
 Total energy in the final basis set = -1510.23758440
    9   -1510.2375854871      4.27E-09 Convergence criterion met
 Total energy in the final basis set = -1510.23758549

             Standard Nuclear Orientation (Angstroms)
    I     Atom           X                Y                Z
 ----------------------------------------------------------------
    1      O      -4.8151835847    -0.0537529505     0.8201239214
    2      C      -4.4108579277    -0.1085598518    -0.3609850190
    3      C      -3.0501420764    -0.6807121194    -0.8885701782
    4      C      -1.8410634526     0.3641991044    -0.8486900589
    5      C      -2.2880628590     1.7671960806    -0.2536854493
    6      O      -1.6106726461     2.3349101091     0.9017008687
    7      C      -0.2033551330     2.6959544838     0.6004553977
    8      C       0.7231547024     2.3747215376     1.8377809007
    9      O       0.8313926968     0.9333117196     2.1269518124
   10      C       2.0094176528     0.1805227691     1.7833549634
   11      C       3.2421416844     0.6806046754     0.8864870582
   12      C       3.7170886261    -0.5527958901    -0.0014421634
   13      C       3.5534974108    -1.9817112847     0.6394807102
   14      O       4.1664161813    -2.4205425698     1.6356228077
   15      O      -5.1879200820     0.2918567236    -1.4984171097
   16      O       2.5691648209    -2.7298951541    -0.0945605669
   17      O       1.9551267303    -1.0036248661     2.1887127003
   18      C       2.3551573327    -4.0456496616     0.5516952157
   19      C       2.8302711792     1.6401451134    -0.3125250353
   20      C       4.0649588904     1.9254737484    -1.2662664149
   21      C       4.0593328925     0.6519749104    -2.1891423438
   22      C       3.0284369519    -0.2390167771    -1.4018983516
   23      O       1.9517183832     0.7365953057    -1.0955812252
   24      H       4.0483096879     1.0747419332     1.5321482572
   25      H       4.8103727111    -0.4440063259    -0.1308120499
   26      H       2.2955244879     2.5601969949    -0.0382794653
   27      H       3.8969325272     2.8501563689    -1.8401661216
   28      H       5.0029808519     2.0318093153    -0.6977093701
   29      H       3.6784261696     0.8869005660    -3.1962939956
   30      H       5.0503097431     0.1799528949    -2.2810070665
   31      H       2.6237844735    -1.1202708134    -1.9338445926
   32      O      -3.3568988308     2.3150990678    -0.6066939454
   33      C      -6.4501906528     0.9211205670    -1.0498770310
   34      C      -2.4900536504    -1.8523976165     0.0194021759
   35      C      -1.4055215124    -2.6495994630    -0.8056164789
   36      C      -0.2198081180    -1.6145849106    -0.8234191164
   37      C      -0.8205764863    -0.4486239134     0.0567851630
   38      O      -1.6906033922    -1.1394782246     1.0340557447
   39      H      -3.2181106005    -1.0158149677    -1.9278827654
   40      H      -1.4423824173     0.5324878892    -1.8658358004
   41      H      -6.2543025950     1.8724111565    -0.5137711732
   42      H      -3.2746210469    -2.4681597299     0.5002537318
   43      H      -1.1292028575    -3.5732915771    -0.2721024928
   44      H      -1.7582492508    -2.9169263475    -1.8147905086
   45      H       0.7087583310    -2.0216444671    -0.3815156662
   46      H       0.0096763834    -1.2670705077    -1.8429699060
   47      H      -0.0937898183     0.1594122468     0.6197973412
   48      H      -7.0284608574     0.2508875955    -0.3813952979
   49      H      -7.0336877354     1.1274585841    -1.9659839818
   50      H       1.5815591081    -4.5577153520    -0.0495116828
   51      H       1.9985519872    -3.9244439168     1.5947679048
   52      H       3.2836865853    -4.6517922637     0.5597873483
   53      H       1.7081849096     2.8692376358     1.7279216894
   54      H       0.2330750773     2.8066168519     2.7379098708
   55      H      -0.1443066383     3.7936333265     0.4147924815
   56      H       0.1760944066     2.1721014713    -0.3021949423
 ----------------------------------------------------------------

    9   -1510.2375864794      4.30E-09 Convergence criterion met
 Total energy in the final basis set = -1510.23758648
 Final energy is   -1510.23758647936
 **  OPTIMIZATION CONVERGED  **

                    Orbital Energies (a.u.)
 --------------------------------------------------------------

 Alpha MOs
 -- Occupied --
-18.952 -18.936 -18.918 -18.916 -18.903 -18.892 -18.888 -18.870
-18.870 -18.859 -10.116 -10.103 -10.100 -10.090 -10.084 -10.082
-10.077 -10.071 -10.062 -10.059 -10.050 -10.046 -10.044 -10.035
-10.034 -10.032 -10.029 -10.025 -10.006  -9.995  -1.023  -1.008
 -1.003  -0.993  -0.987  -0.955  -0.951  -0.934  -0.933  -0.920
 -0.776  -0.748  -0.734  -0.724  -0.717  -0.706  -0.691  -0.661
 -0.649  -0.614  -0.604  -0.586  -0.561  -0.553  -0.533  -0.530
 -0.523  -0.508  -0.499  -0.477  -0.471  -0.463  -0.449  -0.448
 -0.439  -0.429  -0.418  -0.417  -0.413  -0.411  -0.407  -0.398
 -0.392  -0.391  -0.386  -0.376  -0.357  -0.356  -0.351  -0.346
 -0.344  -0.340  -0.335  -0.332  -0.329  -0.326  -0.323  -0.318
 -0.314  -0.305  -0.298  -0.293  -0.292  -0.285  -0.281  -0.270
 -0.268  -0.254  -0.250  -0.247  -0.240  -0.237  -0.218  -0.186
 -0.178  -0.166  -0.165  -0.161  -0.157  -0.149  -0.148  -0.136
 -0.127

          Ground-State Mulliken Net Atomic Charges

     Atom                 Charge (a.u.)
  ----------------------------------------
      1 O                    -0.213497
      2 C                     0.208447
      3 C                    -0.079256
      4 C                    -0.082061
      5 C                     0.213509
      6 O                    -0.176530
      7 C                    -0.051575
      8 C                    -0.046890
      9 O                    -0.159617
     10 C                     0.212717
     11 C                    -0.077496
     12 C                    -0.081250
     13 C                     0.218029
     14 O                    -0.211194
     15 O                    -0.169763
     16 O                    -0.172354
     17 O                    -0.187329
     18 C                    -0.127711
     19 C                     0.015806
     20 C                    -0.145696
     21 C                    -0.140781
     22 C                     0.022278
     23 O                    -0.197349
     24 H                     0.090161
     25 H                     0.082850
     26 H                     0.078847
     27 H                     0.079090
     28 H                     0.075678
     29 H                     0.079149
     30 H                     0.076821
     31 H                     0.095798
     32 O                    -0.187047
     33 C                    -0.128310
     34 C                     0.025051
     35 C                    -0.144696
     36 C                    -0.154525
     37 C                     0.012367
     38 O                    -0.187993
     39 H                     0.082865
     40 H                     0.082740
     41 H                     0.091906
     42 H                     0.082684
     43 H                     0.072520
     44 H                     0.068530
     45 H                     0.089870
     46 H                     0.064174
     47 H                     0.092779
     48 H                     0.087106
     49 H                     0.086546
     50 H                     0.089795
     51 H                     0.098956
     52 H                     0.088009
     53 H                     0.084349
     54 H                     0.100313
     55 H                     0.081855
     56 H                     0.091326
  ----------------------------------------
  Sum of atomic charges =    -0.000000

                    Cartesian Multipole Moments
 -----------------------------------------------------------------
    Charge (ESU x 10^10)
                 0.0000
    Dipole Moment (Debye)
         X       4.4046      Y       1.7992      Z      -3.5937
       Tot       5.9626
    Quadrupole Moments (Debye-Ang)
        XX    -157.1233     XY      13.3879     YY    -149.5552
        XZ       0.5668     YZ       7.4885     ZZ    -167.3202

 Total job time:  110.03s(wall), 5244.61s(cpu)
        *  Thank you very much for using Q-Chem.  Have a nice day.  *
