 Q-Chem 5.0, Q-Chem, Inc., Pleasanton, CA (2017)
 Q-Chem 5.0.1 for Intel X86 EM64T Linux

User input:
--------------------------------------------------------------
$molecule
0  1
O -3.94934 -3.66094 2.70899
C -3.26408 -4.56952 2.26188
C -3.36658 -6.02376 2.66595
C -3.41669 -6.33291 4.1712
C -3.53792 -5.14515 5.09996
O -4.85154 -4.79909 5.24163
C -5.10044 -3.99562 6.39997
C -6.14932 -2.93341 6.08739
O -7.46615 -3.47953 6.26231
C -8.38095 -2.63502 6.79998
C -9.80447 -3.07206 6.54844
C -10.54485 -2.27392 5.46535
C -9.67584 -1.4217 4.56243
O -9.37503 -1.69065 3.40842
O -2.27108 -4.2646 1.38538
O -9.17678 -0.28539 5.11539
O -8.11762 -1.55467 7.31383
C -8.33718 0.5933 4.46364
C -9.97362 -4.50982 5.99452
C -11.37043 -5.03191 6.32866
C -12.21549 -4.18603 5.40205
C -11.11651 -3.4431 4.63448
O -10.04272 -4.34998 4.60134
H -10.3131 -3.04001 7.5381
H -11.35432 -1.62098 5.85932
H -9.21362 -5.2288 6.37077
H -11.41259 -6.08925 5.98063
H -11.65593 -4.99065 7.40178
H -12.78174 -4.86487 4.72627
H -12.91086 -3.47898 5.90419
H -11.50334 -3.10939 3.6461
O -2.63978 -4.84257 5.87785
C -2.00297 -2.9919 0.92646
C -4.70075 -6.66085 2.21764
C -4.52917 -8.17255 2.07387
C -4.4077 -8.58211 3.52772
C -4.66854 -7.23652 4.21564
O -5.54501 -6.57111 3.33883
H -2.5407 -6.56684 2.15123
H -2.50349 -6.88601 4.48703
H -1.7396 -2.32606 1.776
H -5.09614 -6.22851 1.2722
H -5.49007 -8.56888 1.67351
H -3.69741 -8.50399 1.41576
H -5.21842 -9.30896 3.75652
H -3.42248 -9.00464 3.82145
H -5.03409 -7.3939 5.2544
H -2.88648 -2.58482 0.3897
H -1.14512 -3.03149 0.2243
H -8.08526 1.42991 5.14701
H -8.83882 1.00537 3.56207
H -7.39825 0.07688 4.16965
H -5.95806 -2.11671 6.82072
H -6.00693 -2.50785 5.07043
H -4.20079 -3.397 6.67657
H -5.38569 -4.60772 7.28275
$end

$opt
CONSTRAINT
tors           1           2           3           4     -47.368
tors           3           4           5           6     +85.263
tors           4           5           6           7    +161.053
tors           5           6           7           8    +142.105
tors           6           7           8           9     +85.263
tors           7           8           9          10    +142.105
tors           8           9          10          11    +161.053
tors           9          10          11          12    -104.211
tors          11          12          13          14    +104.211
ENDCONSTRAINT
$end

$rem
JOBTYPE                   OPT
METHOD                    B3LYP
DFT_D                     d3_op
BASIS                     STO-3G
GEOM_OPT_MAX_CYCLES       100
GEOM_OPT_TOL_GRADIENT     300
GEOM_OPT_TOL_DISPLACEMENT 1200
GEOM_OPT_TOL_ENERGY       100
SYMMETRY                  False
THRESH                    12
SCF_CONVERGENCE           8
MAX_SUB_FILE_NUM          128
MEM_STATIC                400
MEM_TOTAL                 4000
$end
--------------------------------------------------------------

   15   -1510.1439781913      7.00E-09 Convergence criterion met
 Total energy in the final basis set = -1510.14397819
   13   -1510.2127296511      8.97E-09 Convergence criterion met
 Total energy in the final basis set = -1510.21272965
   13   -1510.2493016280      9.87E-09 Convergence criterion met
 Total energy in the final basis set = -1510.24930163
   13   -1510.2651303450      7.87E-09 Convergence criterion met
 Total energy in the final basis set = -1510.26513035
   13   -1510.2703712602      7.34E-09 Convergence criterion met
 Total energy in the final basis set = -1510.27037126
    3   -1510.2703712602      4.67E-10 Convergence criterion met
 Total energy in the final basis set = -1510.27037126
   13   -1510.2720809753      3.67E-09 Convergence criterion met
 Total energy in the final basis set = -1510.27208098
   12   -1510.2725573301      6.83E-09 Convergence criterion met
    9   -1510.2734119839      7.79E-09 Convergence criterion met
 Total energy in the final basis set = -1510.27341198
   11   -1510.2734173073      2.39E-09 Convergence criterion met
 Total energy in the final basis set = -1510.27341731
    9   -1510.2734197638      9.64E-09 Convergence criterion met
 Total energy in the final basis set = -1510.27341976
    9   -1510.2734218459      7.99E-09 Convergence criterion met
 Total energy in the final basis set = -1510.27342185
    9   -1510.2734232113      6.59E-09 Convergence criterion met
 Total energy in the final basis set = -1510.27342321
    9   -1510.2734242422      4.45E-09 Convergence criterion met
 Total energy in the final basis set = -1510.27342424

             Standard Nuclear Orientation (Angstroms)
    I     Atom           X                Y                Z
 ----------------------------------------------------------------
    1      O       2.6881190785    -1.5257622187     0.7438655507
    2      C       3.8407489712    -1.0634310276     0.8867113544
    3      C       4.3618700627     0.3695104569     0.5344125750
    4      C       3.9340618969     0.8714192665    -0.9116916620
    5      C       2.9881799862    -0.1207688574    -1.6793546299
    6      O       1.6290239558     0.1177052640    -1.2981844774
    7      C       0.7050710999    -0.4576617211    -2.3043618086
    8      C      -0.5339336886    -1.0655681575    -1.5712984763
    9      O      -1.5312724734     0.0083227418    -1.3399877283
   10      C      -2.8602130520    -0.4934840720    -1.5209710930
   11      C      -3.8896506289     0.4687058616    -0.8229854447
   12      C      -4.4441726051    -0.1191311692     0.5514786340
   13      C      -3.8841151941    -1.5403656800     0.9068602951
   14      O      -3.0109601310    -1.8325384559     1.7518813395
   15      O       4.9312321804    -1.8035824465     1.4522086097
   16      O      -4.5805938424    -2.4998780101     0.1043293589
   17      O      -3.1265513391    -1.5611642234    -2.1182988429
   18      C      -4.0333509654    -3.8554476615     0.3398860903
   19      C      -3.2240923482     1.8150065998    -0.3141114218
   20      C      -4.3689325146     2.8401635109     0.0574550949
   21      C      -4.8770900444     2.2506173464     1.4260865162
   22      C      -3.9460556068     0.9851279974     1.5731328184
   23      O      -2.6566572711     1.4341343892     1.0002094695
   24      H      -4.7224939460     0.6509847162    -1.5259862940
   25      H      -5.5466514135    -0.1854140395     0.5184185076
   26      H      -2.4309370151     2.2094727216    -0.9767882894
   27      H      -3.9503016730     3.8511751603     0.1839752511
   28      H      -5.1594575950     2.8797125289    -0.7093852570
   29      H      -4.7040858674     2.9528108510     2.2569616377
   30      H      -5.9457572042     1.9835511064     1.4053462964
   31      H      -3.7989997917     0.6115901255     2.6049595352
   32      O       3.3423803109    -0.9556155383    -2.5426943783
   33      C       4.4802572330    -3.1666372564     1.8182123528
   34      C       3.7177920600     1.5030669116     1.4494620735
   35      C       4.6354390606     2.7837459838     1.3464743196
   36      C       4.2820148470     3.2896562712    -0.1015660651
   37      C       3.1963482194     2.2273646086    -0.5423041730
   38      O       2.4945873517     1.8967363265     0.7190066197
   39      H       5.4609649318     0.3574024386     0.6392407724
   40      H       4.8231621183     1.0325936464    -1.5468593603
   41      H       4.1056034642    -3.7227772976     0.9347044878
   42      H       3.4684501256     1.1797425444     2.4787599774
   43      H       4.3489359448     3.5213546017     2.1131402924
   44      H       5.7039539223     2.5439034811     1.4674613477
   45      H       3.8456307849     4.3008690129    -0.0819205870
   46      H       5.1540276747     3.2940049608    -0.7748391646
   47      H       2.4733257210     2.5772680259    -1.3038285651
   48      H       3.6766799806    -3.1403770357     2.5824996128
   49      H       5.3671065824    -3.6814537749     2.2311957569
   50      H      -4.6454428621    -4.5420273176    -0.2732542628
   51      H      -4.1015148124    -4.1462399393     1.4081848342
   52      H      -2.9728581986    -3.9236831994     0.0218672138
   53      H      -1.0075312470    -1.8656651539    -2.1824079490
   54      H      -0.2167418960    -1.4849416720    -0.5913855793
   55      H       1.2475007490    -1.2386939010    -2.8820934102
   56      H       0.3741369471     0.3450552474    -2.9997543738
 ----------------------------------------------------------------

    9   -1510.2734247897      4.02E-09 Convergence criterion met
 Total energy in the final basis set = -1510.27342479
 Final energy is   -1510.27342478973
 **  OPTIMIZATION CONVERGED  **

                    Orbital Energies (a.u.)
 --------------------------------------------------------------

 Alpha MOs
 -- Occupied --
-18.932 -18.929 -18.925 -18.925 -18.886 -18.880 -18.873 -18.872
-18.871 -18.869 -10.096 -10.095 -10.095 -10.093 -10.064 -10.062
-10.062 -10.058 -10.058 -10.057 -10.053 -10.052 -10.036 -10.035
-10.035 -10.033 -10.019 -10.017 -10.015 -10.014  -1.010  -1.009
 -1.004  -1.002  -0.967  -0.962  -0.934  -0.933  -0.930  -0.927
 -0.760  -0.758  -0.724  -0.719  -0.710  -0.702  -0.689  -0.661
 -0.657  -0.607  -0.593  -0.573  -0.544  -0.541  -0.535  -0.532
 -0.512  -0.507  -0.484  -0.473  -0.459  -0.456  -0.443  -0.436
 -0.431  -0.426  -0.415  -0.414  -0.410  -0.407  -0.405  -0.400
 -0.386  -0.382  -0.369  -0.365  -0.356  -0.354  -0.346  -0.344
 -0.341  -0.338  -0.334  -0.330  -0.326  -0.325  -0.319  -0.307
 -0.306  -0.303  -0.301  -0.298  -0.287  -0.278  -0.276  -0.274
 -0.272  -0.253  -0.250  -0.243  -0.235  -0.230  -0.226  -0.175
 -0.174  -0.167  -0.165  -0.154  -0.152  -0.147  -0.145  -0.140
 -0.136

          Ground-State Mulliken Net Atomic Charges

     Atom                 Charge (a.u.)
  ----------------------------------------
      1 O                    -0.209033
      2 C                     0.206052
      3 C                    -0.079626
      4 C                    -0.078957
      5 C                     0.209789
      6 O                    -0.162260
      7 C                    -0.051044
      8 C                    -0.052641
      9 O                    -0.170070
     10 C                     0.205415
     11 C                    -0.077022
     12 C                    -0.078486
     13 C                     0.205175
     14 O                    -0.210656
     15 O                    -0.170014
     16 O                    -0.166898
     17 O                    -0.213327
     18 C                    -0.127256
     19 C                     0.025773
     20 C                    -0.144717
     21 C                    -0.144007
     22 C                     0.024484
     23 O                    -0.183961
     24 H                     0.083939
     25 H                     0.085023
     26 H                     0.089919
     27 H                     0.077248
     28 H                     0.071653
     29 H                     0.077435
     30 H                     0.071973
     31 H                     0.087498
     32 O                    -0.218203
     33 C                    -0.129209
     34 C                     0.026612
     35 C                    -0.143236
     36 C                    -0.144887
     37 C                     0.027972
     38 O                    -0.180304
     39 H                     0.086025
     40 H                     0.084458
     41 H                     0.089897
     42 H                     0.084125
     43 H                     0.078180
     44 H                     0.073540
     45 H                     0.077723
     46 H                     0.072764
     47 H                     0.085475
     48 H                     0.089263
     49 H                     0.089912
     50 H                     0.091079
     51 H                     0.087917
     52 H                     0.088867
     53 H                     0.096974
     54 H                     0.100536
     55 H                     0.099108
     56 H                     0.084011
  ----------------------------------------
  Sum of atomic charges =     0.000000

                    Cartesian Multipole Moments
 -----------------------------------------------------------------
    Charge (ESU x 10^10)
                -0.0000
    Dipole Moment (Debye)
         X       0.3401      Y       1.0557      Z       0.0916
       Tot       1.1129
    Quadrupole Moments (Debye-Ang)
        XX    -140.5841     XY       0.1179     YY    -148.6496
        XZ       2.6314     YZ      -6.6761     ZZ    -160.2590

 Total job time:  59.44s(wall), 2832.28s(cpu)
        *  Thank you very much for using Q-Chem.  Have a nice day.  *
