 Q-Chem 5.0, Q-Chem, Inc., Pleasanton, CA (2017)
 Q-Chem 5.0.1 for Intel X86 EM64T Linux

User input:
--------------------------------------------------------------
$molecule
0  1
O 2.6881190785 -1.5257622187 0.7438655507
C 3.8407489712 -1.0634310276 0.8867113544
C 4.3618700627 0.3695104569 0.534412575
C 3.9340618969 0.8714192665 -0.911691662
C 2.9881799862 -0.1207688574 -1.6793546299
O 1.6290239558 0.117705264 -1.2981844774
C 0.7050710999 -0.4576617211 -2.3043618086
C -0.5339336886 -1.0655681575 -1.5712984763
O -1.5312724734 0.0083227418 -1.3399877283
C -2.860213052 -0.493484072 -1.520971093
C -3.8896506289 0.4687058616 -0.8229854447
C -4.4441726051 -0.1191311692 0.551478634
C -3.8841151941 -1.54036568 0.9068602951
O -3.010960131 -1.8325384559 1.7518813395
O 4.9312321804 -1.8035824465 1.4522086097
O -4.5805938424 -2.4998780101 0.1043293589
O -3.1265513391 -1.5611642234 -2.1182988429
C -4.0333509654 -3.8554476615 0.3398860903
C -3.2240923482 1.8150065998 -0.3141114218
C -4.3689325146 2.8401635109 0.0574550949
C -4.8770900444 2.2506173464 1.4260865162
C -3.9460556068 0.9851279974 1.5731328184
O -2.6566572711 1.4341343892 1.0002094695
H -4.722493946 0.6509847162 -1.525986294
H -5.5466514135 -0.1854140395 0.5184185076
H -2.4309370151 2.2094727216 -0.9767882894
H -3.950301673 3.8511751603 0.1839752511
H -5.159457595 2.8797125289 -0.709385257
H -4.7040858674 2.952810851 2.2569616377
H -5.9457572042 1.9835511064 1.4053462964
H -3.7989997917 0.6115901255 2.6049595352
O 3.3423803109 -0.9556155383 -2.5426943783
C 4.480257233 -3.1666372564 1.8182123528
C 3.71779206 1.5030669116 1.4494620735
C 4.6354390606 2.7837459838 1.3464743196
C 4.282014847 3.2896562712 -0.1015660651
C 3.1963482194 2.2273646086 -0.542304173
O 2.4945873517 1.8967363265 0.7190066197
H 5.4609649318 0.3574024386 0.6392407724
H 4.8231621183 1.0325936464 -1.5468593603
H 4.1056034642 -3.7227772976 0.9347044878
H 3.4684501256 1.1797425444 2.4787599774
H 4.3489359448 3.5213546017 2.1131402924
H 5.7039539223 2.5439034811 1.4674613477
H 3.8456307849 4.3008690129 -0.081920587
H 5.1540276747 3.2940049608 -0.7748391646
H 2.473325721 2.5772680259 -1.3038285651
H 3.6766799806 -3.1403770357 2.5824996128
H 5.3671065824 -3.6814537749 2.2311957569
H -4.6454428621 -4.5420273176 -0.2732542628
H -4.1015148124 -4.1462399393 1.4081848342
H -2.9728581986 -3.9236831994 0.0218672138
H -1.007531247 -1.8656651539 -2.182407949
H -0.216741896 -1.484941672 -0.5913855793
H 1.247500749 -1.238693901 -2.8820934102
H 0.3741369471 0.3450552474 -2.9997543738
$end

$rem
JOBTYPE                   OPT
METHOD                    B3LYP
DFT_D                     d3_op
BASIS                     STO-3G
GEOM_OPT_MAX_CYCLES       100
GEOM_OPT_TOL_GRADIENT     300
GEOM_OPT_TOL_DISPLACEMENT 1200
GEOM_OPT_TOL_ENERGY       100
SYMMETRY                  False
THRESH                    12
SCF_CONVERGENCE           8
MAX_SUB_FILE_NUM          128
MEM_STATIC                400
MEM_TOTAL                 4000
$end
--------------------------------------------------------------

   16   -1510.2734124240      5.94E-09 Convergence criterion met
 Total energy in the final basis set = -1510.27341242
   14   -1510.2765532921      3.07E-09 Convergence criterion met
 Total energy in the final basis set = -1510.27655329
   14   -1510.2789300155      4.65E-09 Convergence criterion met
 Total energy in the final basis set = -1510.27893002
   14   -1510.2799932482      7.14E-09 Convergence criterion met
 Total energy in the final basis set = -1510.27999325
   13   -1510.2811099804      3.50E-09 Convergence criterion met
 Total energy in the final basis set = -1510.28110998
   14   -1510.2822484974      3.08E-09 Convergence criterion met
 Total energy in the final basis set = -1510.28224850
   13   -1510.2831449250      9.37E-09 Convergence criterion met
 Total energy in the final basis set = -1510.28314492
   13   -1510.2838151308      4.18E-09 Convergence criterion met
   11   -1510.3082954893      6.41E-09 Convergence criterion met
 Total energy in the final basis set = -1510.30829549
   10   -1510.3083001543      9.46E-09 Convergence criterion met
 Total energy in the final basis set = -1510.30830015
   10   -1510.3083056347      8.43E-09 Convergence criterion met
 Total energy in the final basis set = -1510.30830563
   11   -1510.3083097167      6.67E-09 Convergence criterion met
 Total energy in the final basis set = -1510.30830972
   10   -1510.3083107621      6.85E-09 Convergence criterion met
 Total energy in the final basis set = -1510.30831076
    9   -1510.3083145401      6.45E-09 Convergence criterion met
 Total energy in the final basis set = -1510.30831454

             Standard Nuclear Orientation (Angstroms)
    I     Atom           X                Y                Z
 ----------------------------------------------------------------
    1      O       1.4653386950    -1.5542586568     0.1438773833
    2      C       1.8475152891    -0.6844440851     0.9604141935
    3      C       2.7470664961     0.5559285517     0.6356348098
    4      C       3.1916408099     0.6201128668    -0.8827217310
    5      C       2.5319229818    -0.4825284768    -1.7971039322
    6      O       1.2332307345    -0.0193641378    -2.2054119520
    7      C       0.5557198352    -1.0385409730    -3.0350602762
    8      C      -0.3825259779    -1.9284124203    -2.1341600800
    9      O      -0.9856820672    -1.1316197221    -1.0396265882
   10      C      -1.9542936450    -0.2088504826    -1.5455429966
   11      C      -2.4419267526     0.6810811332    -0.3574154964
   12      C      -2.9123228274    -0.1269992478     0.9265300992
   13      C      -2.6560448548    -1.6705960315     0.8073959148
   14      O      -1.9019763539    -2.3842113163     1.5076034420
   15      O       1.5824462164    -0.7082855216     2.3553202520
   16      O      -3.4960258833    -2.1840243993    -0.2302614865
   17      O      -2.3041338336    -0.1332903930    -2.7433652453
   18      C      -3.2519328875    -3.6334794434    -0.4102674569
   19      C      -1.2555011230     1.5465214988     0.2572325743
   20      C      -1.8980128365     2.7390653768     1.0667305327
   21      C      -2.4651899985     1.9836731145     2.3265451096
   22      C      -1.9867257315     0.5059507418     2.0410731657
   23      O      -0.7030855993     0.6817374268     1.3270456650
   24      H      -3.2524537663     1.3261639522    -0.7383291961
   25      H      -3.9879986320     0.0352409461     1.1229916932
   26      H      -0.4263471995     1.8182212450    -0.4362276425
   27      H      -1.1218956539     3.4684970894     1.3492478547
   28      H      -2.6806518209     3.2624424443     0.4947117311
   29      H      -2.0214108303     2.3605292924     3.2616403042
   30      H      -3.5620080948     2.0537244210     2.4038613785
   31      H      -1.8528137977    -0.1334135675     2.9346840021
   32      O       3.0868938737    -1.5086567803    -2.2481463967
   33      C       0.7698650449    -1.9004879115     2.7054330213
   34      C       1.9914654446     1.9446439513     0.8023274681
   35      C       3.0822065728     3.0750226349     0.9370635337
   36      C       3.6305099294     3.1369755967    -0.5391095427
   37      C       2.7032054286     2.0796832312    -1.2641942901
   38      O       1.4195378179     2.2041772581    -0.5377838623
   39      H       3.6247934551     0.5213109268     1.3057305897
   40      H       4.2866238242     0.5126395059    -0.9769370390
   41      H       1.3191015334    -2.8342184394     2.4682336875
   42      H       1.1851273362     1.9223554815     1.5629127197
   43      H       2.6147001142     4.0282640296     1.2314325018
   44      H       3.8604244454     2.8194306270     1.6734642222
   45      H       3.4926615665     4.1368880874    -0.9800350084
   46      H       4.6959739868     2.8653739743    -0.6081452353
   47      H       2.5527230730     2.2479724907    -2.3478406134
   48      H      -0.2186657357    -1.9208592704     2.1840019349
   49      H       0.6149321423    -1.8387851841     3.7980760985
   50      H      -3.8740932417    -3.9428205549    -1.2701210457
   51      H      -3.5479587940    -4.2116734535     0.4888876128
   52      H      -2.1844030056    -3.8400989475    -0.6262604808
   53      H      -1.1658315562    -2.4021607630    -2.7653134053
   54      H       0.2116025857    -2.7066404299    -1.6171575026
   55      H       1.3063325066    -1.6831103221    -3.5411448881
   56      H      -0.0509380346    -0.4855873450    -3.7796415338
 ----------------------------------------------------------------

    9   -1510.3083164145      3.97E-09 Convergence criterion met
 Total energy in the final basis set = -1510.30831641
 Final energy is   -1510.30831641453
 **  OPTIMIZATION CONVERGED  **

                    Orbital Energies (a.u.)
 --------------------------------------------------------------

 Alpha MOs
 -- Occupied --
-18.937 -18.928 -18.924 -18.915 -18.891 -18.881 -18.880 -18.867
-18.867 -18.854 -10.105 -10.093 -10.092 -10.087 -10.065 -10.062
-10.059 -10.057 -10.056 -10.054 -10.041 -10.037 -10.034 -10.031
-10.031 -10.030 -10.019 -10.018 -10.017 -10.013  -1.016  -1.005
 -1.000  -0.992  -0.971  -0.964  -0.938  -0.931  -0.925  -0.918
 -0.760  -0.759  -0.723  -0.718  -0.706  -0.702  -0.686  -0.663
 -0.646  -0.609  -0.591  -0.576  -0.544  -0.540  -0.536  -0.530
 -0.511  -0.500  -0.478  -0.469  -0.458  -0.452  -0.444  -0.438
 -0.432  -0.427  -0.425  -0.418  -0.406  -0.402  -0.401  -0.395
 -0.386  -0.370  -0.364  -0.364  -0.355  -0.353  -0.350  -0.340
 -0.337  -0.335  -0.329  -0.325  -0.322  -0.320  -0.316  -0.308
 -0.304  -0.303  -0.299  -0.296  -0.291  -0.286  -0.272  -0.271
 -0.267  -0.254  -0.247  -0.239  -0.238  -0.230  -0.221  -0.180
 -0.173  -0.168  -0.157  -0.152  -0.148  -0.144  -0.142  -0.139
 -0.137

          Ground-State Mulliken Net Atomic Charges

     Atom                 Charge (a.u.)
  ----------------------------------------
      1 O                    -0.210921
      2 C                     0.222872
      3 C                    -0.078702
      4 C                    -0.080729
      5 C                     0.216217
      6 O                    -0.174576
      7 C                    -0.054821
      8 C                    -0.048280
      9 O                    -0.166268
     10 C                     0.213431
     11 C                    -0.080351
     12 C                    -0.078007
     13 C                     0.224243
     14 O                    -0.214768
     15 O                    -0.168855
     16 O                    -0.170743
     17 O                    -0.217267
     18 C                    -0.128329
     19 C                     0.011388
     20 C                    -0.144375
     21 C                    -0.145356
     22 C                     0.024020
     23 O                    -0.193524
     24 H                     0.084071
     25 H                     0.084909
     26 H                     0.114254
     27 H                     0.075156
     28 H                     0.072741
     29 H                     0.075717
     30 H                     0.071913
     31 H                     0.084953
     32 O                    -0.224288
     33 C                    -0.142058
     34 C                     0.024174
     35 C                    -0.143528
     36 C                    -0.144583
     37 C                     0.028681
     38 O                    -0.190941
     39 H                     0.084353
     40 H                     0.082674
     41 H                     0.078790
     42 H                     0.099041
     43 H                     0.076331
     44 H                     0.074349
     45 H                     0.076964
     46 H                     0.073799
     47 H                     0.086046
     48 H                     0.116224
     49 H                     0.079042
     50 H                     0.091162
     51 H                     0.088409
     52 H                     0.092128
     53 H                     0.084653
     54 H                     0.101132
     55 H                     0.095881
     56 H                     0.091549
  ----------------------------------------
  Sum of atomic charges =     0.000000

                    Cartesian Multipole Moments
 -----------------------------------------------------------------
    Charge (ESU x 10^10)
                 0.0000
    Dipole Moment (Debye)
         X      -0.7462      Y       1.1520      Z       1.4506
       Tot       1.9970
    Quadrupole Moments (Debye-Ang)
        XX    -152.1299     XY       9.5456     YY    -151.9948
        XZ      -2.5581     YZ       2.2571     ZZ    -160.3104

 Total job time:  162.55s(wall), 7724.14s(cpu)
        *  Thank you very much for using Q-Chem.  Have a nice day.  *
