 Q-Chem 5.0, Q-Chem, Inc., Pleasanton, CA (2017)
 Q-Chem 5.0.1 for Intel X86 EM64T Linux

User input:
--------------------------------------------------------------
$molecule
0  1
O -1.0906028286 -1.1117746133 -0.0467998425
C -2.0997584444 -1.516993208 0.568254854
C -3.4696808948 -0.7805792817 0.7537870397
C -3.3539019819 0.7959007213 0.7315190542
C -1.9268865292 1.3543480759 1.178556919
O -1.6473193082 2.7226462213 0.7663718206
C -1.0974494432 2.8567005404 -0.5881757421
C 0.3635953587 2.3052275909 -1.0296955119
O 1.3672044399 1.7969770378 -0.0906682205
C 1.2463314473 0.3862251445 0.2782710566
C 1.9697402286 -0.5426229625 -0.7779651936
C 3.4275774287 -0.0616094536 -1.1669526486
C 3.9325936203 1.1486513497 -0.3092341498
O 4.6171963913 2.1209358192 -0.6932674297
O -2.2191845026 -2.8068817372 1.1766077162
O 3.5670672176 0.9004545512 1.0536636646
O 0.8240434521 0.0105250652 1.385852095
C 3.903575725 2.0655923117 1.9006191697
C 2.2587878046 -1.9848144825 -0.1958065177
C 2.4928925002 -2.9642310751 -1.4084479025
C 3.9120458955 -2.4892191499 -1.9005021121
C 4.2566522877 -1.377899842 -0.8278277443
O 3.6071370948 -1.8647291366 0.4077994953
H 1.330565387 -0.6011047774 -1.6781288209
H 3.5073595047 0.2134915047 -2.2331569031
H 1.5248693712 -2.3101782912 0.5640007906
H 2.5157212833 -4.0104702487 -1.0634936683
H 1.7164757055 -2.8623716726 -2.183357983
H 4.6502912912 -3.3059572641 -1.8600469123
H 3.8915966936 -2.0828781824 -2.9245183632
H 5.3379835752 -1.2073298237 -0.6597592345
O -1.2922356146 0.8354369036 2.1181522674
C -0.9611023958 -3.5710420508 1.0227001364
C -4.3195426334 -1.0212265647 -0.5709194415
C -5.7883684289 -0.4843302858 -0.3543906427
C -5.5714218452 1.0655346409 -0.506649966
C -4.002105106 1.1359211457 -0.6799303513
O -3.7100619302 -0.0528319245 -1.5147905971
H -3.9724682371 -1.1653256663 1.6573709457
H -4.0231093669 1.2031545598 1.5153501256
H -0.1440732624 -3.1197393056 1.6222211099
H -4.2509181803 -2.0504637662 -0.9741127622
H -6.466194879 -0.8803821307 -1.1271237743
H -6.1817926466 -0.7624292212 0.63645161
H -6.0681592001 1.4532016248 -1.4105565085
H -5.9260922668 1.6380724714 0.3650389229
H -3.6465186835 2.0607157452 -1.1669130866
H -0.6372594884 -3.622543117 -0.0367867615
H -1.1717203804 -4.5894865383 1.3978174854
H 3.658147379 1.7699308417 2.9370622914
H 3.2979659638 2.949821863 1.6147684084
H 4.9788929319 2.3264795966 1.8272487759
H 0.1736936264 1.5468920755 -1.8230222962
H 0.8650752662 3.1684509597 -1.5166377311
H -1.0784021951 3.9561010141 -0.7378757858
H -1.7914961787 2.43333591 -1.3451209004
$end

$rem
JOBTYPE                   OPT
METHOD                    B3LYP
DFT_D                     d3_op
BASIS                     STO-3G
GEOM_OPT_MAX_CYCLES       100
GEOM_OPT_TOL_GRADIENT     300
GEOM_OPT_TOL_DISPLACEMENT 1200
GEOM_OPT_TOL_ENERGY       100
SYMMETRY                  False
THRESH                    12
SCF_CONVERGENCE           8
MAX_SUB_FILE_NUM          128
MEM_STATIC                400
MEM_TOTAL                 4000
$end
--------------------------------------------------------------

   16   -1510.2261698568      4.30E-09 Convergence criterion met
 Total energy in the final basis set = -1510.22616986
   14   -1510.2277875523      9.94E-09 Convergence criterion met
 Total energy in the final basis set = -1510.22778755
   14   -1510.2351384008      7.59E-09 Convergence criterion met
 Total energy in the final basis set = -1510.23513840
   15   -1510.2255292486      3.01E-09 Convergence criterion met
 Total energy in the final basis set = -1510.22552925
   15   -1510.2407513795      4.13E-09 Convergence criterion met
 Total energy in the final basis set = -1510.24075138
   15   -1510.2428095857      3.39E-09 Convergence criterion met
 Total energy in the final basis set = -1510.24280959
   14   -1510.2478448561      5.03E-09 Convergence criterion met
 Total energy in the final basis set = -1510.24784486
   14   -1510.2520301859      5.62E-09 Convergence criterion met
   11   -1510.2894233544      8.20E-09 Convergence criterion met
 Total energy in the final basis set = -1510.28942335
   11   -1510.2894275255      9.09E-09 Convergence criterion met
 Total energy in the final basis set = -1510.28942753
   11   -1510.2894294718      5.63E-09 Convergence criterion met
 Total energy in the final basis set = -1510.28942947
    9   -1510.2894296877      8.35E-09 Convergence criterion met
 Total energy in the final basis set = -1510.28942969
   10   -1510.2894292857      6.08E-09 Convergence criterion met
 Total energy in the final basis set = -1510.28942929
   10   -1510.2894278591      3.86E-09 Convergence criterion met
 Total energy in the final basis set = -1510.28942786

             Standard Nuclear Orientation (Angstroms)
    I     Atom           X                Y                Z
 ----------------------------------------------------------------
    1      O       0.5039504080     1.3961785545    -0.6099195600
    2      C       1.4900403031     1.1549435197    -1.3490838102
    3      C       2.9697528792     1.0933554470    -0.8365294949
    4      C       3.0635980077     0.7557282570     0.7101469484
    5      C       1.6695989049     0.6102037752     1.4760460209
    6      O       0.9042059209    -0.6056756294     1.5043623973
    7      C       1.1510216266    -1.6766968551     0.5056226750
    8      C      -0.0717608032    -1.8777564963    -0.4702742152
    9      O      -1.2207902079    -2.6219299398     0.0946876565
   10      C      -2.1658588366    -1.8580818372     0.8822310834
   11      C      -1.8679707245    -0.3344470967     1.1042519895
   12      C      -2.2566164085     0.6077943534    -0.1151475663
   13      C      -2.8203814778    -0.1727547778    -1.3392154075
   14      O      -2.2194315108    -0.3867001199    -2.4260389686
   15      O       1.4388242818     0.9690055935    -2.7482244998
   16      O      -4.1198766712    -0.6725132412    -1.0575419679
   17      O      -3.1325177778    -2.4934666760     1.3549033665
   18      C      -4.6199187607    -1.4864506119    -2.1913544429
   19      C      -2.7479699135     0.2939325608     2.2555485878
   20      C      -2.0502751747     1.6526049667     2.6730554215
   21      C      -2.4726179720     2.5853864757     1.4771135842
   22      C      -3.3010925643     1.5796715074     0.5823187673
   23      O      -3.9897314503     0.7220685909     1.5691980727
   24      H      -0.7854658044    -0.2492157209     1.3432370804
   25      H      -1.3513479628     1.1460134412    -0.4584448530
   26      H      -2.9878853758    -0.4008941618     3.0833312661
   27      H      -2.4453598983     2.0201222596     3.6333291318
   28      H      -0.9516404333     1.5471620004     2.7449928840
   29      H      -3.1117120605     3.4172462655     1.8141193541
   30      H      -1.6041004369     2.9965534674     0.9385680907
   31      H      -4.0325986563     2.0454702615    -0.1062249994
   32      O       1.2520191000     1.5209150447     2.2298388184
   33      C       0.0638547077     1.2060504707    -3.2722592910
   34      C       3.8715642757    -0.0442709869    -1.4706562410
   35      C       5.3817928618     0.3171459746    -1.2022334648
   36      C       5.4980798966     0.0238656993     0.3428381369
   37      C       4.0453274495    -0.4910524746     0.6774659759
   38      O       3.6620697935    -1.2071234474    -0.5703198406
   39      H       3.4169324558     2.0840881123    -1.0409278961
   40      H       3.5502212578     1.5945013182     1.2387529593
   41      H      -0.2440554750     2.2522493588    -3.0731603389
   42      H       3.6107009514    -0.3074523679    -2.5142913775
   43      H       6.0431564824    -0.3418549358    -1.7872072389
   44      H       5.6090137857     1.3645322596    -1.4569425494
   45      H       6.2406510611    -0.7633600802     0.5483760872
   46      H       5.7617050726     0.9201769618     0.9263918913
   47      H       3.9690001233    -1.1702768007     1.5483321821
   48      H      -0.7117099117     0.5085154469    -2.8500131855
   49      H       0.1452162413     1.0544759841    -4.3637513718
   50      H      -5.6278845431    -1.8286095465    -1.8936608514
   51      H      -3.9680606750    -2.3645024753    -2.3757619514
   52      H      -4.6865721501    -0.8895036513    -3.1236840920
   53      H      -0.3680976490    -0.9100406398    -0.9189721762
   54      H       0.2901113018    -2.5302475591    -1.2929542606
   55      H       1.2847866669    -2.6115301572     1.0907862663
   56      H       2.0838683302    -1.4969787951    -0.0962398106
 ----------------------------------------------------------------

    9   -1510.2894271821      8.43E-09 Convergence criterion met
 Total energy in the final basis set = -1510.28942718
 Final energy is   -1510.28942718207
 **  OPTIMIZATION CONVERGED  **

                    Orbital Energies (a.u.)
 --------------------------------------------------------------

 Alpha MOs
 -- Occupied --
-18.960 -18.942 -18.940 -18.934 -18.908 -18.902 -18.877 -18.877
-18.866 -18.855 -10.127 -10.112 -10.101 -10.089 -10.088 -10.077
-10.063 -10.062 -10.062 -10.056 -10.054 -10.052 -10.044 -10.043
-10.043 -10.034 -10.013  -9.999  -9.998  -9.991  -1.035  -1.015
 -1.012  -1.005  -0.984  -0.960  -0.949  -0.940  -0.938  -0.916
 -0.788  -0.744  -0.742  -0.730  -0.703  -0.702  -0.685  -0.671
 -0.656  -0.616  -0.596  -0.580  -0.573  -0.561  -0.536  -0.533
 -0.518  -0.500  -0.498  -0.485  -0.475  -0.464  -0.458  -0.450
 -0.435  -0.427  -0.424  -0.418  -0.412  -0.409  -0.405  -0.398
 -0.393  -0.384  -0.380  -0.375  -0.375  -0.365  -0.361  -0.358
 -0.347  -0.344  -0.337  -0.334  -0.332  -0.328  -0.320  -0.312
 -0.310  -0.301  -0.299  -0.294  -0.291  -0.285  -0.280  -0.276
 -0.274  -0.265  -0.260  -0.249  -0.239  -0.224  -0.215  -0.199
 -0.182  -0.179  -0.177  -0.172  -0.156  -0.154  -0.148  -0.127
 -0.123

          Ground-State Mulliken Net Atomic Charges

     Atom                 Charge (a.u.)
  ----------------------------------------
      1 O                    -0.211411
      2 C                     0.215472
      3 C                    -0.081585
      4 C                    -0.085664
      5 C                     0.216566
      6 O                    -0.176486
      7 C                    -0.081503
      8 C                    -0.058263
      9 O                    -0.179806
     10 C                     0.200740
     11 C                    -0.107788
     12 C                    -0.099289
     13 C                     0.208748
     14 O                    -0.228104
     15 O                    -0.165957
     16 O                    -0.153492
     17 O                    -0.203496
     18 C                    -0.126492
     19 C                     0.024640
     20 C                    -0.149294
     21 C                    -0.143448
     22 C                     0.025483
     23 O                    -0.189179
     24 H                     0.112792
     25 H                     0.103662
     26 H                     0.083878
     27 H                     0.070508
     28 H                     0.088628
     29 H                     0.071683
     30 H                     0.073946
     31 H                     0.076636
     32 O                    -0.203775
     33 C                    -0.149481
     34 C                     0.025179
     35 C                    -0.141672
     36 C                    -0.142258
     37 C                     0.022631
     38 O                    -0.183409
     39 H                     0.092339
     40 H                     0.092606
     41 H                     0.080934
     42 H                     0.098321
     43 H                     0.084123
     44 H                     0.079333
     45 H                     0.084343
     46 H                     0.080316
     47 H                     0.092033
     48 H                     0.120408
     49 H                     0.087429
     50 H                     0.096527
     51 H                     0.093042
     52 H                     0.087844
     53 H                     0.085919
     54 H                     0.087174
     55 H                     0.082635
     56 H                     0.115338
  ----------------------------------------
  Sum of atomic charges =    -0.000000

                    Cartesian Multipole Moments
 -----------------------------------------------------------------
    Charge (ESU x 10^10)
                -0.0000
    Dipole Moment (Debye)
         X       6.3224      Y       2.0496      Z      -3.6219
       Tot       7.5691
    Quadrupole Moments (Debye-Ang)
        XX    -150.0253     XY      -3.2662     YY    -165.4644
        XZ       9.8407     YZ      -1.6405     ZZ    -160.6583

 Total job time:  181.13s(wall), 8643.77s(cpu)
        *  Thank you very much for using Q-Chem.  Have a nice day.  *
