 Q-Chem 5.0, Q-Chem, Inc., Pleasanton, CA (2017)
 Q-Chem 5.0.1 for Intel X86 EM64T Linux

User input:
--------------------------------------------------------------
$molecule
0  1
O -3.94934 -3.66094 2.70899
C -3.26408 -4.56952 2.26188
C -3.36658 -6.02376 2.66595
C -3.85957 -6.32399 4.09097
C -4.36389 -5.14454 4.89263
O -5.13703 -5.58447 5.92903
C -6.50268 -5.80305 5.55959
C -7.16855 -4.47868 5.20072
O -6.30372 -3.386 5.54857
C -5.37831 -3.05454 4.61429
C -5.91163 -2.10356 3.56937
C -6.68547 -0.89909 4.12498
C -6.51165 -0.62805 5.60586
O -7.39121 -0.24729 6.36478
O -2.4057 -4.30338 1.24217
O -5.23594 -0.47946 6.05538
O -4.36017 -2.54063 5.06382
C -4.8873 -0.14639 7.34838
C -4.87913 -1.192 2.73503
C -5.5132 -0.80971 1.39831
C -6.54885 0.18782 1.86152
C -6.16479 0.29526 3.34092
O -4.79912 0.05329 3.37741
H -6.52075 -2.69319 2.84949
H -7.78143 -1.02334 3.97541
H -3.8622 -1.54211 2.52307
H -4.7359 -0.25566 0.82233
H -5.8905 -1.64801 0.77449
H -6.38302 1.14771 1.32402
H -7.60553 -0.13812 1.74638
H -6.50061 1.26193 3.7776
O -3.34142 -4.55819 5.2387
C -2.19578 -3.05287 0.70103
C -4.38765 -6.80504 1.81291
C -3.91992 -8.24536 1.6838
C -4.08119 -8.70152 3.11488
C -4.81484 -7.48455 3.72178
O -5.52154 -6.94154 2.63802
H -2.34747 -6.44736 2.50584
H -3.05722 -6.80147 4.70572
H -1.80121 -2.3623 1.47636
H -4.56759 -6.36373 0.80795
H -4.67328 -8.76431 1.04786
H -2.90788 -8.39993 1.25149
H -4.71428 -9.61686 3.11434
H -3.13091 -8.9001 3.65635
H -5.3574 -7.90491 4.58686
H -3.14344 -2.65257 0.28162
H -1.44983 -3.13143 -0.11606
H -3.78167 -0.10304 7.42646
H -5.26531 -0.91682 8.05412
H -5.30438 0.84769 7.61608
H -7.35691 -4.46898 4.10273
H -8.16592 -4.37827 5.67962
H -6.98077 -6.13877 6.50419
H -6.81196 -6.55596 4.82645
$end

$opt
CONSTRAINT
tors           1           2           3           4     -28.421
tors           3           4           5           6    +161.053
tors           4           5           6           7     -85.263
tors           5           6           7           8     -66.316
tors           6           7           8           9      -9.474
tors           7           8           9          10     +85.263
tors           8           9          10          11     +85.263
tors           9          10          11          12     +47.368
tors          11          12          13          14    -142.105
ENDCONSTRAINT
$end

$rem
JOBTYPE                   OPT
METHOD                    B3LYP
DFT_D                     d3_op
BASIS                     STO-3G
GEOM_OPT_MAX_CYCLES       100
GEOM_OPT_TOL_GRADIENT     300
GEOM_OPT_TOL_DISPLACEMENT 1200
GEOM_OPT_TOL_ENERGY       100
SYMMETRY                  False
THRESH                    12
SCF_CONVERGENCE           8
MAX_SUB_FILE_NUM          128
MEM_STATIC                400
MEM_TOTAL                 4000
$end
--------------------------------------------------------------

   17   -1509.9571161631      3.49E-09 Convergence criterion met
 Total energy in the final basis set = -1509.95711616
   14   -1510.0335464902      9.41E-09 Convergence criterion met
 Total energy in the final basis set = -1510.03354649
   14   -1510.1032656253      9.24E-09 Convergence criterion met
 Total energy in the final basis set = -1510.10326563
   14   -1510.1504121735      9.54E-09 Convergence criterion met
 Total energy in the final basis set = -1510.15041217
   14   -1510.1787568466      8.80E-09 Convergence criterion met
 Total energy in the final basis set = -1510.17875685
   14   -1510.1944748584      5.29E-09 Convergence criterion met
 Total energy in the final basis set = -1510.19447486
   14   -1510.2035090838      3.56E-09 Convergence criterion met
 Total energy in the final basis set = -1510.20350908
   14   -1510.2095612866      3.18E-09 Convergence criterion met
   11   -1510.2261516263      1.83E-09 Convergence criterion met
 Total energy in the final basis set = -1510.22615163
   10   -1510.2261636994      5.77E-09 Convergence criterion met
 Total energy in the final basis set = -1510.22616370
    9   -1510.2261729724      8.61E-09 Convergence criterion met
 Total energy in the final basis set = -1510.22617297
    9   -1510.2261790860      9.84E-09 Convergence criterion met
 Total energy in the final basis set = -1510.22617909
   10   -1510.2261828149      7.16E-09 Convergence criterion met
 Total energy in the final basis set = -1510.22618281
   10   -1510.2261846241      5.35E-09 Convergence criterion met
 Total energy in the final basis set = -1510.22618462

             Standard Nuclear Orientation (Angstroms)
    I     Atom           X                Y                Z
 ----------------------------------------------------------------
    1      O      -1.0906028286    -1.1117746133    -0.0467998425
    2      C      -2.0997584444    -1.5169932080     0.5682548540
    3      C      -3.4696808948    -0.7805792817     0.7537870397
    4      C      -3.3539019819     0.7959007213     0.7315190542
    5      C      -1.9268865292     1.3543480759     1.1785569190
    6      O      -1.6473193082     2.7226462213     0.7663718206
    7      C      -1.0974494432     2.8567005404    -0.5881757421
    8      C       0.3635953587     2.3052275909    -1.0296955119
    9      O       1.3672044399     1.7969770378    -0.0906682205
   10      C       1.2463314473     0.3862251445     0.2782710566
   11      C       1.9697402286    -0.5426229625    -0.7779651936
   12      C       3.4275774287    -0.0616094536    -1.1669526486
   13      C       3.9325936203     1.1486513497    -0.3092341498
   14      O       4.6171963913     2.1209358192    -0.6932674297
   15      O      -2.2191845026    -2.8068817372     1.1766077162
   16      O       3.5670672176     0.9004545512     1.0536636646
   17      O       0.8240434521     0.0105250652     1.3858520950
   18      C       3.9035757250     2.0655923117     1.9006191697
   19      C       2.2587878046    -1.9848144825    -0.1958065177
   20      C       2.4928925002    -2.9642310751    -1.4084479025
   21      C       3.9120458955    -2.4892191499    -1.9005021121
   22      C       4.2566522877    -1.3778998420    -0.8278277443
   23      O       3.6071370948    -1.8647291366     0.4077994953
   24      H       1.3305653870    -0.6011047774    -1.6781288209
   25      H       3.5073595047     0.2134915047    -2.2331569031
   26      H       1.5248693712    -2.3101782912     0.5640007906
   27      H       2.5157212833    -4.0104702487    -1.0634936683
   28      H       1.7164757055    -2.8623716726    -2.1833579830
   29      H       4.6502912912    -3.3059572641    -1.8600469123
   30      H       3.8915966936    -2.0828781824    -2.9245183632
   31      H       5.3379835752    -1.2073298237    -0.6597592345
   32      O      -1.2922356146     0.8354369036     2.1181522674
   33      C      -0.9611023958    -3.5710420508     1.0227001364
   34      C      -4.3195426334    -1.0212265647    -0.5709194415
   35      C      -5.7883684289    -0.4843302858    -0.3543906427
   36      C      -5.5714218452     1.0655346409    -0.5066499660
   37      C      -4.0021051060     1.1359211457    -0.6799303513
   38      O      -3.7100619302    -0.0528319245    -1.5147905971
   39      H      -3.9724682371    -1.1653256663     1.6573709457
   40      H      -4.0231093669     1.2031545598     1.5153501256
   41      H      -0.1440732624    -3.1197393056     1.6222211099
   42      H      -4.2509181803    -2.0504637662    -0.9741127622
   43      H      -6.4661948790    -0.8803821307    -1.1271237743
   44      H      -6.1817926466    -0.7624292212     0.6364516100
   45      H      -6.0681592001     1.4532016248    -1.4105565085
   46      H      -5.9260922668     1.6380724714     0.3650389229
   47      H      -3.6465186835     2.0607157452    -1.1669130866
   48      H      -0.6372594884    -3.6225431170    -0.0367867615
   49      H      -1.1717203804    -4.5894865383     1.3978174854
   50      H       3.6581473790     1.7699308417     2.9370622914
   51      H       3.2979659638     2.9498218630     1.6147684084
   52      H       4.9788929319     2.3264795966     1.8272487759
   53      H       0.1736936264     1.5468920755    -1.8230222962
   54      H       0.8650752662     3.1684509597    -1.5166377311
   55      H      -1.0784021951     3.9561010141    -0.7378757858
   56      H      -1.7914961787     2.4333359100    -1.3451209004
 ----------------------------------------------------------------

    9   -1510.2261855465      8.27E-09 Convergence criterion met
 Total energy in the final basis set = -1510.22618555
 Final energy is   -1510.22618554646
 **  OPTIMIZATION CONVERGED  **

                    Orbital Energies (a.u.)
 --------------------------------------------------------------

 Alpha MOs
 -- Occupied --
-18.935 -18.925 -18.909 -18.900 -18.897 -18.895 -18.893 -18.882
-18.874 -18.864 -10.103 -10.100 -10.100 -10.090 -10.067 -10.066
-10.065 -10.065 -10.064 -10.056 -10.052 -10.051 -10.039 -10.036
-10.031 -10.027 -10.025 -10.024 -10.017 -10.016  -1.013  -1.005
 -1.001  -0.990  -0.976  -0.964  -0.941  -0.936  -0.928  -0.926
 -0.765  -0.757  -0.725  -0.719  -0.709  -0.700  -0.696  -0.665
 -0.649  -0.607  -0.596  -0.584  -0.550  -0.543  -0.539  -0.533
 -0.519  -0.503  -0.480  -0.472  -0.463  -0.452  -0.443  -0.441
 -0.436  -0.428  -0.420  -0.413  -0.410  -0.405  -0.402  -0.398
 -0.392  -0.385  -0.370  -0.365  -0.361  -0.359  -0.346  -0.346
 -0.342  -0.336  -0.334  -0.330  -0.328  -0.323  -0.319  -0.315
 -0.311  -0.308  -0.301  -0.298  -0.293  -0.289  -0.285  -0.272
 -0.266  -0.255  -0.245  -0.240  -0.235  -0.228  -0.221  -0.177
 -0.174  -0.166  -0.162  -0.155  -0.150  -0.145  -0.144  -0.137
 -0.136

          Ground-State Mulliken Net Atomic Charges

     Atom                 Charge (a.u.)
  ----------------------------------------
      1 O                    -0.219610
      2 C                     0.215618
      3 C                    -0.079016
      4 C                    -0.083158
      5 C                     0.217913
      6 O                    -0.187651
      7 C                    -0.049587
      8 C                    -0.048592
      9 O                    -0.197935
     10 C                     0.238283
     11 C                    -0.079508
     12 C                    -0.080041
     13 C                     0.214331
     14 O                    -0.216542
     15 O                    -0.169596
     16 O                    -0.165487
     17 O                    -0.166791
     18 C                    -0.126180
     19 C                     0.025023
     20 C                    -0.144046
     21 C                    -0.144174
     22 C                     0.025654
     23 O                    -0.187432
     24 H                     0.080555
     25 H                     0.082054
     26 H                     0.088704
     27 H                     0.075073
     28 H                     0.072300
     29 H                     0.076953
     30 H                     0.072755
     31 H                     0.081991
     32 O                    -0.164531
     33 C                    -0.128752
     34 C                     0.024619
     35 C                    -0.144723
     36 C                    -0.142422
     37 C                     0.021443
     38 O                    -0.192743
     39 H                     0.089369
     40 H                     0.084509
     41 H                     0.092705
     42 H                     0.082720
     43 H                     0.078469
     44 H                     0.075612
     45 H                     0.077823
     46 H                     0.074864
     47 H                     0.082546
     48 H                     0.087673
     49 H                     0.091011
     50 H                     0.093625
     51 H                     0.092714
     52 H                     0.087871
     53 H                     0.071995
     54 H                     0.084414
     55 H                     0.083715
     56 H                     0.073612
  ----------------------------------------
  Sum of atomic charges =     0.000000

                    Cartesian Multipole Moments
 -----------------------------------------------------------------
    Charge (ESU x 10^10)
                -0.0000
    Dipole Moment (Debye)
         X      -3.0368      Y      -1.2712      Z      -2.4910
       Tot       4.1283
    Quadrupole Moments (Debye-Ang)
        XX    -150.9836     XY      -5.1385     YY    -154.0064
        XZ      -2.5012     YZ       0.7998     ZZ    -161.6982

 Total job time:  99.20s(wall), 4731.95s(cpu)
        *  Thank you very much for using Q-Chem.  Have a nice day.  *
