 Q-Chem 5.0, Q-Chem, Inc., Pleasanton, CA (2017)
 Q-Chem 5.0.1 for Intel X86 EM64T Linux

User input:
--------------------------------------------------------------
$molecule
0  1
O 1.6317603026 1.6342028343 0.9153396045
C 2.7680564207 1.4127189069 0.4406083048
C 3.6335009764 0.1231626712 0.6715420325
C 2.8346553135 -1.2335254298 0.4770784508
C 1.333582714 -1.1085352836 -0.0048880083
O 0.5475910221 -2.1053851913 0.6655086801
C -0.3524961817 -1.7763968953 1.7779744801
C -1.8714695215 -1.2651983446 1.5858418826
O -2.5382000396 -1.7382500629 0.3554354102
C -1.9388665528 -1.1994895548 -0.8482018502
C -2.1037734264 0.4040610125 -1.0400549363
C -3.4114993263 1.001081103 -0.3519389223
C -4.5356715251 -0.0166884907 0.0512556001
O -5.4611126543 0.1742865856 0.8712791765
O 3.4956381421 2.34988313 -0.3545389538
O -4.5691575486 -1.0327330863 -0.9642519166
O -1.5671661177 -1.9587359137 -1.7641486687
C -5.6438086794 -2.010610257 -0.6908126319
C -1.0459528005 1.3600530886 -0.3340084109
C -1.2528500669 2.8426624679 -0.8408860343
C -2.4774339573 3.3232821277 0.0263448628
C -2.8503896575 1.979304526 0.7534890864
O -1.5089015689 1.4361490824 1.0780976347
H -2.1122176035 0.573025034 -2.1307530534
H -3.9181442686 1.6257578693 -1.1143034416
H -0.0045024381 0.9952665188 -0.3838032831
H -0.3534985469 3.4411125892 -0.6288987744
H -1.4557079545 2.8842663813 -1.9231125307
H -2.1755771726 4.0868873626 0.7613372539
H -3.3067760432 3.7210036797 -0.5799446243
H -3.4755117878 2.0657868023 1.663702283
O 0.9558402269 -0.4524963796 -0.9986013339
C 2.6895032629 3.5732417229 -0.567929051
C 4.8072507304 -0.0605096497 -0.3820350904
C 5.8420509648 -1.0990317125 0.2038992055
C 5.0550143621 -2.4492381611 0.0195159698
C 3.7198127735 -1.9340825501 -0.6493911981
O 4.1603959646 -0.7999304194 -1.4896599806
H 4.0308847848 0.1793884977 1.7025565696
H 2.8330903957 -1.8288677716 1.4059584785
H 2.3070558024 3.9834020764 0.3886739302
H 5.2344098815 0.8921491642 -0.7481474743
H 6.7714802579 -1.0902532421 -0.3871842037
H 6.090514513 -0.889958087 1.2566014857
H 5.5838811669 -3.1368527121 -0.6594987809
H 4.8663274242 -2.968246897 0.9728217447
H 3.177823687 -2.6828210298 -1.2594793305
H 1.8280811418 3.3726303195 -1.237217625
H 3.3647892891 4.3052938047 -1.0476819331
H -5.2058273789 -2.9324634452 -0.2569778941
H -6.1338554687 -2.2537805946 -1.6526511236
H -6.3765732983 -1.5769454393 0.0193948652
H -2.4666047987 -1.6611691573 2.4311118473
H -1.8301554178 -0.1416332174 1.5896451654
H 0.1321538805 -1.0316706099 2.4510694856
H -0.3979046736 -2.7390123933 2.3317782749
$end

$rem
JOBTYPE                   OPT
METHOD                    B3LYP
DFT_D                     d3_op
BASIS                     STO-3G
GEOM_OPT_MAX_CYCLES       100
GEOM_OPT_TOL_GRADIENT     300
GEOM_OPT_TOL_DISPLACEMENT 1200
GEOM_OPT_TOL_ENERGY       100
SYMMETRY                  False
THRESH                    12
SCF_CONVERGENCE           8
MAX_SUB_FILE_NUM          128
MEM_STATIC                400
MEM_TOTAL                 4000
$end
--------------------------------------------------------------

   16   -1510.2329480073      4.91E-09 Convergence criterion met
 Total energy in the final basis set = -1510.23294801
   15   -1510.2319054321      5.46E-09 Convergence criterion met
 Total energy in the final basis set = -1510.23190543
   13   -1510.2417972421      5.55E-09 Convergence criterion met
 Total energy in the final basis set = -1510.24179724
   15   -1510.2491019511      4.12E-09 Convergence criterion met
 Total energy in the final basis set = -1510.24910195
   14   -1510.2529846546      7.50E-09 Convergence criterion met
 Total energy in the final basis set = -1510.25298465
   13   -1510.2565628029      5.45E-09 Convergence criterion met
 Total energy in the final basis set = -1510.25656280
   13   -1510.2591922790      5.40E-09 Convergence criterion met
 Total energy in the final basis set = -1510.25919228
   14   -1510.2613081767      2.05E-09 Convergence criterion met
   11   -1510.2968721100      4.60E-09 Convergence criterion met
 Total energy in the final basis set = -1510.29687211
   11   -1510.2968757754      5.05E-09 Convergence criterion met
 Total energy in the final basis set = -1510.29687578
   11   -1510.2968659971      6.12E-09 Convergence criterion met
 Total energy in the final basis set = -1510.29686600
   10   -1510.2968674930      7.48E-09 Convergence criterion met
 Total energy in the final basis set = -1510.29686749
   10   -1510.2968724227      8.36E-09 Convergence criterion met
 Total energy in the final basis set = -1510.29687242
   11   -1510.2968725297      3.03E-09 Convergence criterion met
 Total energy in the final basis set = -1510.29687253

             Standard Nuclear Orientation (Angstroms)
    I     Atom           X                Y                Z
 ----------------------------------------------------------------
    1      O      -3.5954134862    -1.9817288806     2.6480495944
    2      C      -3.1534840560    -1.4723259607     1.5958819195
    3      C      -3.6539205194    -0.1390180199     0.9218057601
    4      C      -2.6965068157     1.1051802052     1.1415618812
    5      C      -1.4055529960     0.7354539254     1.9501750136
    6      O      -0.5045454627     1.8360298482     1.9031634134
    7      C       0.7497033450     1.5129676023     2.6306328205
    8      C       1.7728253230     0.7836262087     1.6907900509
    9      O       2.1156305564     1.6706221413     0.5488970923
   10      C       1.2300202102     1.4435420498    -0.5760687738
   11      C       1.3108980234     0.0377229904    -1.3099757206
   12      C       2.6633864159    -0.7583908786    -1.0995532935
   13      C       3.8002148975     0.0355197437    -0.3587260004
   14      O       4.3502352743    -0.2542106769     0.7258920669
   15      O      -2.1942849167    -2.0963360493     0.7301596273
   16      O       4.2069990202     1.1068624708    -1.2200793445
   17      O       0.5449689668     2.3911495541    -1.0227002771
   18      C       5.2049525933     1.9520137811    -0.5278932612
   19      C       0.2561168133    -1.0251282142    -0.7841039386
   20      C       0.2364955893    -2.2527323241    -1.7766854865
   21      C       1.5402477252    -3.0329847340    -1.3655486508
   22      C       2.1524582192    -2.0399271878    -0.3120743198
   23      O       0.9375663862    -1.5761662007     0.4174281827
   24      H       1.1352896112     0.2543033228    -2.3786241556
   25      H       3.0706956651    -1.0552548357    -2.0831264531
   26      H      -0.7664693994    -0.6160151066    -0.5797187514
   27      H      -0.6703866591    -2.8557399044    -1.6124803701
   28      H       0.2535275568    -1.9261805137    -2.8287003370
   29      H       1.3012687533    -3.9980788573    -0.8903855506
   30      H       2.2193048594    -3.2148625392    -2.2137097446
   31      H       2.8884737885    -2.4640976797     0.3987006019
   32      O      -1.1848893424    -0.3334598626     2.5652078311
   33      C      -1.6260332967    -3.2902899799     1.3916963590
   34      C      -3.6690595823    -0.2219903904    -0.6624308011
   35      C      -4.5760648663     0.9422351509    -1.2195017395
   36      C      -3.6503310201     2.1943039169    -0.9831532670
   37      C      -2.3701467280     1.5213411037    -0.3555193133
   38      O      -2.3032105347     0.2116975103    -1.0471453850
   39      H      -4.6602848971     0.0708823689     1.3242927956
   40      H      -3.2129446257     1.9242673841     1.6749099858
   41      H      -2.4069967778    -4.0453333683     1.6178699631
   42      H      -3.8816937856    -1.2285496176    -1.0705595817
   43      H      -4.7808610219     0.7900514072    -2.2912705727
   44      H      -5.5354528751     1.0131400494    -0.6826934355
   45      H      -3.3941820530     2.6933884678    -1.9311098250
   46      H      -4.1006914205     2.9355409926    -0.3039965806
   47      H      -1.4141172855     2.0715742789    -0.4930547255
   48      H      -1.1110540937    -3.0129250685     2.3335169016
   49      H      -0.8903326896    -3.7113274216     0.6828921242
   50      H       4.7439176313     2.4813826091     0.3315273476
   51      H       5.5547391081     2.6904274618    -1.2725209098
   52      H       6.0634466395     1.3545558002    -0.1591394311
   53      H       2.7181690890     0.6200182251     2.2483351985
   54      H       1.3773751316    -0.2116834331     1.3311811194
   55      H       0.5322366331     0.8678369270     3.5091528160
   56      H       1.1550638405     2.4888423152     2.9658468562
 ----------------------------------------------------------------

    9   -1510.2968721355      8.06E-09 Convergence criterion met
 Total energy in the final basis set = -1510.29687214
 Final energy is   -1510.29687213553
 **  OPTIMIZATION CONVERGED  **

                    Orbital Energies (a.u.)
 --------------------------------------------------------------

 Alpha MOs
 -- Occupied --
-18.939 -18.925 -18.919 -18.908 -18.907 -18.903 -18.890 -18.884
-18.866 -18.858 -10.105 -10.103 -10.096 -10.090 -10.066 -10.065
-10.063 -10.059 -10.057 -10.051 -10.045 -10.041 -10.041 -10.036
-10.035 -10.034 -10.024 -10.023 -10.022 -10.017  -1.020  -1.007
 -0.998  -0.997  -0.980  -0.979  -0.943  -0.932  -0.930  -0.923
 -0.766  -0.765  -0.726  -0.721  -0.712  -0.702  -0.693  -0.657
 -0.650  -0.610  -0.597  -0.577  -0.550  -0.547  -0.541  -0.535
 -0.511  -0.508  -0.483  -0.476  -0.467  -0.455  -0.445  -0.440
 -0.436  -0.435  -0.419  -0.414  -0.407  -0.403  -0.401  -0.400
 -0.394  -0.385  -0.368  -0.366  -0.363  -0.355  -0.351  -0.345
 -0.344  -0.341  -0.334  -0.332  -0.329  -0.326  -0.320  -0.318
 -0.310  -0.310  -0.305  -0.300  -0.295  -0.284  -0.279  -0.276
 -0.274  -0.255  -0.251  -0.248  -0.245  -0.233  -0.224  -0.188
 -0.171  -0.166  -0.163  -0.160  -0.156  -0.152  -0.147  -0.145
 -0.139

          Ground-State Mulliken Net Atomic Charges

     Atom                 Charge (a.u.)
  ----------------------------------------
      1 O                    -0.218690
      2 C                     0.214240
      3 C                    -0.083120
      4 C                    -0.079600
      5 C                     0.210826
      6 O                    -0.171151
      7 C                    -0.053705
      8 C                    -0.079505
      9 O                    -0.190224
     10 C                     0.219857
     11 C                    -0.085754
     12 C                    -0.084878
     13 C                     0.212134
     14 O                    -0.222918
     15 O                    -0.176793
     16 O                    -0.173681
     17 O                    -0.192345
     18 C                    -0.128334
     19 C                     0.006712
     20 C                    -0.143656
     21 C                    -0.142752
     22 C                     0.023007
     23 O                    -0.186664
     24 H                     0.088764
     25 H                     0.085889
     26 H                     0.120425
     27 H                     0.080020
     28 H                     0.074227
     29 H                     0.076097
     30 H                     0.074604
     31 H                     0.090664
     32 O                    -0.206741
     33 C                    -0.126296
     34 C                     0.027392
     35 C                    -0.143550
     36 C                    -0.143148
     37 C                     0.018484
     38 O                    -0.189882
     39 H                     0.084410
     40 H                     0.088535
     41 H                     0.083864
     42 H                     0.087587
     43 H                     0.078669
     44 H                     0.075322
     45 H                     0.081387
     46 H                     0.075606
     47 H                     0.104490
     48 H                     0.096264
     49 H                     0.086920
     50 H                     0.091607
     51 H                     0.088725
     52 H                     0.088120
     53 H                     0.087056
     54 H                     0.116800
     55 H                     0.094766
     56 H                     0.089918
  ----------------------------------------
  Sum of atomic charges =     0.000000

                    Cartesian Multipole Moments
 -----------------------------------------------------------------
    Charge (ESU x 10^10)
                 0.0000
    Dipole Moment (Debye)
         X      -0.3039      Y      -0.3430      Z      -1.8461
       Tot       1.9021
    Quadrupole Moments (Debye-Ang)
        XX    -152.0502     XY      -5.1958     YY    -158.3695
        XZ       3.4111     YZ       9.2349     ZZ    -163.1008

 Total job time:  184.86s(wall), 8824.02s(cpu)
        *  Thank you very much for using Q-Chem.  Have a nice day.  *
