 Q-Chem 5.0, Q-Chem, Inc., Pleasanton, CA (2017)
 Q-Chem 5.0.1 for Intel X86 EM64T Linux

User input:
--------------------------------------------------------------
$molecule
0  1
O -3.94934 -3.66094 2.70899
C -3.26408 -4.56952 2.26188
C -3.36658 -6.02376 2.66595
C -4.77372 -6.64113 2.71769
C -5.90468 -5.78727 2.1886
O -7.01763 -5.96077 2.96105
C -7.26545 -4.86332 3.84618
C -8.05519 -3.77525 3.12609
O -8.86517 -4.36005 2.09419
C -8.18308 -4.91713 1.06289
C -7.42482 -3.90134 0.242
C -8.0373 -2.49317 0.22788
C -9.08068 -2.21572 1.29141
O -9.44007 -1.10671 1.65953
O -2.37266 -4.26697 1.28049
O -10.21218 -2.94769 0.98901
O -8.62659 -5.93018 0.538
C -11.45179 -2.86394 1.60425
C -5.91357 -3.42316 0.28667
C -5.50402 -2.82398 -1.07976
C -6.11371 -1.45013 -0.98484
C -6.81542 -1.56783 0.359
O -5.90764 -2.30269 1.12693
H -7.52433 -4.32727 -0.78234
H -8.55644 -2.26105 -0.73159
H -5.1072 -4.13336 0.46609
H -4.40218 -2.6979 -1.15456
H -5.83933 -3.43561 -1.94474
H -5.29742 -0.7008 -0.87097
H -6.76895 -1.15918 -1.83398
H -7.06719 -0.55529 0.74324
O -5.9946 -6.0377 0.99591
C -2.0375 -2.983 0.90262
C -2.62351 -7.02244 1.75482
C -2.27637 -8.28691 2.54071
C -3.64125 -8.92645 2.66415
C -4.49101 -7.92388 1.87752
O -3.61827 -7.47047 0.86975
H -2.92179 -6.04163 3.68623
H -5.0476 -6.96768 3.74807
H -1.57013 -2.4477 1.75638
H -1.70012 -6.61288 1.29269
H -1.6425 -8.93101 1.88998
H -1.74898 -8.10134 3.50116
H -3.62173 -9.90017 2.12523
H -4.00508 -9.07946 3.70295
H -5.42668 -8.41748 1.53311
H -2.93562 -2.42454 0.5729
H -1.31006 -3.02684 0.06649
H -11.72707 -3.86389 1.99837
H -12.21086 -2.55263 0.85769
H -11.45831 -2.14707 2.45305
H -8.67268 -3.21235 3.85921
H -7.30601 -3.07598 2.74616
H -6.37624 -4.50441 4.41212
H -7.96813 -5.27743 4.60034
$end

$opt
CONSTRAINT
tors           1           2           3           4     +47.368
tors           3           4           5           6    -142.105
tors           4           5           6           7    +104.211
tors           5           6           7           8     +85.263
tors           6           7           8           9     +28.421
tors           7           8           9          10     -66.316
tors           8           9          10          11     -66.316
tors           9          10          11          12     -28.421
tors          11          12          13          14    +161.053
ENDCONSTRAINT
$end

$rem
JOBTYPE                   OPT
METHOD                    B3LYP
DFT_D                     d3_op
BASIS                     STO-3G
GEOM_OPT_MAX_CYCLES       100
GEOM_OPT_TOL_GRADIENT     300
GEOM_OPT_TOL_DISPLACEMENT 1200
GEOM_OPT_TOL_ENERGY       100
SYMMETRY                  False
THRESH                    12
SCF_CONVERGENCE           8
MAX_SUB_FILE_NUM          128
MEM_STATIC                400
MEM_TOTAL                 4000
$end
--------------------------------------------------------------

   16   -1509.9907350954      5.55E-09 Convergence criterion met
 Total energy in the final basis set = -1509.99073510
   14   -1510.0806733983      9.32E-09 Convergence criterion met
 Total energy in the final basis set = -1510.08067340
   15   -1510.1355797264      3.61E-09 Convergence criterion met
 Total energy in the final basis set = -1510.13557973
   15   -1510.1674511552      1.89E-09 Convergence criterion met
 Total energy in the final basis set = -1510.16745116
   15   -1510.1908350367      1.80E-09 Convergence criterion met
 Total energy in the final basis set = -1510.19083504
   14   -1510.2026693112      4.36E-09 Convergence criterion met
 Total energy in the final basis set = -1510.20266931
   14   -1510.2134813543      3.27E-09 Convergence criterion met
 Total energy in the final basis set = -1510.21348135
   13   -1510.2205808773      6.97E-09 Convergence criterion met
   10   -1510.2328945489      8.89E-09 Convergence criterion met
 Total energy in the final basis set = -1510.23289455
    9   -1510.2328958127      9.59E-09 Convergence criterion met
 Total energy in the final basis set = -1510.23289581
   10   -1510.2328978459      7.47E-09 Convergence criterion met
 Total energy in the final basis set = -1510.23289785
    9   -1510.2329002603      5.75E-09 Convergence criterion met
 Total energy in the final basis set = -1510.23290026
    9   -1510.2329024057      4.07E-09 Convergence criterion met
 Total energy in the final basis set = -1510.23290241
    9   -1510.2329039275      4.49E-09 Convergence criterion met
 Total energy in the final basis set = -1510.23290393

             Standard Nuclear Orientation (Angstroms)
    I     Atom           X                Y                Z
 ----------------------------------------------------------------
    1      O       1.6317603026     1.6342028343     0.9153396045
    2      C       2.7680564207     1.4127189069     0.4406083048
    3      C       3.6335009764     0.1231626712     0.6715420325
    4      C       2.8346553135    -1.2335254298     0.4770784508
    5      C       1.3335827140    -1.1085352836    -0.0048880083
    6      O       0.5475910221    -2.1053851913     0.6655086801
    7      C      -0.3524961817    -1.7763968953     1.7779744801
    8      C      -1.8714695215    -1.2651983446     1.5858418826
    9      O      -2.5382000396    -1.7382500629     0.3554354102
   10      C      -1.9388665528    -1.1994895548    -0.8482018502
   11      C      -2.1037734264     0.4040610125    -1.0400549363
   12      C      -3.4114993263     1.0010811030    -0.3519389223
   13      C      -4.5356715251    -0.0166884907     0.0512556001
   14      O      -5.4611126543     0.1742865856     0.8712791765
   15      O       3.4956381421     2.3498831300    -0.3545389538
   16      O      -4.5691575486    -1.0327330863    -0.9642519166
   17      O      -1.5671661177    -1.9587359137    -1.7641486687
   18      C      -5.6438086794    -2.0106102570    -0.6908126319
   19      C      -1.0459528005     1.3600530886    -0.3340084109
   20      C      -1.2528500669     2.8426624679    -0.8408860343
   21      C      -2.4774339573     3.3232821277     0.0263448628
   22      C      -2.8503896575     1.9793045260     0.7534890864
   23      O      -1.5089015689     1.4361490824     1.0780976347
   24      H      -2.1122176035     0.5730250340    -2.1307530534
   25      H      -3.9181442686     1.6257578693    -1.1143034416
   26      H      -0.0045024381     0.9952665188    -0.3838032831
   27      H      -0.3534985469     3.4411125892    -0.6288987744
   28      H      -1.4557079545     2.8842663813    -1.9231125307
   29      H      -2.1755771726     4.0868873626     0.7613372539
   30      H      -3.3067760432     3.7210036797    -0.5799446243
   31      H      -3.4755117878     2.0657868023     1.6637022830
   32      O       0.9558402269    -0.4524963796    -0.9986013339
   33      C       2.6895032629     3.5732417229    -0.5679290510
   34      C       4.8072507304    -0.0605096497    -0.3820350904
   35      C       5.8420509648    -1.0990317125     0.2038992055
   36      C       5.0550143621    -2.4492381611     0.0195159698
   37      C       3.7198127735    -1.9340825501    -0.6493911981
   38      O       4.1603959646    -0.7999304194    -1.4896599806
   39      H       4.0308847848     0.1793884977     1.7025565696
   40      H       2.8330903957    -1.8288677716     1.4059584785
   41      H       2.3070558024     3.9834020764     0.3886739302
   42      H       5.2344098815     0.8921491642    -0.7481474743
   43      H       6.7714802579    -1.0902532421    -0.3871842037
   44      H       6.0905145130    -0.8899580870     1.2566014857
   45      H       5.5838811669    -3.1368527121    -0.6594987809
   46      H       4.8663274242    -2.9682468970     0.9728217447
   47      H       3.1778236870    -2.6828210298    -1.2594793305
   48      H       1.8280811418     3.3726303195    -1.2372176250
   49      H       3.3647892891     4.3052938047    -1.0476819331
   50      H      -5.2058273789    -2.9324634452    -0.2569778941
   51      H      -6.1338554687    -2.2537805946    -1.6526511236
   52      H      -6.3765732983    -1.5769454393     0.0193948652
   53      H      -2.4666047987    -1.6611691573     2.4311118473
   54      H      -1.8301554178    -0.1416332174     1.5896451654
   55      H       0.1321538805    -1.0316706099     2.4510694856
   56      H      -0.3979046736    -2.7390123933     2.3317782749
 ----------------------------------------------------------------

    9   -1510.2329042811      4.12E-09 Convergence criterion met
 Total energy in the final basis set = -1510.23290428
 Final energy is   -1510.23290428114
 **  OPTIMIZATION CONVERGED  **

                    Orbital Energies (a.u.)
 --------------------------------------------------------------

 Alpha MOs
 -- Occupied --
-18.945 -18.924 -18.905 -18.905 -18.904 -18.894 -18.890 -18.880
-18.877 -18.869 -10.114 -10.107 -10.096 -10.090 -10.071 -10.064
-10.063 -10.062 -10.060 -10.050 -10.048 -10.043 -10.036 -10.033
-10.033 -10.024 -10.022 -10.022 -10.021 -10.019  -1.020  -1.009
 -1.004  -0.986  -0.978  -0.973  -0.945  -0.940  -0.929  -0.919
 -0.765  -0.762  -0.724  -0.717  -0.711  -0.701  -0.687  -0.668
 -0.652  -0.609  -0.592  -0.579  -0.549  -0.546  -0.539  -0.538
 -0.515  -0.505  -0.483  -0.473  -0.461  -0.451  -0.449  -0.437
 -0.434  -0.426  -0.420  -0.417  -0.415  -0.403  -0.403  -0.395
 -0.390  -0.386  -0.379  -0.369  -0.365  -0.360  -0.354  -0.344
 -0.343  -0.340  -0.335  -0.332  -0.325  -0.321  -0.315  -0.312
 -0.311  -0.308  -0.305  -0.299  -0.295  -0.289  -0.280  -0.275
 -0.269  -0.257  -0.244  -0.242  -0.236  -0.227  -0.217  -0.185
 -0.175  -0.165  -0.164  -0.159  -0.154  -0.152  -0.146  -0.137
 -0.127

          Ground-State Mulliken Net Atomic Charges

     Atom                 Charge (a.u.)
  ----------------------------------------
      1 O                    -0.217885
      2 C                     0.212241
      3 C                    -0.080125
      4 C                    -0.081599
      5 C                     0.233235
      6 O                    -0.201499
      7 C                    -0.046239
      8 C                    -0.079700
      9 O                    -0.191130
     10 C                     0.225415
     11 C                    -0.081146
     12 C                    -0.084183
     13 C                     0.214458
     14 O                    -0.219161
     15 O                    -0.165973
     16 O                    -0.169358
     17 O                    -0.184934
     18 C                    -0.133056
     19 C                     0.014614
     20 C                    -0.144201
     21 C                    -0.140652
     22 C                     0.023302
     23 O                    -0.185108
     24 H                     0.086572
     25 H                     0.084455
     26 H                     0.108080
     27 H                     0.076801
     28 H                     0.074309
     29 H                     0.078113
     30 H                     0.074531
     31 H                     0.090394
     32 O                    -0.184561
     33 C                    -0.127900
     34 C                     0.023605
     35 C                    -0.144320
     36 C                    -0.143623
     37 C                     0.025976
     38 O                    -0.187063
     39 H                     0.084913
     40 H                     0.083416
     41 H                     0.091570
     42 H                     0.093546
     43 H                     0.078635
     44 H                     0.072779
     45 H                     0.079298
     46 H                     0.074493
     47 H                     0.087514
     48 H                     0.090297
     49 H                     0.092755
     50 H                     0.089573
     51 H                     0.086158
     52 H                     0.097597
     53 H                     0.078101
     54 H                     0.108342
     55 H                     0.077026
     56 H                     0.081304
  ----------------------------------------
  Sum of atomic charges =    -0.000000

                    Cartesian Multipole Moments
 -----------------------------------------------------------------
    Charge (ESU x 10^10)
                -0.0000
    Dipole Moment (Debye)
         X       2.2993      Y       2.3908      Z       1.8721
       Tot       3.8089
    Quadrupole Moments (Debye-Ang)
        XX    -150.8918     XY      -2.4293     YY    -152.0343
        XZ       9.7754     YZ      -8.1799     ZZ    -162.5137

 Total job time:  96.00s(wall), 4581.66s(cpu)
        *  Thank you very much for using Q-Chem.  Have a nice day.  *
