 Q-Chem 5.0, Q-Chem, Inc., Pleasanton, CA (2017)
 Q-Chem 5.0.1 for Intel X86 EM64T Linux

User input:
--------------------------------------------------------------
$molecule
0  1
O -3.94934 -3.66094 2.70899
C -3.26408 -4.56952 2.26188
C -3.36658 -6.02376 2.66595
C -4.66266 -6.76517 2.29943
C -5.63801 -6.02118 1.41441
O -6.14185 -4.94237 2.08352
C -7.52754 -4.70777 1.81131
C -7.72574 -3.29407 1.27437
O -7.41209 -2.33419 2.29571
C -8.40547 -1.46339 2.60238
C -7.89902 -0.06918 2.88581
C -8.50748 1.03203 2.00524
C -9.7593 0.65064 1.24092
O -9.78338 0.09466 0.1524
O -2.32648 -4.25387 1.32763
O -10.95625 1.0365 1.76678
O -9.58657 -1.78248 2.66205
C -12.18381 0.79001 1.18792
C -8.24808 0.43714 4.29724
C -7.24117 1.50537 4.71819
C -7.62849 2.63621 3.78734
C -8.87727 2.0327 3.12952
O -9.41743 1.19392 4.12183
H -6.78847 -0.0865 2.78597
H -7.79835 1.49513 1.28458
H -8.29651 -0.37333 5.05711
H -7.50085 1.79625 5.76158
H -6.17161 1.20624 4.67955
H -7.88833 3.52388 4.40571
H -6.86556 2.90878 3.0263
H -9.54142 2.84722 2.76452
O -5.9753 -6.36423 0.2869
C -2.1062 -2.98252 0.84006
C -2.33208 -6.93936 1.96763
C -2.10924 -8.20839 2.79092
C -3.40306 -8.94527 2.5289
C -4.07846 -7.97997 1.55135
O -3.00686 -7.42148 0.83252
H -3.17101 -6.04313 3.76133
H -5.23506 -7.0838 3.19933
H -1.80856 -2.30182 1.66609
H -1.3506 -6.45028 1.7861
H -1.27811 -8.77688 2.31509
H -1.86858 -8.03316 3.86156
H -3.16445 -9.90183 2.01233
H -4.02758 -9.14577 3.42622
H -4.84055 -8.52537 0.95246
H -3.02492 -2.5975 0.34783
H -1.28757 -3.01662 0.09233
H -12.98113 1.21331 1.83253
H -12.34649 -0.30461 1.08941
H -12.2393 1.27055 0.18784
H -7.06202 -3.13915 0.39719
H -8.77458 -3.20319 0.90797
H -8.11371 -4.82409 2.74775
H -7.969 -5.41826 1.07439
$end

$opt
CONSTRAINT
tors           1           2           3           4     +66.316
tors           3           4           5           6     -66.316
tors           4           5           6           7    -142.105
tors           5           6           7           8    -123.158
tors           6           7           8           9     -66.316
tors           7           8           9          10    -123.158
tors           8           9          10          11    -142.105
tors           9          10          11          12    +123.158
tors          11          12          13          14     -85.263
ENDCONSTRAINT
$end

$rem
JOBTYPE                   OPT
METHOD                    B3LYP
DFT_D                     d3_op
BASIS                     STO-3G
GEOM_OPT_MAX_CYCLES       100
GEOM_OPT_TOL_GRADIENT     300
GEOM_OPT_TOL_DISPLACEMENT 1200
GEOM_OPT_TOL_ENERGY       100
SYMMETRY                  False
THRESH                    12
SCF_CONVERGENCE           8
MAX_SUB_FILE_NUM          128
MEM_STATIC                400
MEM_TOTAL                 4000
$end
--------------------------------------------------------------

   16   -1510.1353952793      1.97E-09 Convergence criterion met
 Total energy in the final basis set = -1510.13539528
   13   -1510.2045000154      6.69E-09 Convergence criterion met
 Total energy in the final basis set = -1510.20450002
   14   -1510.2407714139      2.21E-09 Convergence criterion met
 Total energy in the final basis set = -1510.24077141
   14   -1510.2554289794      2.16E-09 Convergence criterion met
 Total energy in the final basis set = -1510.25542898
   13   -1510.2590340586      6.06E-09 Convergence criterion met
 Total energy in the final basis set = -1510.25903406
   12   -1510.2599238252      6.45E-09 Convergence criterion met
 Total energy in the final basis set = -1510.25992383
   12   -1510.2603430631      7.17E-09 Convergence criterion met
 Total energy in the final basis set = -1510.26034306
   12   -1510.2604608516      3.80E-09 Convergence criterion met
   12   -1510.2608518481      3.95E-09 Convergence criterion met
 Total energy in the final basis set = -1510.26085185
   11   -1510.2609112188      7.60E-09 Convergence criterion met
 Total energy in the final basis set = -1510.26091122
   11   -1510.2609285730      5.15E-09 Convergence criterion met
 Total energy in the final basis set = -1510.26092857
   11   -1510.2609347008      3.84E-09 Convergence criterion met
 Total energy in the final basis set = -1510.26093470
   11   -1510.2609384749      2.16E-09 Convergence criterion met
 Total energy in the final basis set = -1510.26093847
    9   -1510.2609432369      9.74E-09 Convergence criterion met
 Total energy in the final basis set = -1510.26094324

             Standard Nuclear Orientation (Angstroms)
    I     Atom           X                Y                Z
 ----------------------------------------------------------------
    1      O       2.2801493336    -1.7331698827     0.1927050221
    2      C       3.4850688209    -1.5125572053     0.4415149759
    3      C       4.5230182536    -0.7842593646    -0.4900324080
    4      C       4.2209069783     0.7612234600    -0.7390239913
    5      C       2.9792373731     1.3708099134     0.0081536856
    6      O       1.7703547255     0.7808447942    -0.4943954479
    7      C       0.6860535267     1.7900104326    -0.5772728678
    8      C      -0.5561091964     1.3228467990     0.2583464669
    9      O      -1.1636002412     0.1140690904    -0.3490975131
   10      C      -2.5499784121     0.3425582728    -0.6555132613
   11      C      -3.3637908860    -0.9627185193    -0.3555222904
   12      C      -4.5475981648    -0.7149174748     0.6808914350
   13      C      -4.6867179276     0.7971941169     1.0934392539
   14      O      -4.0510711066     1.3781309760     2.0012539643
   15      O       4.1159887531    -1.8878060726     1.6718036637
   16      O      -5.6784309094     1.4256281811     0.2808532687
   17      O      -3.0127359787     1.4598201076    -0.9785176928
   18      C      -5.7409277030     2.8721781581     0.5878223106
   19      C      -4.1765491662    -1.5151540961    -1.6079775793
   20      C      -4.5661659059    -3.0150213850    -1.3052841679
   21      C      -5.7092690090    -2.8176650878    -0.2423697220
   22      C      -5.7853105191    -1.2411735428    -0.1584109038
   23      O      -5.4692072365    -0.8002686887    -1.5370599201
   24      H      -2.6518128134    -1.7173016677     0.0223631086
   25      H      -4.3824030759    -1.3023569594     1.6021882987
   26      H      -3.6889647341    -1.3404211473    -2.5866061739
   27      H      -4.9414014931    -3.5075256766    -2.2165362165
   28      H      -3.7149299014    -3.5952253235    -0.9149076849
   29      H      -6.6674111573    -3.2296250312    -0.5968713689
   30      H      -5.4681657265    -3.2739982890     0.7310640443
   31      H      -6.7617702229    -0.8323286119     0.1639175393
   32      O       3.0037957498     2.3268426666     0.8146555756
   33      C       3.1363141572    -2.5597475739     2.5551163015
   34      C       5.9834147733    -0.7011783759     0.1230073828
   35      C       6.9995511768    -0.3691219227    -1.0402275519
   36      C       6.6979439997     1.1564290058    -1.2835511680
   37      C       5.5657786332     1.4150944898    -0.2146508634
   38      O       5.9493440035     0.5456611612     0.9216463264
   39      H       4.5232567448    -1.3223663282    -1.4560043748
   40      H       4.0656961770     0.9466541313    -1.8180668015
   41      H       2.7837041864    -3.5174438071     2.1197845363
   42      H       6.2545330584    -1.5627813303     0.7618758887
   43      H       8.0354548691    -0.5265894695    -0.7003640789
   44      H       6.8245604700    -0.9864886434    -1.9359163302
   45      H       7.5794070675     1.7826965460    -1.0731820588
   46      H       6.3542696506     1.3632117222    -2.3097814959
   47      H       5.4485968255     2.4626234902     0.1247685408
   48      H       2.2533925787    -1.9175063032     2.7498815100
   49      H       3.6682779235    -2.7587670838     3.5036086964
   50      H      -6.5613682190     3.2794938326    -0.0308903579
   51      H      -4.7899445748     3.3772143270     0.3217336623
   52      H      -5.9538723333     3.0556229670     1.6609398512
   53      H      -0.2354683653     1.0579612476     1.2889106198
   54      H      -1.3024051792     2.1461957598     0.2949737602
   55      H       0.4000341004     1.8945553726    -1.6462106950
   56      H       1.0414182716     2.7663576630    -0.1818414407
 ----------------------------------------------------------------

   10   -1510.2609436726      9.69E-09 Convergence criterion met
 Total energy in the final basis set = -1510.26094367
 Final energy is   -1510.26094367261
 **  OPTIMIZATION CONVERGED  **

                    Orbital Energies (a.u.)
 --------------------------------------------------------------

 Alpha MOs
 -- Occupied --
-18.932 -18.931 -18.922 -18.921 -18.886 -18.884 -18.881 -18.879
-18.872 -18.865 -10.100 -10.099 -10.095 -10.094 -10.070 -10.068
-10.062 -10.058 -10.058 -10.057 -10.056 -10.056 -10.038 -10.037
-10.036 -10.035 -10.019 -10.019 -10.018 -10.018  -1.012  -1.009
 -1.006  -1.003  -0.967  -0.967  -0.939  -0.932  -0.930  -0.930
 -0.761  -0.760  -0.724  -0.720  -0.711  -0.704  -0.696  -0.659
 -0.655  -0.612  -0.596  -0.579  -0.546  -0.542  -0.536  -0.534
 -0.512  -0.508  -0.484  -0.472  -0.465  -0.452  -0.443  -0.439
 -0.432  -0.430  -0.429  -0.414  -0.410  -0.409  -0.406  -0.400
 -0.390  -0.384  -0.371  -0.369  -0.361  -0.354  -0.349  -0.344
 -0.341  -0.340  -0.331  -0.330  -0.328  -0.326  -0.322  -0.310
 -0.306  -0.305  -0.302  -0.299  -0.290  -0.283  -0.280  -0.278
 -0.273  -0.252  -0.250  -0.244  -0.236  -0.231  -0.231  -0.176
 -0.173  -0.171  -0.161  -0.158  -0.156  -0.148  -0.145  -0.141
 -0.140

          Ground-State Mulliken Net Atomic Charges

     Atom                 Charge (a.u.)
  ----------------------------------------
      1 O                    -0.205061
      2 C                     0.204711
      3 C                    -0.077581
      4 C                    -0.077220
      5 C                     0.209633
      6 O                    -0.172821
      7 C                    -0.049301
      8 C                    -0.047848
      9 O                    -0.175579
     10 C                     0.210154
     11 C                    -0.079494
     12 C                    -0.078784
     13 C                     0.207992
     14 O                    -0.221704
     15 O                    -0.168321
     16 O                    -0.161848
     17 O                    -0.208571
     18 C                    -0.126379
     19 C                     0.025820
     20 C                    -0.143517
     21 C                    -0.144783
     22 C                     0.026523
     23 O                    -0.184524
     24 H                     0.089089
     25 H                     0.084290
     26 H                     0.083409
     27 H                     0.077618
     28 H                     0.074425
     29 H                     0.077498
     30 H                     0.072967
     31 H                     0.087827
     32 O                    -0.207252
     33 C                    -0.127728
     34 C                     0.023863
     35 C                    -0.144488
     36 C                    -0.144304
     37 C                     0.023191
     38 O                    -0.188646
     39 H                     0.084174
     40 H                     0.084598
     41 H                     0.086748
     42 H                     0.090875
     43 H                     0.077568
     44 H                     0.072257
     45 H                     0.077917
     46 H                     0.072168
     47 H                     0.089177
     48 H                     0.091016
     49 H                     0.090882
     50 H                     0.090894
     51 H                     0.092194
     52 H                     0.087356
     53 H                     0.091107
     54 H                     0.096141
     55 H                     0.087495
     56 H                     0.094176
  ----------------------------------------
  Sum of atomic charges =    -0.000000

                    Cartesian Multipole Moments
 -----------------------------------------------------------------
    Charge (ESU x 10^10)
                 0.0000
    Dipole Moment (Debye)
         X       0.5670      Y      -1.7402      Z      -0.8676
       Tot       2.0255
    Quadrupole Moments (Debye-Ang)
        XX    -153.4668     XY       0.2187     YY    -151.0331
        XZ     -15.5877     YZ      -5.8900     ZZ    -160.3017

 Total job time:  46.46s(wall), 2206.80s(cpu)
        *  Thank you very much for using Q-Chem.  Have a nice day.  *
