 Q-Chem 5.0, Q-Chem, Inc., Pleasanton, CA (2017)
 Q-Chem 5.0.1 for Intel X86 EM64T Linux

User input:
--------------------------------------------------------------
$molecule
0  1
O 2.2801493336 -1.7331698827 0.1927050221
C 3.4850688209 -1.5125572053 0.4415149759
C 4.5230182536 -0.7842593646 -0.490032408
C 4.2209069783 0.76122346 -0.7390239913
C 2.9792373731 1.3708099134 0.0081536856
O 1.7703547255 0.7808447942 -0.4943954479
C 0.6860535267 1.7900104326 -0.5772728678
C -0.5561091964 1.322846799 0.2583464669
O -1.1636002412 0.1140690904 -0.3490975131
C -2.5499784121 0.3425582728 -0.6555132613
C -3.363790886 -0.9627185193 -0.3555222904
C -4.5475981648 -0.7149174748 0.680891435
C -4.6867179276 0.7971941169 1.0934392539
O -4.0510711066 1.378130976 2.0012539643
O 4.1159887531 -1.8878060726 1.6718036637
O -5.6784309094 1.4256281811 0.2808532687
O -3.0127359787 1.4598201076 -0.9785176928
C -5.740927703 2.8721781581 0.5878223106
C -4.1765491662 -1.5151540961 -1.6079775793
C -4.5661659059 -3.015021385 -1.3052841679
C -5.709269009 -2.8176650878 -0.242369722
C -5.7853105191 -1.2411735428 -0.1584109038
O -5.4692072365 -0.8002686887 -1.5370599201
H -2.6518128134 -1.7173016677 0.0223631086
H -4.3824030759 -1.3023569594 1.6021882987
H -3.6889647341 -1.3404211473 -2.5866061739
H -4.9414014931 -3.5075256766 -2.2165362165
H -3.7149299014 -3.5952253235 -0.9149076849
H -6.6674111573 -3.2296250312 -0.5968713689
H -5.4681657265 -3.273998289 0.7310640443
H -6.7617702229 -0.8323286119 0.1639175393
O 3.0037957498 2.3268426666 0.8146555756
C 3.1363141572 -2.5597475739 2.5551163015
C 5.9834147733 -0.7011783759 0.1230073828
C 6.9995511768 -0.3691219227 -1.0402275519
C 6.6979439997 1.1564290058 -1.283551168
C 5.5657786332 1.4150944898 -0.2146508634
O 5.9493440035 0.5456611612 0.9216463264
H 4.5232567448 -1.3223663282 -1.4560043748
H 4.065696177 0.9466541313 -1.8180668015
H 2.7837041864 -3.5174438071 2.1197845363
H 6.2545330584 -1.5627813303 0.7618758887
H 8.0354548691 -0.5265894695 -0.7003640789
H 6.82456047 -0.9864886434 -1.9359163302
H 7.5794070675 1.782696546 -1.0731820588
H 6.3542696506 1.3632117222 -2.3097814959
H 5.4485968255 2.4626234902 0.1247685408
H 2.2533925787 -1.9175063032 2.74988151
H 3.6682779235 -2.7587670838 3.5036086964
H -6.561368219 3.2794938326 -0.0308903579
H -4.7899445748 3.377214327 0.3217336623
H -5.9538723333 3.055622967 1.6609398512
H -0.2354683653 1.0579612476 1.2889106198
H -1.3024051792 2.1461957598 0.2949737602
H 0.4000341004 1.8945553726 -1.646210695
H 1.0414182716 2.766357663 -0.1818414407
$end

$rem
JOBTYPE                   OPT
METHOD                    B3LYP
DFT_D                     d3_op
BASIS                     STO-3G
GEOM_OPT_MAX_CYCLES       100
GEOM_OPT_TOL_GRADIENT     300
GEOM_OPT_TOL_DISPLACEMENT 1200
GEOM_OPT_TOL_ENERGY       100
SYMMETRY                  False
THRESH                    12
SCF_CONVERGENCE           8
MAX_SUB_FILE_NUM          128
MEM_STATIC                400
MEM_TOTAL                 4000
$end
--------------------------------------------------------------

   16   -1510.2608653344      6.02E-09 Convergence criterion met
 Total energy in the final basis set = -1510.26086533
   14   -1510.2675620902      7.85E-09 Convergence criterion met
 Total energy in the final basis set = -1510.26756209
   15   -1510.2729344344      5.67E-09 Convergence criterion met
 Total energy in the final basis set = -1510.27293443
   15   -1510.2771601679      6.11E-09 Convergence criterion met
 Total energy in the final basis set = -1510.27716017
   14   -1510.2792667100      5.74E-09 Convergence criterion met
 Total energy in the final basis set = -1510.27926671
   14   -1510.2809281490      3.02E-09 Convergence criterion met
 Total energy in the final basis set = -1510.28092815
   14   -1510.2821718997      5.08E-09 Convergence criterion met
 Total energy in the final basis set = -1510.28217190
   14   -1510.2833314470      6.58E-09 Convergence criterion met
   12   -1510.2992250566      6.24E-09 Convergence criterion met
 Total energy in the final basis set = -1510.29922506
   12   -1510.2992218744      3.97E-09 Convergence criterion met
 Total energy in the final basis set = -1510.29922187
   12   -1510.2991824832      5.93E-09 Convergence criterion met
 Total energy in the final basis set = -1510.29918248
   12   -1510.2992090899      2.94E-09 Convergence criterion met
 Total energy in the final basis set = -1510.29920909
    9   -1510.2992105915      9.62E-09 Convergence criterion met
 Total energy in the final basis set = -1510.29921059
   10   -1510.2992027858      4.38E-09 Convergence criterion met
 Total energy in the final basis set = -1510.29920279

             Standard Nuclear Orientation (Angstroms)
    I     Atom           X                Y                Z
 ----------------------------------------------------------------
    1      O       2.4993437052     0.0706729250     1.7523467150
    2      C       2.2323665788    -0.6275017330     0.7494566985
    3      C       2.5584197092    -0.2989409183    -0.7448624369
    4      C       2.5335101923     1.2572690000    -1.0440953640
    5      C       2.0135489789     2.1141835399     0.1630446349
    6      O       0.6305307900     1.7726923486     0.3452263263
    7      C       0.0775553181     2.4300355306     1.5494449503
    8      C      -0.0632755541     1.3608202150     2.6953699802
    9      O      -0.5601171507     0.0584924998     2.1808938876
   10      C      -1.8921584624     0.1635712515     1.6752375438
   11      C      -2.3314919451    -1.2095361044     1.0598645143
   12      C      -3.6518649820    -1.0855184621     0.1892609770
   13      C      -4.2334848011     0.3727037836     0.0812710506
   14      O      -5.2825272309     0.7997055982     0.6103093831
   15      O       1.5931402759    -1.9085616294     0.8103778654
   16      O      -3.4327421216     1.1196604940    -0.8463875667
   17      O      -2.5830216066     1.2040998919     1.7556336567
   18      C      -3.9321646743     2.5086154414    -0.9292792196
   19      C      -1.3100195941    -1.7929005934    -0.0127440274
   20      C      -1.6721820080    -3.3143603259    -0.2420364817
   21      C      -2.9773816074    -3.1957664564    -1.1119998478
   22      C      -3.1303834627    -1.6268638572    -1.2115155565
   23      O      -1.7315287463    -1.1442158453    -1.2729770405
   24      H      -2.4688449307    -1.9226882680     1.8940799105
   25      H      -4.4513862040    -1.7262447251     0.6005447702
   26      H      -0.2336593814    -1.6111850484     0.2020536790
   27      H      -0.8622344767    -3.8178749321    -0.7934570051
   28      H      -1.8376855952    -3.8507602109     0.7059953397
   29      H      -2.8372396061    -3.6330384815    -2.1133466876
   30      H      -3.8519700390    -3.6700197520    -0.6387376935
   31      H      -3.7046531294    -1.2629438552    -2.0850255867
   32      O       2.6229970294     2.9884728947     0.8136128002
   33      C       1.2731326932    -2.2502590551     2.2216817513
   34      C       4.0852006148    -0.6247400269    -1.0561414627
   35      C       4.3131128286    -0.5358111262    -2.6178188639
   36      C       4.3419593083     1.0225556575    -2.8368853945
   37      C       4.0577626510     1.5363470927    -1.3722070071
   38      O       4.7865514455     0.5636611838    -0.5230838629
   39      H       1.8702582630    -0.8642571423    -1.3974828314
   40      H       1.8846909628     1.4677094593    -1.9136782820
   41      H       0.5041532210    -1.5399832009     2.5983498487
   42      H       4.4632651968    -1.5490226371    -0.5772916460
   43      H       5.2717833759    -1.0029776041    -2.8935482388
   44      H       3.5044365209    -1.0292399034    -3.1804198048
   45      H       5.3322055070     1.3626147421    -3.1800233860
   46      H       3.5803135475     1.3660198936    -3.5550974591
   47      H       4.3880612400     2.5687660082    -1.1462392989
   48      H       2.1756553345    -2.2074115999     2.8621464616
   49      H       0.8727940250    -3.2798293542     2.2002666242
   50      H      -3.3113605875     3.0124650300    -1.6928410536
   51      H      -3.8236791711     3.0327736116     0.0426411488
   52      H      -4.9987490467     2.5460888336    -1.2321259014
   53      H       0.9378315224     1.1209236439     3.1071902095
   54      H      -0.7264952656     1.7518835933     3.4972740416
   55      H      -0.9205943142     2.8302208372     1.2812536572
   56      H       0.7555073770     3.2473856813     1.8781213787
 ----------------------------------------------------------------

    9   -1510.2992030177      1.70E-09 Convergence criterion met
 Total energy in the final basis set = -1510.29920302
 Final energy is   -1510.29920301770
 **  OPTIMIZATION CONVERGED  **

                    Orbital Energies (a.u.)
 --------------------------------------------------------------

 Alpha MOs
 -- Occupied --
-18.947 -18.944 -18.927 -18.917 -18.888 -18.888 -18.882 -18.882
-18.876 -18.856 -10.110 -10.105 -10.099 -10.087 -10.075 -10.067
-10.063 -10.058 -10.058 -10.055 -10.052 -10.047 -10.040 -10.038
-10.037 -10.030 -10.021 -10.020 -10.016 -10.015  -1.025  -1.017
 -1.007  -0.995  -0.971  -0.964  -0.948  -0.942  -0.934  -0.920
 -0.764  -0.759  -0.727  -0.721  -0.713  -0.705  -0.694  -0.664
 -0.649  -0.619  -0.597  -0.581  -0.546  -0.542  -0.538  -0.533
 -0.512  -0.508  -0.483  -0.467  -0.464  -0.464  -0.453  -0.448
 -0.433  -0.429  -0.427  -0.417  -0.416  -0.409  -0.403  -0.401
 -0.394  -0.382  -0.371  -0.365  -0.361  -0.358  -0.352  -0.350
 -0.341  -0.337  -0.334  -0.331  -0.328  -0.326  -0.320  -0.312
 -0.311  -0.307  -0.305  -0.298  -0.292  -0.285  -0.280  -0.273
 -0.272  -0.265  -0.254  -0.244  -0.240  -0.235  -0.229  -0.193
 -0.183  -0.170  -0.161  -0.161  -0.159  -0.154  -0.145  -0.139
 -0.137

          Ground-State Mulliken Net Atomic Charges

     Atom                 Charge (a.u.)
  ----------------------------------------
      1 O                    -0.212251
      2 C                     0.216762
      3 C                    -0.078051
      4 C                    -0.078778
      5 C                     0.216740
      6 O                    -0.176827
      7 C                    -0.057665
      8 C                    -0.050946
      9 O                    -0.172688
     10 C                     0.219635
     11 C                    -0.079367
     12 C                    -0.081495
     13 C                     0.212779
     14 O                    -0.220532
     15 O                    -0.169099
     16 O                    -0.171112
     17 O                    -0.208083
     18 C                    -0.127843
     19 C                     0.013104
     20 C                    -0.144762
     21 C                    -0.144905
     22 C                     0.026686
     23 O                    -0.189596
     24 H                     0.083328
     25 H                     0.081969
     26 H                     0.100216
     27 H                     0.076007
     28 H                     0.069098
     29 H                     0.075927
     30 H                     0.072241
     31 H                     0.083465
     32 O                    -0.210714
     33 C                    -0.140236
     34 C                     0.025397
     35 C                    -0.143964
     36 C                    -0.143340
     37 C                     0.024495
     38 O                    -0.187855
     39 H                     0.090910
     40 H                     0.088449
     41 H                     0.106964
     42 H                     0.082458
     43 H                     0.078257
     44 H                     0.075013
     45 H                     0.078303
     46 H                     0.074224
     47 H                     0.090332
     48 H                     0.087896
     49 H                     0.086107
     50 H                     0.086565
     51 H                     0.088861
     52 H                     0.085959
     53 H                     0.104573
     54 H                     0.089781
     55 H                     0.096228
     56 H                     0.101384
  ----------------------------------------
  Sum of atomic charges =     0.000000

                    Cartesian Multipole Moments
 -----------------------------------------------------------------
    Charge (ESU x 10^10)
                -0.0000
    Dipole Moment (Debye)
         X       0.1664      Y      -2.3579      Z      -0.9140
       Tot       2.5343
    Quadrupole Moments (Debye-Ang)
        XX    -176.8742     XY      -1.0178     YY    -152.4111
        XZ      -3.9311     YZ      -5.7208     ZZ    -152.4198

 Total job time:  203.88s(wall), 9721.35s(cpu)
        *  Thank you very much for using Q-Chem.  Have a nice day.  *
