 Q-Chem 5.0, Q-Chem, Inc., Pleasanton, CA (2017)
 Q-Chem 5.0.1 for Intel X86 EM64T Linux

User input:
--------------------------------------------------------------
$molecule
0  1
O 5.2014159967 -0.0160406543 2.4566781434
C 4.1212482104 0.291550109 1.9005464851
C 4.0321101338 0.6653024812 0.3760898814
C 3.8856837398 -0.553291994 -0.6360944354
C 3.092031976 -1.9197402021 -0.386816628
O 1.9396180427 -2.2320419251 0.4249451656
C 0.7225381706 -1.3828481808 0.3799395621
C 0.5440034171 -0.0827801556 1.249626269
O -0.8891925361 0.2961248885 1.3515846028
C -1.5364522988 0.269571093 0.0480916382
C -2.7713872313 -0.7084972335 0.1215450112
C -4.220535377 -0.0696122645 0.2005431943
C -4.2587997541 1.4812557781 -0.0098951435
O -3.4793083871 2.1982534662 -0.6708773083
O 2.8820819954 0.396763823 2.5960131281
O -5.3965689044 1.9921188057 0.6992768731
O -1.0753186119 0.8142017509 -0.9763335637
C -5.5041680966 3.4540635075 0.4856576145
C -2.8975223475 -1.5793150526 -1.2046328926
C -3.6687588244 -2.9008420931 -0.8297271253
C -5.1214969257 -2.3430407456 -0.6049171616
C -4.9339595481 -0.8233488713 -1.0056591169
O -3.8757789514 -0.8465458446 -2.0381266561
H -2.6051673298 -1.3508350027 1.0049006547
H -4.707570591 -0.2946878528 1.1643417339
H -1.9489182791 -1.7119349892 -1.759767144
H -3.6371347744 -3.6122247189 -1.6691092809
H -3.2530443069 -3.392157821 0.0632846286
H -5.8512722384 -2.8384393282 -1.2633136618
H -5.4586328925 -2.4547270993 0.4378452277
H -5.8444439317 -0.3220120826 -1.3874986801
O 3.6189321813 -2.9386742156 -0.9023430996
C 3.0447758595 0.0166463943 4.0202848168
C 3.0237579993 1.7426317065 -0.2181132684
C 3.8192790288 2.5209507995 -1.3339712844
C 4.0156536933 1.3722460225 -2.3933415035
C 3.1016744728 0.2273309076 -1.7917418796
O 2.0623644189 0.9582121801 -1.0270475641
H 5.0537168948 1.0508669712 0.1942931389
H 4.8788077073 -0.8932812187 -0.9808788858
H 2.9655936639 0.9190682205 4.6592199572
H 2.4989252581 2.3691862583 0.5286164163
H 3.1980953082 3.3368535079 -1.7377695604
H 4.7672966703 2.9439155121 -0.965089419
H 3.6583989162 1.6724903575 -3.3908878925
H 5.0673743171 1.0507554087 -2.4734031893
H 2.6328787057 -0.4354396041 -2.5438357941
H 4.0341550259 -0.4599210896 4.1716684876
H 2.2276578816 -0.6845648861 4.2786936478
H -6.3696129454 3.794554574 1.0837526691
H -5.6762757433 3.6984151868 -0.5825635534
H -4.5895196319 3.9831939592 0.8220496576
H 0.8942550543 -0.2281020295 2.2856733703
H 1.126689379 0.726198676 0.7728004479
H -0.0703180537 -2.0967688109 0.6907110331
H 0.5152572174 -1.0920418955 -0.6713917035
$end

$rem
JOBTYPE                   OPT
METHOD                    B3LYP
DFT_D                     d3_op
BASIS                     STO-3G
GEOM_OPT_MAX_CYCLES       100
GEOM_OPT_TOL_GRADIENT     300
GEOM_OPT_TOL_DISPLACEMENT 1200
GEOM_OPT_TOL_ENERGY       100
SYMMETRY                  False
THRESH                    12
SCF_CONVERGENCE           8
MAX_SUB_FILE_NUM          128
MEM_STATIC                400
MEM_TOTAL                 4000
$end
--------------------------------------------------------------

   16   -1510.2154136144      6.59E-09 Convergence criterion met
 Total energy in the final basis set = -1510.21541361
   14   -1510.2197744028      5.91E-09 Convergence criterion met
 Total energy in the final basis set = -1510.21977440
   14   -1510.2283101788      2.37E-09 Convergence criterion met
 Total energy in the final basis set = -1510.22831018
   15   -1510.2358310178      2.40E-09 Convergence criterion met
 Total energy in the final basis set = -1510.23583102
   14   -1510.2433227265      5.33E-09 Convergence criterion met
 Total energy in the final basis set = -1510.24332273
   14   -1510.2486294677      6.16E-09 Convergence criterion met
 Total energy in the final basis set = -1510.24862947
   14   -1510.2532137179      8.47E-09 Convergence criterion met
 Total energy in the final basis set = -1510.25321372
   14   -1510.2570921926      5.06E-09 Convergence criterion met
   13   -1510.2864701584      4.08E-09 Convergence criterion met
 Total energy in the final basis set = -1510.28647016
   13   -1510.2864106975      1.42E-09 Convergence criterion met
 Total energy in the final basis set = -1510.28641070
   11   -1510.2864203524      9.53E-09 Convergence criterion met
 Total energy in the final basis set = -1510.28642035
   11   -1510.2864513193      5.00E-09 Convergence criterion met
 Total energy in the final basis set = -1510.28645132
   10   -1510.2864346576      9.63E-09 Convergence criterion met
 Total energy in the final basis set = -1510.28643466
    9   -1510.2864358694      5.16E-09 Convergence criterion met
 Total energy in the final basis set = -1510.28643587

             Standard Nuclear Orientation (Angstroms)
    I     Atom           X                Y                Z
 ----------------------------------------------------------------
    1      O       5.3757051785    -0.3216849967     0.8570397648
    2      C       4.5154291537     0.5700413852     0.6815307147
    3      C       3.7666862035     0.8753412026    -0.6668372004
    4      C       2.8488984658    -0.3124713411    -1.1834845107
    5      C       2.5182440124    -1.4111777179    -0.1147408805
    6      O       2.5812160407    -0.7964313175     1.1829470821
    7      C       1.5227199016    -1.2992996385     2.0808808170
    8      C       0.3795699345    -0.1950954055     2.0724161715
    9      O      -0.9952753947    -0.7366777539     1.9736281750
   10      C      -1.2734826957    -1.2135596881     0.6529485146
   11      C      -2.7934784854    -1.6221700461     0.6013740511
   12      C      -3.7806706487    -0.4126123058     0.3404712315
   13      C      -3.0274553104     0.9370326282     0.0926106996
   14      O      -1.7888035921     1.1108196096     0.0310360486
   15      O       4.1397439701     1.5319481315     1.6787607888
   16      O      -3.9890501830     1.9767084344    -0.0890457823
   17      O      -0.4227208892    -1.3975576481    -0.2452795263
   18      C      -3.2999220868     3.2579113880    -0.3725141692
   19      C      -3.0997261753    -2.5404271932    -0.6561442153
   20      C      -4.4770417669    -3.2716208156    -0.4149937134
   21      C      -5.4885770991    -2.0834792469    -0.6198619112
   22      C      -4.5056109557    -0.9028018060    -0.9876477875
   23      O      -3.4120627938    -1.5676954408    -1.7307598936
   24      H      -3.0442167924    -2.1279889497     1.5506943122
   25      H      -4.5000226938    -0.2756005265     1.1677326990
   26      H      -2.2540243050    -3.1879078470    -0.9586010740
   27      H      -4.6278492925    -4.0632394142    -1.1660225452
   28      H      -4.5414579954    -3.7203173238     0.5891619058
   29      H      -6.1810383144    -2.2800699153    -1.4537159780
   30      H      -6.0782831218    -1.8644873822     0.2848082040
   31      H      -4.9503471033    -0.0854534163    -1.5881367103
   32      O       2.1634725453    -2.5901181287    -0.3207995610
   33      C       4.8164449844     1.2244784816     2.9580521057
   34      C       2.7141420279     2.0631305183    -0.5862226339
   35      C       2.4855731744     2.6045004468    -2.0510384881
   36      C       1.6459582560     1.4290673269    -2.6788465455
   37      C       1.4801628697     0.4691890185    -1.4397984219
   38      O       1.4270992953     1.3926688181    -0.2835296568
   39      H       4.5408124116     1.0983236483    -1.4241251683
   40      H       3.2399773351    -0.7855982807    -2.1010286037
   41      H       5.3560629628     2.1277174794     3.3035160301
   42      H       2.9475144177     2.8241819270     0.1818671379
   43      H       1.9080639239     3.5424021323    -2.0270078633
   44      H       3.4336993079     2.7851590330    -2.5823685353
   45      H       0.6614860602     1.7762361351    -3.0308346847
   46      H       2.1651772655     0.9347875369    -3.5156766281
   47      H       0.5870720986    -0.1913782149    -1.4216567902
   48      H       5.5260042357     0.3862701006     2.8015689999
   49      H       4.0561050266     0.9405482303     3.7125212459
   50      H      -4.0990655806     4.0101771912    -0.5048520356
   51      H      -2.6899578243     3.1950526323    -1.2967188727
   52      H      -2.6389600380     3.5590996929     0.4656156899
   53      H       0.3901793261     0.3696244130     3.0250776591
   54      H       0.6189877890     0.5021987612     1.2249527026
   55      H       1.9615414982    -1.4209175983     3.0918963652
   56      H       1.1448983508    -2.2813608038     1.7234151070
 ----------------------------------------------------------------

    9   -1510.2864376830      7.21E-09 Convergence criterion met
 Total energy in the final basis set = -1510.28643768
 Final energy is   -1510.28643768300
 **  OPTIMIZATION CONVERGED  **

                    Orbital Energies (a.u.)
 --------------------------------------------------------------

 Alpha MOs
 -- Occupied --
-18.943 -18.921 -18.920 -18.914 -18.887 -18.887 -18.886 -18.872
-18.862 -18.859 -10.106 -10.094 -10.092 -10.091 -10.069 -10.061
-10.060 -10.056 -10.052 -10.049 -10.045 -10.044 -10.040 -10.032
-10.030 -10.028 -10.021 -10.019 -10.015 -10.013  -1.020  -1.005
 -0.998  -0.993  -0.970  -0.965  -0.943  -0.930  -0.924  -0.923
 -0.762  -0.755  -0.723  -0.717  -0.707  -0.699  -0.684  -0.666
 -0.650  -0.610  -0.592  -0.578  -0.544  -0.538  -0.533  -0.529
 -0.510  -0.503  -0.480  -0.471  -0.461  -0.455  -0.453  -0.437
 -0.431  -0.426  -0.420  -0.416  -0.411  -0.405  -0.401  -0.394
 -0.379  -0.378  -0.373  -0.365  -0.362  -0.353  -0.349  -0.339
 -0.338  -0.335  -0.331  -0.328  -0.324  -0.317  -0.312  -0.310
 -0.305  -0.303  -0.301  -0.294  -0.289  -0.285  -0.276  -0.273
 -0.266  -0.259  -0.250  -0.237  -0.234  -0.231  -0.219  -0.185
 -0.172  -0.163  -0.159  -0.155  -0.149  -0.145  -0.143  -0.141
 -0.137

          Ground-State Mulliken Net Atomic Charges

     Atom                 Charge (a.u.)
  ----------------------------------------
      1 O                    -0.223744
      2 C                     0.220213
      3 C                    -0.078657
      4 C                    -0.077917
      5 C                     0.221969
      6 O                    -0.183524
      7 C                    -0.050774
      8 C                    -0.065012
      9 O                    -0.178509
     10 C                     0.221342
     11 C                    -0.081700
     12 C                    -0.078082
     13 C                     0.214387
     14 O                    -0.202871
     15 O                    -0.172661
     16 O                    -0.168913
     17 O                    -0.224330
     18 C                    -0.128037
     19 C                     0.024595
     20 C                    -0.143841
     21 C                    -0.143883
     22 C                     0.024739
     23 O                    -0.190066
     24 H                     0.084071
     25 H                     0.087183
     26 H                     0.090380
     27 H                     0.078390
     28 H                     0.073605
     29 H                     0.078172
     30 H                     0.073606
     31 H                     0.084987
     32 O                    -0.202484
     33 C                    -0.135562
     34 C                     0.025333
     35 C                    -0.143208
     36 C                    -0.144462
     37 C                     0.018173
     38 O                    -0.189982
     39 H                     0.082271
     40 H                     0.084579
     41 H                     0.081784
     42 H                     0.091980
     43 H                     0.075600
     44 H                     0.072091
     45 H                     0.077901
     46 H                     0.073857
     47 H                     0.110104
     48 H                     0.102197
     49 H                     0.081679
     50 H                     0.091759
     51 H                     0.091358
     52 H                     0.091997
     53 H                     0.079788
     54 H                     0.119536
     55 H                     0.082318
     56 H                     0.096275
  ----------------------------------------
  Sum of atomic charges =    -0.000000

                    Cartesian Multipole Moments
 -----------------------------------------------------------------
    Charge (ESU x 10^10)
                 0.0000
    Dipole Moment (Debye)
         X      -2.6911      Y       2.4080      Z       0.8412
       Tot       3.7078
    Quadrupole Moments (Debye-Ang)
        XX    -153.2814     XY       9.3787     YY    -155.3171
        XZ      -2.2283     YZ      -5.1437     ZZ    -153.0082

 Total job time:  163.68s(wall), 7811.21s(cpu)
        *  Thank you very much for using Q-Chem.  Have a nice day.  *
