 Q-Chem 5.0, Q-Chem, Inc., Pleasanton, CA (2017)
 Q-Chem 5.0.1 for Intel X86 EM64T Linux

User input:
--------------------------------------------------------------
$molecule
0  1
O -2.0352034612 -2.5555809726 -0.0638123335
C -2.7362516959 -1.5729123173 0.2648108831
C -2.243253481 -0.296971573 1.033931698
C -2.0652739988 0.9996710239 0.1234452394
C -2.4838028598 0.7679726649 -1.3825764921
O -1.4386610987 0.6167433437 -2.3758593782
C -0.3639739158 1.6230461275 -2.3068615409
C 0.8673775074 1.0271651497 -3.0879675215
O 1.1998656572 -0.3707854199 -2.7361731635
C 2.0480189495 -0.6080774176 -1.60023224
C 2.0760583863 0.4106214703 -0.3961380445
C 2.6691437932 -0.2234419237 0.9324159727
C 3.4187098674 -1.5960844681 0.731113141
O 4.6122449858 -1.7689742052 0.4065779297
O -4.1386203632 -1.4634651252 0.0220560467
O 2.5039208862 -2.641356613 1.0901867143
O 2.61473819 -1.7249280595 -1.5720335667
C 3.1187688083 -3.9595662936 0.8185363079
C 3.0163321353 1.6888903869 -0.5632082819
C 2.4849201698 2.7909099775 0.4380741769
C 2.9541613723 2.1894933548 1.8148635027
C 3.7196542838 0.8901815932 1.3412878867
O 4.3012403222 1.2774712061 0.0343619315
H 1.0373538372 0.7247337928 -0.2067950875
H 1.8762935933 -0.3632973736 1.6878686388
H 3.1774699242 2.0348482613 -1.6014775904
H 2.968966716 3.7594284069 0.2349091341
H 1.3925391184 2.9231371988 0.3780740549
H 3.6390601834 2.8726674754 2.341366999
H 2.1119842425 1.9506061672 2.484015772
H 4.5164323486 0.534345492 2.0223446598
O -3.6585048112 0.5525625874 -1.7492641556
C -4.6119731272 -2.6291305965 -0.7596275861
C -3.2980838898 0.2340695751 2.0961314683
C -2.5506798435 1.2124122983 3.0883214674
C -2.3852775201 2.4918948874 2.1866164242
C -3.0629892718 2.0063661867 0.8443386693
O -4.1648583917 1.1355092762 1.3045312268
H -1.280865945 -0.5606617319 1.5082446619
H -1.0281535924 1.358942239 0.1985996818
H -4.4073901683 -3.584794419 -0.2348472567
H -3.902365342 -0.5585206828 2.5775063111
H -3.1752151034 1.4182071901 3.9721019334
H -1.5858113944 0.8014259239 3.4261428842
H -2.9315283867 3.3532063325 2.6027886548
H -1.3310369458 2.778693683 2.0428138438
H -3.4531585982 2.8112704091 0.1918265324
H -4.1348658603 -2.664309942 -1.7602694498
H -5.7026736423 -2.4924000057 -0.875711308
H 2.3833566557 -4.7159246995 1.1494271571
H 4.0684846542 -4.0930739026 1.376180609
H 3.3227173613 -4.0880938027 -0.2642659714
H 0.5957849085 0.970330336 -4.1623351921
H 1.734061825 1.712489126 -2.9871999761
H -0.077433429 1.8966920926 -1.2743201879
H -0.6787606405 2.5594844199 -2.8235766832
$end

$rem
JOBTYPE                   OPT
METHOD                    B3LYP
DFT_D                     d3_op
BASIS                     STO-3G
GEOM_OPT_MAX_CYCLES       100
GEOM_OPT_TOL_GRADIENT     300
GEOM_OPT_TOL_DISPLACEMENT 1200
GEOM_OPT_TOL_ENERGY       100
SYMMETRY                  False
THRESH                    12
SCF_CONVERGENCE           8
MAX_SUB_FILE_NUM          128
MEM_STATIC                400
MEM_TOTAL                 4000
$end
--------------------------------------------------------------

   16   -1510.2467345829      5.44E-09 Convergence criterion met
 Total energy in the final basis set = -1510.24673458
   14   -1510.2480838655      3.43E-09 Convergence criterion met
 Total energy in the final basis set = -1510.24808387
   14   -1510.2496415133      4.58E-09 Convergence criterion met
 Total energy in the final basis set = -1510.24964151
   15   -1510.2482852345      3.59E-09 Convergence criterion met
 Total energy in the final basis set = -1510.24828523
   14   -1510.2442810557      9.72E-09 Convergence criterion met
 Total energy in the final basis set = -1510.24428106
   14   -1510.2513897906      5.41E-09 Convergence criterion met
 Total energy in the final basis set = -1510.25138979
   14   -1510.2539562543      6.27E-09 Convergence criterion met
 Total energy in the final basis set = -1510.25395625
   14   -1510.2548986688      8.44E-09 Convergence criterion met
   12   -1510.2758234245      7.81E-09 Convergence criterion met
 Total energy in the final basis set = -1510.27582342
   11   -1510.2758366963      8.56E-09 Convergence criterion met
 Total energy in the final basis set = -1510.27583670
   11   -1510.2758434815      3.91E-09 Convergence criterion met
 Total energy in the final basis set = -1510.27584348
    9   -1510.2758458337      6.76E-09 Convergence criterion met
 Total energy in the final basis set = -1510.27584583
    9   -1510.2758447001      8.13E-09 Convergence criterion met
 Total energy in the final basis set = -1510.27584470
    9   -1510.2758460509      3.02E-09 Convergence criterion met
 Total energy in the final basis set = -1510.27584605

             Standard Nuclear Orientation (Angstroms)
    I     Atom           X                Y                Z
 ----------------------------------------------------------------
    1      O      -1.2906901788    -2.7070843997     0.9205058572
    2      C      -1.5923072342    -1.6588876188     0.3001213812
    3      C      -1.8677185628    -0.2647392416     0.9669241822
    4      C      -2.7122621721     0.7894057435     0.1334040048
    5      C      -3.1008784688     0.3812807927    -1.3484186144
    6      O      -2.2547111653     0.7736399049    -2.4551422903
    7      C      -0.9561719365     1.3830000935    -2.1203982705
    8      C       0.1982618509     0.6506095709    -2.9083913150
    9      O       0.5967165872    -0.6267974617    -2.2814022575
   10      C       1.2525472472    -0.5057874392    -1.0110419768
   11      C       2.0092723706     0.8294013732    -0.6546297416
   12      C       2.5657178952     0.8348423427     0.8264393405
   13      C       2.2137890359    -0.4343572642     1.6905486256
   14      O       3.0081341423    -1.3256028998     2.0588973744
   15      O      -1.6956556033    -1.5750268983    -1.1112720474
   16      O       0.8627709624    -0.2992654914     2.1663721914
   17      O       1.2820359793    -1.5315932338    -0.2903482281
   18      C       0.4831849240    -1.4877130889     2.9752845948
   19      C       3.3676762310     0.9250082500    -1.4850908211
   20      C       3.9223228593     2.3986718330    -1.3604118443
   21      C       4.4846415061     2.3860600731     0.1095782274
   22      C       4.1263160354     0.9163104355     0.5613719614
   23      O       4.3072838079     0.1211534689    -0.6768741824
   24      H       1.3698125376     1.7085288861    -0.8291783918
   25      H       2.1957673587     1.7248845499     1.3665628519
   26      H       3.3063078992     0.5264854096    -2.5166949131
   27      H       4.7210282217     2.5711960762    -2.0991609496
   28      H       3.1344143593     3.1544481823    -1.5101925000
   29      H       5.5756173318     2.5376429065     0.1239270977
   30      H       4.0136571676     3.1462737014     0.7529847617
   31      H       4.7430492611     0.4958108688     1.3789042652
   32      O      -4.1819755791    -0.1664030500    -1.6504088387
   33      C      -1.3569222626    -2.8707747633    -1.7428266927
   34      C      -2.8216029778    -0.4874741293     2.2159344118
   35      C      -2.7925406150     0.8033184367     3.1232398619
   36      C      -3.6894244929     1.7853448890     2.2812181813
   37      C      -4.0275901297     0.8839716818     1.0283009895
   38      O      -4.1708669901    -0.4682409036     1.6069901205
   39      H      -0.8737464330     0.1226786777     1.2850657015
   40      H      -2.2101692834     1.7707648798     0.1331168319
   41      H      -2.0665975725    -3.6653341067    -1.4348981469
   42      H      -2.6458943645    -1.4459260420     2.7417306518
   43      H      -3.2360577906     0.5936408320     4.1093711539
   44      H      -1.7669346555     1.1789789848     3.2689156220
   45      H      -4.6112343595     2.0540553599     2.8213358003
   46      H      -3.1618433459     2.7103048337     1.9987221290
   47      H      -4.9395543050     1.1620652375     0.4655921831
   48      H      -0.3244535062    -3.1728713248    -1.4721388687
   49      H      -1.4284955002    -2.7015118226    -2.8324213856
   50      H      -0.0395908698    -1.1240705723     3.8798517010
   51      H       1.3969090736    -2.0476602176     3.2530175210
   52      H      -0.1972222719    -2.1315756445     2.3686333200
   53      H      -0.1755185012     0.3687288181    -3.9140567958
   54      H       1.0580779092     1.3420712212    -3.0378883766
   55      H      -0.7252054002     1.3493860561    -1.0406340514
   56      H      -0.9744577559     2.4501229102    -2.4394529175
 ----------------------------------------------------------------

    8   -1510.2758458005      5.40E-09 Convergence criterion met
 Total energy in the final basis set = -1510.27584580
 Final energy is   -1510.27584580049
 **  OPTIMIZATION CONVERGED  **

                    Orbital Energies (a.u.)
 --------------------------------------------------------------

 Alpha MOs
 -- Occupied --
-18.950 -18.944 -18.928 -18.923 -18.899 -18.899 -18.886 -18.876
-18.868 -18.867 -10.118 -10.103 -10.100 -10.098 -10.092 -10.088
-10.075 -10.066 -10.060 -10.058 -10.057 -10.053 -10.044 -10.038
-10.035 -10.033 -10.032 -10.029 -10.021 -10.019  -1.027  -1.015
 -1.002  -1.000  -0.981  -0.970  -0.955  -0.938  -0.933  -0.928
 -0.774  -0.762  -0.733  -0.725  -0.722  -0.716  -0.704  -0.660
 -0.651  -0.621  -0.603  -0.602  -0.556  -0.549  -0.546  -0.539
 -0.523  -0.510  -0.492  -0.487  -0.474  -0.465  -0.461  -0.451
 -0.446  -0.436  -0.432  -0.420  -0.416  -0.412  -0.406  -0.406
 -0.400  -0.396  -0.386  -0.379  -0.368  -0.359  -0.354  -0.350
 -0.344  -0.341  -0.338  -0.335  -0.330  -0.325  -0.322  -0.320
 -0.315  -0.312  -0.307  -0.305  -0.299  -0.296  -0.284  -0.280
 -0.275  -0.259  -0.247  -0.245  -0.244  -0.240  -0.232  -0.194
 -0.182  -0.170  -0.167  -0.162  -0.155  -0.152  -0.150  -0.143
 -0.142

          Ground-State Mulliken Net Atomic Charges

     Atom                 Charge (a.u.)
  ----------------------------------------
      1 O                    -0.213470
      2 C                     0.219200
      3 C                    -0.092829
      4 C                    -0.088574
      5 C                     0.219364
      6 O                    -0.172832
      7 C                    -0.049447
      8 C                    -0.046927
      9 O                    -0.165356
     10 C                     0.211288
     11 C                    -0.086240
     12 C                    -0.081192
     13 C                     0.219089
     14 O                    -0.212800
     15 O                    -0.165125
     16 O                    -0.187092
     17 O                    -0.189537
     18 C                    -0.151424
     19 C                     0.022923
     20 C                    -0.144328
     21 C                    -0.144061
     22 C                     0.025867
     23 O                    -0.184252
     24 H                     0.076683
     25 H                     0.081569
     26 H                     0.082737
     27 H                     0.080614
     28 H                     0.070486
     29 H                     0.080731
     30 H                     0.073849
     31 H                     0.093316
     32 O                    -0.203929
     33 C                    -0.122533
     34 C                     0.024638
     35 C                    -0.145411
     36 C                    -0.144083
     37 C                     0.026849
     38 O                    -0.188338
     39 H                     0.101384
     40 H                     0.072862
     41 H                     0.091877
     42 H                     0.088294
     43 H                     0.077810
     44 H                     0.074223
     45 H                     0.078253
     46 H                     0.069657
     47 H                     0.088521
     48 H                     0.102657
     49 H                     0.096003
     50 H                     0.075272
     51 H                     0.097050
     52 H                     0.106771
     53 H                     0.103051
     54 H                     0.081516
     55 H                     0.083976
     56 H                     0.081398
  ----------------------------------------
  Sum of atomic charges =     0.000000

                    Cartesian Multipole Moments
 -----------------------------------------------------------------
    Charge (ESU x 10^10)
                -0.0000
    Dipole Moment (Debye)
         X       1.9783      Y       5.8660      Z      -0.5127
       Tot       6.2118
    Quadrupole Moments (Debye-Ang)
        XX    -181.1585     XY       5.1073     YY    -157.0024
        XZ      -9.0934     YZ       1.7646     ZZ    -155.6329

 Total job time:  203.00s(wall), 8880.15s(cpu)
        *  Thank you very much for using Q-Chem.  Have a nice day.  *
