 Q-Chem 5.0, Q-Chem, Inc., Pleasanton, CA (2017)
 Q-Chem 5.0.1 for Intel X86 EM64T Linux

User input:
--------------------------------------------------------------
$molecule
0  1
O -3.94934 -3.66094 2.70899
C -3.26408 -4.56952 2.26188
C -3.36658 -6.02376 2.66595
C -4.06137 -6.97914 1.68189
C -4.41791 -6.40938 0.32677
O -5.7593 -6.15936 0.26688
C -6.55702 -7.2495 0.74069
C -7.95987 -6.76219 1.08807
O -7.88049 -5.56878 1.88327
C -7.73128 -5.76548 3.21676
C -7.01941 -7.05625 3.54508
C -6.42243 -7.12491 4.95829
C -6.91698 -6.07799 5.93609
O -7.92987 -6.16463 6.61514
O -2.38999 -4.27186 1.26207
O -6.08591 -5.02058 6.1365
O -7.93965 -4.8316 3.97258
C -6.34207 -3.98455 7.00976
C -7.92246 -8.35231 3.67659
C -7.10784 -9.62749 3.44927
C -6.23061 -9.62654 4.67677
C -6.89051 -8.48988 5.46334
O -8.22086 -8.48067 5.04338
H -6.14982 -7.11291 2.99425
H -5.31151 -7.07481 4.98341
H -8.84544 -8.39224 3.08365
H -7.83942 -10.46231 3.55538
H -6.5765 -9.79877 2.49686
H -6.32582 -10.61339 5.18113
H -5.15948 -9.39405 4.49162
H -6.7221 -8.61413 6.55639
O -3.63041 -5.89252 -0.45156
C -2.19605 -3.00871 0.74337
C -1.95852 -6.61292 2.80558
C -1.99523 -7.92985 3.58844
C -2.46944 -8.86753 2.50592
C -2.78624 -7.86292 1.38597
O -1.68592 -6.99251 1.48517
H -3.91286 -6.01121 3.62872
H -4.56384 -7.81762 2.13895
H -1.84128 -2.3189 1.53867
H -1.24564 -5.89837 3.27375
H -0.97914 -8.24804 3.91068
H -2.66708 -7.84925 4.47076
H -1.59842 -9.46511 2.151
H -3.27963 -9.56799 2.80128
H -2.85804 -8.42636 0.4269
H -3.14296 -2.62522 0.30678
H -1.42869 -3.05822 -0.05605
H -5.50268 -3.26041 6.97085
H -6.43396 -4.37134 8.04711
H -7.27863 -3.46244 6.71864
H -8.34734 -6.37906 0.11747
H -8.74784 -7.48613 1.31847
H -6.20929 -8.15178 1.22569
H -6.75127 -7.84274 -0.18137
$end

$opt
CONSTRAINT
tors           1           2           3           4    +104.211
tors           3           4           5           6    -104.211
tors           4           5           6           7     -47.368
tors           5           6           7           8    +161.053
tors           6           7           8           9     -47.368
tors           7           8           9          10     -85.263
tors           8           9          10          11     +28.421
tors           9          10          11          12    +161.053
tors          11          12          13          14     +85.263
ENDCONSTRAINT
$end

$rem
JOBTYPE                   OPT
METHOD                    B3LYP
DFT_D                     d3_op
BASIS                     STO-3G
GEOM_OPT_MAX_CYCLES       100
GEOM_OPT_TOL_GRADIENT     300
GEOM_OPT_TOL_DISPLACEMENT 1200
GEOM_OPT_TOL_ENERGY       100
SYMMETRY                  False
THRESH                    12
SCF_CONVERGENCE           8
MAX_SUB_FILE_NUM          128
MEM_STATIC                400
MEM_TOTAL                 4000
$end
--------------------------------------------------------------

   15   -1510.0373323029      9.11E-09 Convergence criterion met
 Total energy in the final basis set = -1510.03733230
   15   -1510.1193516928      3.20E-09 Convergence criterion met
 Total energy in the final basis set = -1510.11935169
   14   -1510.1684037247      9.00E-09 Convergence criterion met
 Total energy in the final basis set = -1510.16840372
   14   -1510.1994104991      8.60E-09 Convergence criterion met
 Total energy in the final basis set = -1510.19941050
   13   -1510.2185476968      8.37E-09 Convergence criterion met
 Total energy in the final basis set = -1510.21854770
   13   -1510.2309816809      6.86E-09 Convergence criterion met
 Total energy in the final basis set = -1510.23098168
   13   -1510.2390624416      5.53E-09 Convergence criterion met
 Total energy in the final basis set = -1510.23906244
   13   -1510.2437464211      3.44E-09 Convergence criterion met
   11   -1510.2469855648      4.99E-09 Convergence criterion met
 Total energy in the final basis set = -1510.24698556
   10   -1510.2469898599      9.54E-09 Convergence criterion met
 Total energy in the final basis set = -1510.24698986
   11   -1510.2469797459      2.89E-09 Convergence criterion met
 Total energy in the final basis set = -1510.24697975
   11   -1510.2469782852      4.08E-09 Convergence criterion met
 Total energy in the final basis set = -1510.24697829
    9   -1510.2469756360      9.92E-09 Convergence criterion met
 Total energy in the final basis set = -1510.24697564
    9   -1510.2469834750      6.36E-09 Convergence criterion met
 Total energy in the final basis set = -1510.24698348

             Standard Nuclear Orientation (Angstroms)
    I     Atom           X                Y                Z
 ----------------------------------------------------------------
    1      O      -2.0352034612    -2.5555809726    -0.0638123335
    2      C      -2.7362516959    -1.5729123173     0.2648108831
    3      C      -2.2432534810    -0.2969715730     1.0339316980
    4      C      -2.0652739988     0.9996710239     0.1234452394
    5      C      -2.4838028598     0.7679726649    -1.3825764921
    6      O      -1.4386610987     0.6167433437    -2.3758593782
    7      C      -0.3639739158     1.6230461275    -2.3068615409
    8      C       0.8673775074     1.0271651497    -3.0879675215
    9      O       1.1998656572    -0.3707854199    -2.7361731635
   10      C       2.0480189495    -0.6080774176    -1.6002322400
   11      C       2.0760583863     0.4106214703    -0.3961380445
   12      C       2.6691437932    -0.2234419237     0.9324159727
   13      C       3.4187098674    -1.5960844681     0.7311131410
   14      O       4.6122449858    -1.7689742052     0.4065779297
   15      O      -4.1386203632    -1.4634651252     0.0220560467
   16      O       2.5039208862    -2.6413566130     1.0901867143
   17      O       2.6147381900    -1.7249280595    -1.5720335667
   18      C       3.1187688083    -3.9595662936     0.8185363079
   19      C       3.0163321353     1.6888903869    -0.5632082819
   20      C       2.4849201698     2.7909099775     0.4380741769
   21      C       2.9541613723     2.1894933548     1.8148635027
   22      C       3.7196542838     0.8901815932     1.3412878867
   23      O       4.3012403222     1.2774712061     0.0343619315
   24      H       1.0373538372     0.7247337928    -0.2067950875
   25      H       1.8762935933    -0.3632973736     1.6878686388
   26      H       3.1774699242     2.0348482613    -1.6014775904
   27      H       2.9689667160     3.7594284069     0.2349091341
   28      H       1.3925391184     2.9231371988     0.3780740549
   29      H       3.6390601834     2.8726674754     2.3413669990
   30      H       2.1119842425     1.9506061672     2.4840157720
   31      H       4.5164323486     0.5343454920     2.0223446598
   32      O      -3.6585048112     0.5525625874    -1.7492641556
   33      C      -4.6119731272    -2.6291305965    -0.7596275861
   34      C      -3.2980838898     0.2340695751     2.0961314683
   35      C      -2.5506798435     1.2124122983     3.0883214674
   36      C      -2.3852775201     2.4918948874     2.1866164242
   37      C      -3.0629892718     2.0063661867     0.8443386693
   38      O      -4.1648583917     1.1355092762     1.3045312268
   39      H      -1.2808659450    -0.5606617319     1.5082446619
   40      H      -1.0281535924     1.3589422390     0.1985996818
   41      H      -4.4073901683    -3.5847944190    -0.2348472567
   42      H      -3.9023653420    -0.5585206828     2.5775063111
   43      H      -3.1752151034     1.4182071901     3.9721019334
   44      H      -1.5858113944     0.8014259239     3.4261428842
   45      H      -2.9315283867     3.3532063325     2.6027886548
   46      H      -1.3310369458     2.7786936830     2.0428138438
   47      H      -3.4531585982     2.8112704091     0.1918265324
   48      H      -4.1348658603    -2.6643099420    -1.7602694498
   49      H      -5.7026736423    -2.4924000057    -0.8757113080
   50      H       2.3833566557    -4.7159246995     1.1494271571
   51      H       4.0684846542    -4.0930739026     1.3761806090
   52      H       3.3227173613    -4.0880938027    -0.2642659714
   53      H       0.5957849085     0.9703303360    -4.1623351921
   54      H       1.7340618250     1.7124891260    -2.9871999761
   55      H      -0.0774334290     1.8966920926    -1.2743201879
   56      H      -0.6787606405     2.5594844199    -2.8235766832
 ----------------------------------------------------------------

    9   -1510.2469841698      5.12E-09 Convergence criterion met
 Total energy in the final basis set = -1510.24698417
 Final energy is   -1510.24698416979
 **  OPTIMIZATION CONVERGED  **

                    Orbital Energies (a.u.)
 --------------------------------------------------------------

 Alpha MOs
 -- Occupied --
-18.941 -18.934 -18.931 -18.918 -18.899 -18.897 -18.895 -18.892
-18.873 -18.857 -10.112 -10.109 -10.097 -10.091 -10.090 -10.089
-10.075 -10.069 -10.066 -10.066 -10.059 -10.050 -10.049 -10.048
-10.044 -10.038 -10.034 -10.030 -10.030 -10.027  -1.018  -1.013
 -1.007  -0.995  -0.980  -0.977  -0.951  -0.940  -0.933  -0.921
 -0.772  -0.770  -0.731  -0.730  -0.726  -0.715  -0.713  -0.658
 -0.653  -0.619  -0.607  -0.599  -0.558  -0.555  -0.547  -0.545
 -0.526  -0.518  -0.494  -0.484  -0.471  -0.466  -0.458  -0.453
 -0.445  -0.443  -0.440  -0.417  -0.414  -0.410  -0.409  -0.403
 -0.401  -0.399  -0.385  -0.368  -0.368  -0.364  -0.356  -0.350
 -0.347  -0.339  -0.339  -0.338  -0.332  -0.329  -0.326  -0.321
 -0.318  -0.316  -0.313  -0.309  -0.302  -0.297  -0.284  -0.282
 -0.275  -0.255  -0.249  -0.244  -0.243  -0.241  -0.239  -0.184
 -0.179  -0.174  -0.162  -0.158  -0.157  -0.153  -0.150  -0.148
 -0.138

          Ground-State Mulliken Net Atomic Charges

     Atom                 Charge (a.u.)
  ----------------------------------------
      1 O                    -0.210459
      2 C                     0.203820
      3 C                    -0.078545
      4 C                    -0.082567
      5 C                     0.206630
      6 O                    -0.175407
      7 C                    -0.047808
      8 C                    -0.045453
      9 O                    -0.163530
     10 C                     0.215286
     11 C                    -0.085070
     12 C                    -0.079437
     13 C                     0.216334
     14 O                    -0.215757
     15 O                    -0.160000
     16 O                    -0.174183
     17 O                    -0.184549
     18 C                    -0.128134
     19 C                     0.023278
     20 C                    -0.143174
     21 C                    -0.145162
     22 C                     0.026241
     23 O                    -0.181995
     24 H                     0.074796
     25 H                     0.081972
     26 H                     0.078611
     27 H                     0.080092
     28 H                     0.064878
     29 H                     0.080442
     30 H                     0.072400
     31 H                     0.089057
     32 O                    -0.179154
     33 C                    -0.126596
     34 C                     0.027638
     35 C                    -0.144283
     36 C                    -0.144292
     37 C                     0.026304
     38 O                    -0.179367
     39 H                     0.082993
     40 H                     0.068981
     41 H                     0.087935
     42 H                     0.088081
     43 H                     0.079798
     44 H                     0.072643
     45 H                     0.079726
     46 H                     0.068518
     47 H                     0.084030
     48 H                     0.092202
     49 H                     0.093333
     50 H                     0.087488
     51 H                     0.085481
     52 H                     0.094599
     53 H                     0.100265
     54 H                     0.083774
     55 H                     0.073957
     56 H                     0.083338
  ----------------------------------------
  Sum of atomic charges =    -0.000000

                    Cartesian Multipole Moments
 -----------------------------------------------------------------
    Charge (ESU x 10^10)
                -0.0000
    Dipole Moment (Debye)
         X      -0.6843      Y       4.0837      Z       2.3492
       Tot       4.7607
    Quadrupole Moments (Debye-Ang)
        XX    -187.2390     XY       9.4259     YY    -150.9969
        XZ      -0.3344     YZ      -6.5357     ZZ    -155.3828

 Total job time:  66.52s(wall), 3172.01s(cpu)
        *  Thank you very much for using Q-Chem.  Have a nice day.  *
