 Q-Chem 5.0, Q-Chem, Inc., Pleasanton, CA (2017)
 Q-Chem 5.0.1 for Intel X86 EM64T Linux

User input:
--------------------------------------------------------------
$molecule
0  1
O -3.94934 -3.66094 2.70899
C -3.26408 -4.56952 2.26188
C -3.36658 -6.02376 2.66595
C -3.63629 -7.04588 1.54953
C -3.59671 -6.52161 0.1312
O -2.43316 -6.9047 -0.47279
C -2.3218 -6.44431 -1.82367
C -1.00189 -6.90908 -2.43027
O -0.80327 -8.3054 -2.15875
C -1.3845 -8.76717 -1.02381
C -1.13974 -10.23964 -0.79453
C -1.77835 -10.81128 0.47972
C -2.83834 -9.94702 1.13254
O -3.92697 -9.67344 0.64818
O -2.313 -4.25587 1.33686
O -2.95445 -10.46298 2.39169
O -0.7536 -8.2751 -0.09422
C -4.13678 -10.88143 2.98713
C -1.79459 -11.14986 -1.85798
C -1.04243 -12.47814 -1.92331
C -1.43357 -13.08945 -0.59201
C -2.46278 -12.05902 -0.10971
O -3.02122 -11.54757 -1.29579
H -0.03642 -10.4217 -0.82816
H -0.98306 -11.0255 1.23168
H -1.84751 -10.68774 -2.86779
H -1.5161 -13.07018 -2.73943
H 0.05078 -12.41341 -2.11161
H -1.90705 -14.0773 -0.7859
H -0.60627 -13.19741 0.14263
H -3.17611 -12.52726 0.60167
O -4.48694 -5.85962 -0.38757
C -2.09707 -2.99015 0.83489
C -2.03869 -6.10947 3.41595
C -2.04971 -7.13081 4.50115
C -2.4077 -8.27659 3.66189
C -2.20525 -7.66015 2.21383
O -1.29496 -6.62754 2.41403
H -4.20487 -6.04957 3.4015
H -4.51616 -7.69174 1.74035
H -1.8189 -2.29471 1.65518
H -1.62189 -5.17275 3.86659
H -1.00084 -7.2165 4.87007
H -2.74452 -6.94272 5.34857
H -1.73069 -9.11397 3.95087
H -3.47655 -8.51572 3.82294
H -1.52397 -8.37905 1.84433
H -3.01165 -2.62246 0.32232
H -1.26744 -3.02832 0.09954
H -3.92256 -11.22222 4.02067
H -4.57011 -11.72959 2.41721
H -4.88288 -10.05981 3.02271
H -0.97282 -6.71073 -3.5223
H -0.17122 -6.34729 -1.95031
H -2.3834 -5.33437 -1.888
H -3.14613 -6.89266 -2.42444
$end

$opt
CONSTRAINT
tors           1           2           3           4    +123.158
tors           3           4           5           6    +104.211
tors           4           5           6           7    -180.000
tors           5           6           7           8    -180.000
tors           6           7           8           9     +47.368
tors           7           8           9          10     -28.421
tors           8           9          10          11    -180.000
tors           9          10          11          12    -180.000
tors          11          12          13          14     +66.316
ENDCONSTRAINT
$end

$rem
JOBTYPE                   OPT
METHOD                    B3LYP
DFT_D                     d3_op
BASIS                     STO-3G
GEOM_OPT_MAX_CYCLES       100
GEOM_OPT_TOL_GRADIENT     300
GEOM_OPT_TOL_DISPLACEMENT 1200
GEOM_OPT_TOL_ENERGY       100
SYMMETRY                  False
THRESH                    12
SCF_CONVERGENCE           8
MAX_SUB_FILE_NUM          128
MEM_STATIC                400
MEM_TOTAL                 4000
$end
--------------------------------------------------------------

   16   -1509.8710931592      9.61E-09 Convergence criterion met
 Total energy in the final basis set = -1509.87109316
   16   -1509.9500380164      4.61E-09 Convergence criterion met
 Total energy in the final basis set = -1509.95003802
   14   -1510.0346470534      5.41E-09 Convergence criterion met
 Total energy in the final basis set = -1510.03464705
   14   -1510.1005297030      7.24E-09 Convergence criterion met
 Total energy in the final basis set = -1510.10052970
   15   -1510.1488535704      2.48E-09 Convergence criterion met
 Total energy in the final basis set = -1510.14885357
   15   -1510.1823316591      2.71E-09 Convergence criterion met
 Total energy in the final basis set = -1510.18233166
   14   -1510.2048362606      9.36E-09 Convergence criterion met
 Total energy in the final basis set = -1510.20483626
   14   -1510.2200109108      7.13E-09 Convergence criterion met
   11   -1510.2657591379      1.84E-09 Convergence criterion met
 Total energy in the final basis set = -1510.26575914
   11   -1510.2657653646      1.83E-09 Convergence criterion met
 Total energy in the final basis set = -1510.26576536
   11   -1510.2657704768      1.73E-09 Convergence criterion met
 Total energy in the final basis set = -1510.26577048
   10   -1510.2657752544      9.45E-09 Convergence criterion met
 Total energy in the final basis set = -1510.26577525
    9   -1510.2657781614      4.77E-09 Convergence criterion met
 Total energy in the final basis set = -1510.26577816
    9   -1510.2657801561      4.45E-09 Convergence criterion met
 Total energy in the final basis set = -1510.26578016

             Standard Nuclear Orientation (Angstroms)
    I     Atom           X                Y                Z
 ----------------------------------------------------------------
    1      O      -5.9231189658    -0.7080802430     0.2427624254
    2      C      -4.7547321088    -0.3590398186    -0.0323513556
    3      C      -4.0389745633     0.9643714895     0.3918885986
    4      C      -2.6840458055     0.7419843987     1.1985682414
    5      C      -2.2992022344    -0.7758958497     1.3131040909
    6      O      -1.2304392069    -1.0921415767     0.4100289743
    7      C      -0.9084827882    -2.5266987390     0.5574344438
    8      C       0.2563503199    -3.0329620131    -0.3762088092
    9      O       1.5664703930    -2.3624155769    -0.5679000677
   10      C       1.7522254860    -0.9557939524    -0.4329862750
   11      C       3.2905233501    -0.7723697732    -0.7327000422
   12      C       3.8496642286     0.7064085672    -0.6671189001
   13      C       2.8625079449     1.7891954791    -0.1038993394
   14      O       2.4024556766     1.9003757812     1.0518004111
   15      O      -3.8403576391    -1.1568994332    -0.7964943959
   16      O       2.5960070864     2.7126119510    -1.1699251671
   17      O       0.9074674373    -0.0732345275    -0.1943715647
   18      C       1.6861943092     3.7787903171    -0.6983126298
   19      C       4.2164507907    -1.5043335499     0.3359994155
   20      C       5.6203277265    -1.7607821956    -0.3372935370
   21      C       6.2093926479    -0.3018576904    -0.3604737674
   22      C       5.0556057805     0.5080862671     0.3534523208
   23      O       4.5019046671    -0.4518714930     1.3356398090
   24      H       3.4683464169    -1.1982016436    -1.7368841122
   25      H       4.1936408222     1.0451054067    -1.6597480839
   26      H       3.7479784138    -2.3866766538     0.8133832760
   27      H       6.2302624672    -2.4324655654     0.2879620170
   28      H       5.5256343278    -2.2010490664    -1.3427219446
   29      H       7.1436973090    -0.2326104499     0.2189330179
   30      H       6.3998580903     0.0640523310    -1.3821103235
   31      H       5.3787694249     1.4365184399     0.8627502650
   32      O      -2.8227458831    -1.6101820406     2.0852756510
   33      C      -4.4660213559    -2.4519580987    -1.1459294108
   34      C      -3.5180422316     1.8244187656    -0.8417551818
   35      C      -3.2883177134     3.3001243504    -0.3308403122
   36      C      -1.9911837731     3.1140611491     0.5398904246
   37      C      -1.6741850495     1.5808537621     0.3101778756
   38      O      -2.1474768678     1.3244565072    -1.0712368919
   39      H      -4.7639634780     1.5375535414     0.9965642575
   40      H      -2.7736041322     1.1438589185     2.2238642207
   41      H      -5.4257680274    -2.3132723392    -1.6838356784
   42      H      -4.1293703695     1.7296317065    -1.7601210066
   43      H      -3.1092241981     3.9755805522    -1.1827331970
   44      H      -4.1433337063     3.6819619893     0.2495868910
   45      H      -1.1692635958     3.7469789371     0.1724636797
   46      H      -2.1588209077     3.3423386645     1.6043530066
   47      H      -0.6132650932     1.2692227765     0.4007537952
   48      H      -4.6553785989    -3.0663889744    -0.2413414528
   49      H      -3.7443061354    -2.9718544763    -1.8024087083
   50      H       1.4556523294     4.4012467039    -1.5822897813
   51      H       2.1618317341     4.4063601827     0.0832360162
   52      H       0.7500067218     3.3545373407    -0.2862101434
   53      H       0.5253905167    -4.0471480597    -0.0105755135
   54      H      -0.1760529079    -3.1551930638    -1.3959096382
   55      H      -1.7936125182    -3.1537346758     0.3089434850
   56      H      -0.6496523010    -2.7377609106     1.6191621862
 ----------------------------------------------------------------

    9   -1510.2657816128      9.06E-09 Convergence criterion met
 Total energy in the final basis set = -1510.26578161
 Final energy is   -1510.26578161278
 **  OPTIMIZATION CONVERGED  **

                    Orbital Energies (a.u.)
 --------------------------------------------------------------

 Alpha MOs
 -- Occupied --
-18.933 -18.933 -18.933 -18.924 -18.887 -18.887 -18.878 -18.873
-18.864 -18.862 -10.108 -10.095 -10.092 -10.090 -10.083 -10.076
-10.063 -10.059 -10.058 -10.056 -10.054 -10.043 -10.036 -10.032
-10.032 -10.030 -10.020 -10.019 -10.015 -10.012  -1.013  -1.009
 -1.002  -0.999  -0.969  -0.961  -0.944  -0.933  -0.929  -0.925
 -0.761  -0.757  -0.729  -0.719  -0.715  -0.702  -0.694  -0.659
 -0.657  -0.620  -0.596  -0.577  -0.544  -0.540  -0.536  -0.530
 -0.514  -0.505  -0.481  -0.469  -0.465  -0.456  -0.448  -0.437
 -0.431  -0.427  -0.424  -0.413  -0.412  -0.409  -0.405  -0.398
 -0.390  -0.383  -0.370  -0.365  -0.361  -0.354  -0.351  -0.349
 -0.342  -0.337  -0.333  -0.329  -0.326  -0.318  -0.316  -0.313
 -0.305  -0.301  -0.300  -0.297  -0.291  -0.284  -0.277  -0.271
 -0.270  -0.251  -0.248  -0.245  -0.240  -0.233  -0.224  -0.178
 -0.175  -0.174  -0.168  -0.157  -0.150  -0.145  -0.141  -0.137
 -0.134

          Ground-State Mulliken Net Atomic Charges

     Atom                 Charge (a.u.)
  ----------------------------------------
      1 O                    -0.211463
      2 C                     0.207538
      3 C                    -0.080118
      4 C                    -0.077194
      5 C                     0.210825
      6 O                    -0.152921
      7 C                    -0.046445
      8 C                    -0.047075
      9 O                    -0.178711
     10 C                     0.221296
     11 C                    -0.076964
     12 C                    -0.081569
     13 C                     0.212567
     14 O                    -0.211367
     15 O                    -0.167081
     16 O                    -0.171683
     17 O                    -0.193440
     18 C                    -0.129686
     19 C                     0.025660
     20 C                    -0.143148
     21 C                    -0.144765
     22 C                     0.026157
     23 O                    -0.187228
     24 H                     0.085371
     25 H                     0.085391
     26 H                     0.085765
     27 H                     0.077476
     28 H                     0.073544
     29 H                     0.077685
     30 H                     0.073649
     31 H                     0.083062
     32 O                    -0.223836
     33 C                    -0.129114
     34 C                     0.025794
     35 C                    -0.143602
     36 C                    -0.145368
     37 C                     0.018120
     38 O                    -0.185908
     39 H                     0.084114
     40 H                     0.084874
     41 H                     0.090616
     42 H                     0.080537
     43 H                     0.075745
     44 H                     0.072649
     45 H                     0.072936
     46 H                     0.072905
     47 H                     0.110700
     48 H                     0.088912
     49 H                     0.087819
     50 H                     0.087986
     51 H                     0.084510
     52 H                     0.092131
     53 H                     0.091403
     54 H                     0.084483
     55 H                     0.089723
     56 H                     0.086743
  ----------------------------------------
  Sum of atomic charges =    -0.000000

                    Cartesian Multipole Moments
 -----------------------------------------------------------------
    Charge (ESU x 10^10)
                -0.0000
    Dipole Moment (Debye)
         X       1.7131      Y      -0.5856      Z      -2.2692
       Tot       2.9029
    Quadrupole Moments (Debye-Ang)
        XX    -160.1330     XY      -4.9507     YY    -142.2460
        XZ      -0.6728     YZ       4.3588     ZZ    -164.7726

 Total job time:  123.45s(wall), 5890.83s(cpu)
        *  Thank you very much for using Q-Chem.  Have a nice day.  *
