 Q-Chem 5.0, Q-Chem, Inc., Pleasanton, CA (2017)
 Q-Chem 5.0.1 for Intel X86 EM64T Linux

User input:
--------------------------------------------------------------
$molecule
0  1
O 0.0972910251 -0.1789479706 1.3525809082
C 1.2411754767 -0.2375741894 0.5868510651
C 2.5296459042 0.6399146817 0.7317448615
C 3.9105899254 -0.0935416821 0.4830291825
C 3.9186232387 -1.5100760499 -0.2639494301
O 3.4557964004 -1.1782229251 -1.6489185367
C 2.0712592924 -1.5826107615 -1.8578244387
C 0.9658634334 -1.1530947419 -0.6582139193
O -0.418696979 -0.7369545995 -1.2159513328
C -1.230586986 -0.3925623346 0.1480884408
C -2.1079466887 0.8722232489 -0.2665338863
C -3.4811977756 0.4806855892 -0.9576402731
C -3.8743977697 -1.043193152 -0.8330158857
O -3.785631072 -1.8939378213 -1.7498181684
O 2.0963733247 -1.4877315634 1.3202341207
O -4.4834038712 -1.2956636666 0.4389731338
O -1.8223630356 -1.4253344933 0.6008483247
C -4.8543500766 -2.7272068561 0.5267921642
C -2.643296467 1.7155287151 0.9782514528
C -2.947873818 3.1760541216 0.4550303524
C -4.2069505975 2.9081783148 -0.4516924686
C -4.489782568 1.3822816947 -0.1304400992
O -4.0038035547 1.1985767326 1.2605682042
H -1.4987757346 1.5463301424 -0.8951190533
H -3.4613092495 0.7155142705 -2.0369079257
H -1.9798239099 1.679008697 1.863255841
H -3.240322325 3.7982688047 1.3163663021
H -2.103623669 3.6616413043 -0.0590522492
H -5.0514176785 3.5380174315 -0.1320817128
H -4.0269084223 3.0665645456 -1.5266154766
H -5.5468495285 1.0800492505 -0.257143337
O 4.409792101 -2.6067108027 0.0474430506
C 1.1889554792 -2.3116952039 2.1172908373
C 2.6477462599 1.9072482161 -0.2242816509
C 3.58539133 2.9701166246 0.4652450179
C 4.9827408092 2.2586007678 0.3400591845
C 4.5992875303 0.9702717019 -0.4956090421
O 3.4746933859 1.4196102616 -1.3603433531
H 2.490451335 0.9757641437 1.783292747
H 4.4713779043 -0.2135021984 1.4267316854
H 0.3966672811 -2.8181977286 1.5148358167
H 1.6712017533 2.3200720174 -0.5447650281
H 3.5813784596 3.8915764712 -0.1389227685
H 3.2875297613 3.221820428 1.495031187
H 5.6805556655 2.8899044838 -0.2319819357
H 5.4451597492 1.9966019522 1.3044344371
H 5.4450404399 0.5497452278 -1.0726103169
H 0.6715772422 -1.7448271164 2.9191307775
H 1.8213704958 -3.0939910923 2.581497597
H -5.3165863832 -2.8609269905 1.5219349371
H -3.9622725337 -3.3807801501 0.4422865398
H -5.580324179 -3.0157457597 -0.2617558763
H 0.6909995583 -2.2010757192 -0.3770412888
H 0.8917247014 -0.2522646965 -1.5564752694
H 2.1071780183 -2.6927609417 -1.726529641
H 1.7209763665 -1.447384886 -2.9036268042
$end

$rem
JOBTYPE                   OPT
METHOD                    B3LYP
DFT_D                     d3_op
BASIS                     STO-3G
GEOM_OPT_MAX_CYCLES       100
GEOM_OPT_TOL_GRADIENT     300
GEOM_OPT_TOL_DISPLACEMENT 1200
GEOM_OPT_TOL_ENERGY       100
SYMMETRY                  False
THRESH                    12
SCF_CONVERGENCE           8
MAX_SUB_FILE_NUM          128
MEM_STATIC                400
MEM_TOTAL                 4000
$end
--------------------------------------------------------------

   18   -1509.9576135389      8.11E-09 Convergence criterion met
 Total energy in the final basis set = -1509.95761354
   14   -1509.9944678934      7.34E-09 Convergence criterion met
 Total energy in the final basis set = -1509.99446789
   15   -1510.0085506195      2.01E-09 Convergence criterion met
 Total energy in the final basis set = -1510.00855062
   14   -1510.0493712246      9.22E-09 Convergence criterion met
 Total energy in the final basis set = -1510.04937122
   14   -1510.0933362840      8.53E-09 Convergence criterion met
 Total energy in the final basis set = -1510.09333628
   14   -1510.1282084659      4.54E-09 Convergence criterion met
 Total energy in the final basis set = -1510.12820847
   14   -1510.1581555740      2.65E-09 Convergence criterion met
 Total energy in the final basis set = -1510.15815557
   13   -1510.1818546720      7.89E-09 Convergence criterion met
   12   -1510.2829984090      8.31E-09 Convergence criterion met
 Total energy in the final basis set = -1510.28299841
   12   -1510.2830180501      2.80E-09 Convergence criterion met
 Total energy in the final basis set = -1510.28301805
   12   -1510.2830522149      3.92E-09 Convergence criterion met
 Total energy in the final basis set = -1510.28305221
   11   -1510.2830644679      9.37E-09 Convergence criterion met
 Total energy in the final basis set = -1510.28306447
   11   -1510.2830686130      6.51E-09 Convergence criterion met
 Total energy in the final basis set = -1510.28306861
    9   -1510.2830707698      9.00E-09 Convergence criterion met
 Total energy in the final basis set = -1510.28307077

             Standard Nuclear Orientation (Angstroms)
    I     Atom           X                Y                Z
 ----------------------------------------------------------------
    1      O      -0.0516188477     0.4041363346     0.0856581583
    2      C       1.1375476857    -0.5469412644     0.1653313068
    3      C       2.2422244338     0.5038281149     0.6483929515
    4      C       3.7307251331    -0.0400579761     0.7828949895
    5      C       3.8205735802    -1.5702498256     0.4792272899
    6      O       3.7858826878    -1.7902715693    -0.9590905904
    7      C       2.4718475589    -2.3738888580    -1.2846517407
    8      C       1.3487345123    -1.2442479115    -1.2991216091
    9      O       1.5806225160    -0.2753130765    -2.3443200459
   10      C      -1.2626962569    -0.0657005118    -0.4644754236
   11      C      -2.2447621392     1.1511441919    -0.6184302095
   12      C      -3.7702485653     0.7201292193    -0.6082564279
   13      C      -4.0107741989    -0.8243499486    -0.4404512624
   14      O      -4.4815531908    -1.6051294210    -1.2953669822
   15      O       1.0525866552    -1.4338982885     1.3162610266
   16      O      -3.7013924763    -1.1959201490     0.9108076693
   17      O      -1.5453517425    -1.2511844265    -0.7816925469
   18      C      -3.8758936377    -2.6549651808     1.0788906379
   19      C      -2.1945616302     2.1400535630     0.6223877955
   20      C      -2.8935780920     3.4941117175     0.2098238361
   21      C      -4.4086744040     3.0687054923     0.2231336692
   22      C      -4.2958010034     1.5491078796     0.6426673078
   23      O      -3.1476397828     1.5326595410     1.5779199824
   24      H      -1.9849231615     1.6740987081    -1.5580078225
   25      H      -4.2715009477     1.0290047181    -1.5420604920
   26      H      -1.1892779639     2.2334125457     1.0763436214
   27      H      -2.6868540518     4.2762685844     0.9574587305
   28      H      -2.5601171827     3.8521009170    -0.7775803391
   29      H      -4.9803900328     3.6340506105     0.9762640133
   30      H      -4.8950603398     3.1943108761    -0.7573470472
   31      H      -5.1958117175     1.1257650914     1.1288648416
   32      O       3.9337305087    -2.4871189293     1.3169558402
   33      C       0.1257007312    -2.5757587293     1.1093329921
   34      C       2.4506720018     1.7125909987    -0.3470087233
   35      C       3.2617490314     2.8569142991     0.3678823546
   36      C       4.7256033035     2.2728632379     0.3470354193
   37      C       4.4804454262     0.8554232390    -0.2920656798
   38      O       3.4400580724     1.1602181181    -1.3150961191
   39      H       1.8829980223     0.8625781021     1.6292543416
   40      H       4.1153318696     0.1499807489     1.7997004654
   41      H       0.6790570863    -3.4765147989     0.7738299094
   42      H       1.5291884806     2.0247361729    -0.8747435200
   43      H       3.1926880723     3.7949126491    -0.2052676447
   44      H       2.8931181037     3.0390745873     1.3899286221
   45      H       5.3889711113     2.8752076959    -0.2942240177
   46      H       5.1712715915     2.1997543606     1.3517898770
   47      H       5.3578492541     0.3815975972    -0.7730894821
   48      H      -0.6714408480    -2.3246277734     0.3747186296
   49      H      -0.3211342973    -2.7920996314     2.0980960228
   50      H      -3.6134774454    -2.8754677967     2.1299487992
   51      H      -3.2053953507    -3.2228771917     0.4017813446
   52      H      -4.9214530968    -2.9705107506     0.8836421950
   53      H       0.3812281387    -1.7429038081    -1.5260002332
   54      H       2.4926235830     0.1462954010    -2.0549987786
   55      H       2.2078941923    -3.2109681142    -0.6034958792
   56      H       2.5555995565    -2.7691657106    -2.3181128402
 ----------------------------------------------------------------

   10   -1510.2830711881      5.40E-09 Convergence criterion met
 Total energy in the final basis set = -1510.28307119
 Final energy is   -1510.28307118812
 **  OPTIMIZATION CONVERGED  **

                    Orbital Energies (a.u.)
 --------------------------------------------------------------

 Alpha MOs
 -- Occupied --
-18.936 -18.935 -18.920 -18.907 -18.906 -18.903 -18.889 -18.887
-18.860 -18.827 -10.115 -10.111 -10.108 -10.089 -10.084 -10.079
-10.061 -10.060 -10.059 -10.054 -10.051 -10.049 -10.047 -10.040
-10.038 -10.037 -10.036 -10.033 -10.021 -10.020  -1.024  -1.013
 -1.003  -0.998  -0.970  -0.968  -0.944  -0.935  -0.923  -0.913
 -0.782  -0.762  -0.740  -0.726  -0.721  -0.706  -0.690  -0.659
 -0.652  -0.620  -0.606  -0.591  -0.563  -0.556  -0.546  -0.539
 -0.530  -0.512  -0.491  -0.475  -0.472  -0.465  -0.458  -0.449
 -0.439  -0.434  -0.428  -0.417  -0.413  -0.407  -0.404  -0.399
 -0.392  -0.386  -0.378  -0.371  -0.365  -0.357  -0.357  -0.350
 -0.347  -0.344  -0.341  -0.337  -0.335  -0.330  -0.325  -0.322
 -0.315  -0.314  -0.306  -0.300  -0.292  -0.288  -0.283  -0.275
 -0.273  -0.258  -0.251  -0.242  -0.241  -0.234  -0.221  -0.185
 -0.174  -0.168  -0.165  -0.163  -0.161  -0.150  -0.143  -0.140
 -0.114

          Ground-State Mulliken Net Atomic Charges

     Atom                 Charge (a.u.)
  ----------------------------------------
      1 O                    -0.182366
      2 C                     0.164106
      3 C                    -0.067090
      4 C                    -0.086143
      5 C                     0.220489
      6 O                    -0.201895
      7 C                    -0.058492
      8 C                    -0.003912
      9 O                    -0.289878
     10 C                     0.226461
     11 C                    -0.076916
     12 C                    -0.081059
     13 C                     0.212676
     14 O                    -0.216940
     15 O                    -0.192558
     16 O                    -0.172094
     17 O                    -0.214448
     18 C                    -0.128124
     19 C                     0.023708
     20 C                    -0.144329
     21 C                    -0.144172
     22 C                     0.026523
     23 O                    -0.186997
     24 H                     0.087543
     25 H                     0.083978
     26 H                     0.088004
     27 H                     0.077079
     28 H                     0.072828
     29 H                     0.077547
     30 H                     0.074020
     31 H                     0.084643
     32 O                    -0.177308
     33 C                    -0.152704
     34 C                     0.023119
     35 C                    -0.143052
     36 C                    -0.141050
     37 C                     0.029835
     38 O                    -0.183429
     39 H                     0.092101
     40 H                     0.088816
     41 H                     0.069426
     42 H                     0.100160
     43 H                     0.083161
     44 H                     0.080167
     45 H                     0.083210
     46 H                     0.080097
     47 H                     0.096036
     48 H                     0.105949
     49 H                     0.081188
     50 H                     0.087425
     51 H                     0.089457
     52 H                     0.085985
     53 H                     0.087820
     54 H                     0.189216
     55 H                     0.080844
     56 H                     0.091343
  ----------------------------------------
  Sum of atomic charges =    -0.000000

                    Cartesian Multipole Moments
 -----------------------------------------------------------------
    Charge (ESU x 10^10)
                -0.0000
    Dipole Moment (Debye)
         X       1.1680      Y       3.5116      Z       1.1942
       Tot       3.8886
    Quadrupole Moments (Debye-Ang)
        XX    -155.4746     XY       4.7009     YY    -152.7127
        XZ      -0.2963     YZ      -1.7601     ZZ    -171.2909

 Total job time:  211.13s(wall), 10071.69s(cpu)
        *  Thank you very much for using Q-Chem.  Have a nice day.  *
