 Q-Chem 5.0, Q-Chem, Inc., Pleasanton, CA (2017)
 Q-Chem 5.0.1 for Intel X86 EM64T Linux

User input:
--------------------------------------------------------------
$molecule
0  1
O 4.5868847172 -2.7390858591 0.6060124313
C 3.845409617 -1.7505150437 0.4070329342
C 4.3348002232 -0.3262964516 -0.04094593
C 3.2769005076 0.6581971152 -0.6778300247
C 2.0561819002 0.0315407065 -1.4440333499
O 1.2199516706 1.1008424398 -1.9422989114
C -0.189213631 1.0355373661 -1.4829931482
C -0.4966649273 2.4115449063 -0.7563651538
O -1.3532145405 2.3865103405 0.4533149367
C -1.9854074298 1.0957236544 0.6931800476
C -3.334999307 0.9689751937 -0.1265232541
C -3.7497589273 -0.4090967063 -0.787250302
C -2.7129374673 -1.5457226719 -1.083106853
O -2.9394603291 -2.4729922531 -1.8957056233
O 2.4825089121 -1.6894546855 0.8360208165
O -1.4899258654 -1.417308015 -0.354284654
O -1.6309949484 0.3752627269 1.6464476524
C -0.594220682 -2.5640577741 -0.6632095961
C -4.5096909787 1.1188067852 0.9439626585
C -5.8883505382 1.341321578 0.2024794529
C -6.2365102091 -0.1249989762 -0.2500770061
C -4.9264366495 -0.8839078773 0.1917876738
O -4.6020977523 -0.2540144296 1.4891836495
H -3.3532318826 1.7798605083 -0.8753473517
H -4.196040667 -0.191756742 -1.7753819847
H -4.2929846021 1.8432622338 1.7528677093
H -6.6414951418 1.7438930499 0.8981847557
H -5.7882153306 2.0349004226 -0.6478617806
H -7.1069715318 -0.5185548882 0.2990709581
H -6.4305453495 -0.2089361279 -1.3313050042
H -5.0238446724 -1.9815859528 0.3001481108
O 1.8285494521 -1.1817618594 -1.6436704777
C 2.1137328498 -2.9558749808 1.5079791373
C 4.6296630371 0.4596780313 1.3164957777
C 5.2811448975 1.8687744906 1.0094755718
C 4.0163213614 2.7191017304 0.6121957058
C 2.9178781377 1.5878447938 0.5741437945
O 3.255718124 0.7825113712 1.7661131339
H 5.2331565171 -0.4429576521 -0.6719586292
H 3.7926280135 1.2892237096 -1.4268286985
H 1.1287120763 -2.776191096 1.9757376175
H 5.1574433103 -0.1436300067 2.0806073053
H 5.7777589525 2.2700624462 1.9068758159
H 6.0211743116 1.8059435362 0.1954081504
H 3.7709376519 3.4598421714 1.3902875549
H 4.1292773055 3.2381034753 -0.3529338619
H 1.8684685929 1.9304708201 0.6254354824
H 2.8534933542 -3.2331797176 2.2859277482
H 2.0357402106 -3.7925572857 0.7837965529
H 0.3760558064 -2.1553619626 -1.0251239512
H -1.0743259958 -3.1902278506 -1.4404894455
H -0.4490206202 -3.1518266084 0.2616090242
H 0.4745100619 2.8590940368 -0.452135338
H -0.9549064057 3.1087055827 -1.4945702071
H -0.40717875 0.1574123108 -0.8282443498
H -0.8442707541 0.9410570511 -2.3763450546
$end

$rem
JOBTYPE                   OPT
METHOD                    B3LYP
DFT_D                     d3_op
BASIS                     STO-3G
GEOM_OPT_MAX_CYCLES       100
GEOM_OPT_TOL_GRADIENT     300
GEOM_OPT_TOL_DISPLACEMENT 1200
GEOM_OPT_TOL_ENERGY       100
SYMMETRY                  False
THRESH                    12
SCF_CONVERGENCE           8
MAX_SUB_FILE_NUM          128
MEM_STATIC                400
MEM_TOTAL                 4000
$end
--------------------------------------------------------------

   16   -1510.2319249161      5.59E-09 Convergence criterion met
 Total energy in the final basis set = -1510.23192492
   15   -1510.2365250318      2.68E-09 Convergence criterion met
 Total energy in the final basis set = -1510.23652503
   14   -1510.2382522066      6.97E-09 Convergence criterion met
 Total energy in the final basis set = -1510.23825221
   14   -1510.2419544832      6.52E-09 Convergence criterion met
 Total energy in the final basis set = -1510.24195448
   14   -1510.2474845250      2.36E-09 Convergence criterion met
 Total energy in the final basis set = -1510.24748452
   14   -1510.2513783311      1.81E-09 Convergence criterion met
 Total energy in the final basis set = -1510.25137833
   12   -1510.2546656099      8.73E-09 Convergence criterion met
 Total energy in the final basis set = -1510.25466561
   13   -1510.2576910296      4.60E-09 Convergence criterion met
   11   -1510.2867350857      8.66E-09 Convergence criterion met
 Total energy in the final basis set = -1510.28673509
   11   -1510.2867160642      9.59E-09 Convergence criterion met
 Total energy in the final basis set = -1510.28671606
   11   -1510.2867493529      4.46E-09 Convergence criterion met
 Total energy in the final basis set = -1510.28674935
   11   -1510.2867551548      2.95E-09 Convergence criterion met
 Total energy in the final basis set = -1510.28675515
   11   -1510.2867476449      3.49E-09 Convergence criterion met
 Total energy in the final basis set = -1510.28674764
   11   -1510.2867389759      3.02E-09 Convergence criterion met
 Total energy in the final basis set = -1510.28673898

             Standard Nuclear Orientation (Angstroms)
    I     Atom           X                Y                Z
 ----------------------------------------------------------------
    1      O       3.6891111829    -2.3062919826     1.0610056549
    2      C       3.4131600703    -1.1349801048     0.7212662301
    3      C       4.2336019593    -0.2139973723    -0.2435782468
    4      C       3.3544599818     0.5685151146    -1.3132029876
    5      C       1.8212669939     0.2245568024    -1.2082907928
    6      O       1.1007776342     1.3856199254    -0.7912287410
    7      C      -0.3290148780     1.0960651102    -0.5346288614
    8      C      -0.6398827057     1.4859385203     0.9675486782
    9      O      -1.0339944038     0.3400622651     1.8164678629
   10      C      -2.3031830261    -0.2927665220     1.5364834807
   11      C      -3.3263240113     0.3816487951     0.5421528229
   12      C      -3.6226147538    -0.5062138755    -0.7401874708
   13      C      -2.8593588540    -1.8790521452    -0.7575898072
   14      O      -3.3470338255    -3.0174471543    -0.9080657108
   15      O       2.2738070107    -0.4037304258     1.1754491410
   16      O      -1.4609637878    -1.6137978525    -0.6019519886
   17      O      -2.5430493601    -1.3450344217     2.1670856988
   18      C      -0.6689711925    -2.8640141431    -0.5544593957
   19      C      -4.7798603161     0.4368642085     1.1941094663
   20      C      -5.6533690743     1.4487067994     0.3513287020
   21      C      -5.9335399656     0.6002796032    -0.9446419502
   22      C      -5.1811670551    -0.7434133061    -0.5978427767
   23      O      -5.3634199325    -0.8814437690     0.8661466956
   24      H      -2.9992224265     1.3890639601     0.2458110357
   25      H      -3.3674012630     0.0448103609    -1.6644026010
   26      H      -4.7866954550     0.6014768491     2.2890455742
   27      H      -6.5853496421     1.6874690465     0.8880219202
   28      H      -5.1170527696     2.3876898747     0.1398026090
   29      H      -7.0106599232     0.4147747658    -1.0815286263
   30      H      -5.5377638366     1.0746164288    -1.8569942117
   31      H      -5.5412601931    -1.6516488354    -1.1190665712
   32      O       1.2959295713    -0.8693971979    -1.5125947179
   33      C       1.4249774146    -1.2300898493     2.0684311710
   34      C       4.8936599572     1.0056067845     0.5398009119
   35      C       6.0249174970     1.6246002044    -0.3725071370
   36      C       5.1624332373     2.3831603991    -1.4479066294
   37      C       3.6976941673     2.0705938447    -0.9434623815
   38      O       3.8344168273     2.0379777523     0.5312795491
   39      H       5.0012649899    -0.8390235005    -0.7322654009
   40      H       3.6838806373     0.3162642512    -2.3379246417
   41      H       0.4218721356    -0.7419751565     2.0687103390
   42      H       5.1999702592     0.7707356116     1.5776519642
   43      H       6.6504853238     2.3206439370     0.2087310043
   44      H       6.6723699438     0.8506160505    -0.8146153113
   45      H       5.3537856004     3.4677817132    -1.4287491746
   46      H       5.3351705134     2.0121028613    -2.4707760893
   47      H       2.9236342786     2.8013425186    -1.2443948445
   48      H       1.8452450356    -1.2460872468     3.0942488437
   49      H       1.3576552559    -2.2718798035     1.7002367519
   50      H       0.3629242543    -2.5515609057    -0.8076426423
   51      H      -1.0486724845    -3.6031569619    -1.2867074260
   52      H      -0.7097084185    -3.3066540171     0.4616215997
   53      H       0.3047916559     1.8487666855     1.4250595073
   54      H      -1.3872977647     2.3048073280     1.0258439954
   55      H      -0.5718204515     0.0156771808    -0.7093298549
   56      H      -0.9306824612     1.7241328436    -1.2243246996
 ----------------------------------------------------------------

    9   -1510.2867452243      6.76E-09 Convergence criterion met
 Total energy in the final basis set = -1510.28674522
 Final energy is   -1510.28674522428
 **  OPTIMIZATION CONVERGED  **

                    Orbital Energies (a.u.)
 --------------------------------------------------------------

 Alpha MOs
 -- Occupied --
-18.944 -18.943 -18.933 -18.927 -18.893 -18.888 -18.887 -18.880
-18.870 -18.869 -10.108 -10.108 -10.104 -10.093 -10.079 -10.067
-10.063 -10.061 -10.060 -10.058 -10.055 -10.047 -10.046 -10.038
-10.035 -10.035 -10.026 -10.025 -10.021 -10.020  -1.020  -1.013
 -1.009  -1.001  -0.975  -0.970  -0.945  -0.943  -0.936  -0.929
 -0.770  -0.763  -0.729  -0.725  -0.713  -0.711  -0.698  -0.661
 -0.646  -0.616  -0.606  -0.586  -0.553  -0.545  -0.544  -0.537
 -0.517  -0.513  -0.485  -0.481  -0.472  -0.467  -0.461  -0.439
 -0.439  -0.433  -0.426  -0.423  -0.415  -0.408  -0.403  -0.397
 -0.395  -0.388  -0.383  -0.368  -0.363  -0.358  -0.355  -0.354
 -0.340  -0.338  -0.336  -0.334  -0.330  -0.321  -0.320  -0.312
 -0.310  -0.309  -0.306  -0.303  -0.297  -0.295  -0.293  -0.280
 -0.274  -0.267  -0.252  -0.240  -0.237  -0.237  -0.231  -0.188
 -0.184  -0.171  -0.165  -0.164  -0.158  -0.153  -0.148  -0.145
 -0.143

          Ground-State Mulliken Net Atomic Charges

     Atom                 Charge (a.u.)
  ----------------------------------------
      1 O                    -0.213765
      2 C                     0.207206
      3 C                    -0.079903
      4 C                    -0.078118
      5 C                     0.221773
      6 O                    -0.172585
      7 C                    -0.071011
      8 C                    -0.050178
      9 O                    -0.170370
     10 C                     0.211552
     11 C                    -0.084906
     12 C                    -0.078864
     13 C                     0.217968
     14 O                    -0.201011
     15 O                    -0.173580
     16 O                    -0.175249
     17 O                    -0.197921
     18 C                    -0.134594
     19 C                     0.026670
     20 C                    -0.143985
     21 C                    -0.144462
     22 C                     0.025039
     23 O                    -0.183183
     24 H                     0.077598
     25 H                     0.083744
     26 H                     0.085989
     27 H                     0.080026
     28 H                     0.071372
     29 H                     0.080156
     30 H                     0.072780
     31 H                     0.092772
     32 O                    -0.228172
     33 C                    -0.148293
     34 C                     0.025936
     35 C                    -0.143706
     36 C                    -0.144625
     37 C                     0.024802
     38 O                    -0.187365
     39 H                     0.084619
     40 H                     0.083205
     41 H                     0.114638
     42 H                     0.083126
     43 H                     0.077852
     44 H                     0.074247
     45 H                     0.077121
     46 H                     0.072707
     47 H                     0.089488
     48 H                     0.078641
     49 H                     0.084576
     50 H                     0.113181
     51 H                     0.093541
     52 H                     0.089744
     53 H                     0.107878
     54 H                     0.079183
     55 H                     0.122923
     56 H                     0.073788
  ----------------------------------------
  Sum of atomic charges =     0.000000

                    Cartesian Multipole Moments
 -----------------------------------------------------------------
    Charge (ESU x 10^10)
                 0.0000
    Dipole Moment (Debye)
         X       0.2581      Y       4.4962      Z      -2.8221
       Tot       5.3148
    Quadrupole Moments (Debye-Ang)
        XX    -152.4448     XY      -9.5007     YY    -167.8364
        XZ       1.1007     YZ       1.7732     ZZ    -160.9739

 Total job time:  138.32s(wall), 6598.09s(cpu)
        *  Thank you very much for using Q-Chem.  Have a nice day.  *
