 Q-Chem 5.0, Q-Chem, Inc., Pleasanton, CA (2017)
 Q-Chem 5.0.1 for Intel X86 EM64T Linux

User input:
--------------------------------------------------------------
$molecule
0  1
O -3.94934 -3.66094 2.70899
C -3.26408 -4.56952 2.26188
C -3.36658 -6.02376 2.66595
C -2.76261 -7.06348 1.7078
C -1.9673 -6.5228 0.54022
O -1.496 -7.55614 -0.21839
C -0.07228 -7.54198 -0.36702
C 0.52074 -8.85798 0.12552
O 1.76419 -8.61204 0.80096
C 2.24733 -7.34958 0.69178
C 3.05957 -7.13695 -0.56349
C 2.87469 -5.76569 -1.22962
C 2.20797 -4.70273 -0.37973
O 1.68161 -3.68379 -0.80314
O -2.01294 -4.17234 1.88619
O 2.67916 -4.57274 0.88873
O 2.49723 -6.77016 1.73462
C 2.32583 -3.58141 1.78237
C 4.5846 -7.13451 -0.32824
C 5.3047 -7.49224 -1.62802
C 5.05056 -6.24042 -2.44529
C 4.3536 -5.36546 -1.3963
O 4.92163 -5.77853 -0.17633
H 2.8236 -7.96383 -1.27267
H 2.32373 -5.81865 -2.19434
H 4.90257 -7.81495 0.49168
H 6.39115 -7.54618 -1.3892
H 4.9905 -8.44386 -2.10839
H 6.03279 -5.80712 -2.73695
H 4.41129 -6.38059 -3.34394
H 4.46898 -4.28728 -1.64583
O -2.35221 -5.54931 -0.08982
C -1.62195 -2.88417 1.56126
C -2.59272 -6.28657 3.9643
C -3.14738 -7.52798 4.65751
C -2.64636 -8.60769 3.72709
C -1.83757 -7.76368 2.73472
O -1.33613 -6.70942 3.51584
H -4.45019 -6.21255 2.83988
H -3.54074 -7.74421 1.29487
H -0.85609 -2.53993 2.28504
H -2.59801 -5.42036 4.66246
H -2.6238 -7.62761 5.63534
H -4.24587 -7.51761 4.82553
H -1.96805 -9.27533 4.30455
H -3.43271 -9.21055 3.22356
H -1.07339 -8.39368 2.2969
H -2.46673 -2.16291 1.56943
H -1.18101 -2.88626 0.54309
H 2.87284 -3.73945 2.73403
H 1.23727 -3.63215 1.98693
H 2.59248 -2.58116 1.37904
H -0.13343 -9.3809 0.83222
H 0.64283 -9.57918 -0.71035
H 0.2517 -6.59743 0.1201
H 0.20542 -7.40143 -1.43368
$end

$opt
CONSTRAINT
tors           1           2           3           4    +161.053
tors           3           4           5           6    -180.000
tors           4           5           6           7    -123.158
tors           5           6           7           8    +123.158
tors           6           7           8           9    -142.105
tors           7           8           9          10      -9.474
tors           8           9          10          11     -85.263
tors           9          10          11          12    +142.105
tors          11          12          13          14    -161.053
ENDCONSTRAINT
$end

$rem
JOBTYPE                   OPT
METHOD                    B3LYP
DFT_D                     d3_op
BASIS                     STO-3G
GEOM_OPT_MAX_CYCLES       100
GEOM_OPT_TOL_GRADIENT     300
GEOM_OPT_TOL_DISPLACEMENT 1200
GEOM_OPT_TOL_ENERGY       100
SYMMETRY                  False
THRESH                    12
SCF_CONVERGENCE           8
MAX_SUB_FILE_NUM          128
MEM_STATIC                400
MEM_TOTAL                 4000
$end
--------------------------------------------------------------

   15   -1510.0343294831      8.14E-09 Convergence criterion met
 Total energy in the final basis set = -1510.03432948
   14   -1510.1164965645      5.92E-09 Convergence criterion met
 Total energy in the final basis set = -1510.11649656
   14   -1510.1626402851      9.55E-09 Convergence criterion met
 Total energy in the final basis set = -1510.16264029
   14   -1510.1888333694      5.96E-09 Convergence criterion met
 Total energy in the final basis set = -1510.18883337
   14   -1510.2019698326      6.77E-09 Convergence criterion met
 Total energy in the final basis set = -1510.20196983
   13   -1510.2090428064      8.74E-09 Convergence criterion met
 Total energy in the final basis set = -1510.20904281
   13   -1510.2136869311      6.84E-09 Convergence criterion met
 Total energy in the final basis set = -1510.21368693
   13   -1510.2166716654      4.01E-09 Convergence criterion met
   11   -1510.2317210967      6.10E-09 Convergence criterion met
 Total energy in the final basis set = -1510.23172110
   11   -1510.2317287629      3.44E-09 Convergence criterion met
 Total energy in the final basis set = -1510.23172876
   11   -1510.2317341065      6.04E-09 Convergence criterion met
 Total energy in the final basis set = -1510.23173411
   10   -1510.2317358522      9.24E-09 Convergence criterion met
 Total energy in the final basis set = -1510.23173585
    9   -1510.2317381745      6.71E-09 Convergence criterion met
 Total energy in the final basis set = -1510.23173817
    9   -1510.2317393644      2.56E-09 Convergence criterion met
 Total energy in the final basis set = -1510.23173936

             Standard Nuclear Orientation (Angstroms)
    I     Atom           X                Y                Z
 ----------------------------------------------------------------
    1      O       4.5868847172    -2.7390858591     0.6060124313
    2      C       3.8454096170    -1.7505150437     0.4070329342
    3      C       4.3348002232    -0.3262964516    -0.0409459300
    4      C       3.2769005076     0.6581971152    -0.6778300247
    5      C       2.0561819002     0.0315407065    -1.4440333499
    6      O       1.2199516706     1.1008424398    -1.9422989114
    7      C      -0.1892136310     1.0355373661    -1.4829931482
    8      C      -0.4966649273     2.4115449063    -0.7563651538
    9      O      -1.3532145405     2.3865103405     0.4533149367
   10      C      -1.9854074298     1.0957236544     0.6931800476
   11      C      -3.3349993070     0.9689751937    -0.1265232541
   12      C      -3.7497589273    -0.4090967063    -0.7872503020
   13      C      -2.7129374673    -1.5457226719    -1.0831068530
   14      O      -2.9394603291    -2.4729922531    -1.8957056233
   15      O       2.4825089121    -1.6894546855     0.8360208165
   16      O      -1.4899258654    -1.4173080150    -0.3542846540
   17      O      -1.6309949484     0.3752627269     1.6464476524
   18      C      -0.5942206820    -2.5640577741    -0.6632095961
   19      C      -4.5096909787     1.1188067852     0.9439626585
   20      C      -5.8883505382     1.3413215780     0.2024794529
   21      C      -6.2365102091    -0.1249989762    -0.2500770061
   22      C      -4.9264366495    -0.8839078773     0.1917876738
   23      O      -4.6020977523    -0.2540144296     1.4891836495
   24      H      -3.3532318826     1.7798605083    -0.8753473517
   25      H      -4.1960406670    -0.1917567420    -1.7753819847
   26      H      -4.2929846021     1.8432622338     1.7528677093
   27      H      -6.6414951418     1.7438930499     0.8981847557
   28      H      -5.7882153306     2.0349004226    -0.6478617806
   29      H      -7.1069715318    -0.5185548882     0.2990709581
   30      H      -6.4305453495    -0.2089361279    -1.3313050042
   31      H      -5.0238446724    -1.9815859528     0.3001481108
   32      O       1.8285494521    -1.1817618594    -1.6436704777
   33      C       2.1137328498    -2.9558749808     1.5079791373
   34      C       4.6296630371     0.4596780313     1.3164957777
   35      C       5.2811448975     1.8687744906     1.0094755718
   36      C       4.0163213614     2.7191017304     0.6121957058
   37      C       2.9178781377     1.5878447938     0.5741437945
   38      O       3.2557181240     0.7825113712     1.7661131339
   39      H       5.2331565171    -0.4429576521    -0.6719586292
   40      H       3.7926280135     1.2892237096    -1.4268286985
   41      H       1.1287120763    -2.7761910960     1.9757376175
   42      H       5.1574433103    -0.1436300067     2.0806073053
   43      H       5.7777589525     2.2700624462     1.9068758159
   44      H       6.0211743116     1.8059435362     0.1954081504
   45      H       3.7709376519     3.4598421714     1.3902875549
   46      H       4.1292773055     3.2381034753    -0.3529338619
   47      H       1.8684685929     1.9304708201     0.6254354824
   48      H       2.8534933542    -3.2331797176     2.2859277482
   49      H       2.0357402106    -3.7925572857     0.7837965529
   50      H       0.3760558064    -2.1553619626    -1.0251239512
   51      H      -1.0743259958    -3.1902278506    -1.4404894455
   52      H      -0.4490206202    -3.1518266084     0.2616090242
   53      H       0.4745100619     2.8590940368    -0.4521353380
   54      H      -0.9549064057     3.1087055827    -1.4945702071
   55      H      -0.4071787500     0.1574123108    -0.8282443498
   56      H      -0.8442707541     0.9410570511    -2.3763450546
 ----------------------------------------------------------------

    8   -1510.2317398481      5.71E-09 Convergence criterion met
 Total energy in the final basis set = -1510.23173985
 Final energy is   -1510.23173984807
 **  OPTIMIZATION CONVERGED  **

                    Orbital Energies (a.u.)
 --------------------------------------------------------------

 Alpha MOs
 -- Occupied --
-18.940 -18.930 -18.916 -18.907 -18.904 -18.899 -18.895 -18.892
-18.876 -18.866 -10.118 -10.108 -10.104 -10.094 -10.072 -10.070
-10.066 -10.065 -10.064 -10.063 -10.057 -10.043 -10.042 -10.040
-10.040 -10.040 -10.025 -10.024 -10.024 -10.023  -1.016  -1.014
 -1.005  -1.003  -0.976  -0.974  -0.947  -0.938  -0.933  -0.928
 -0.766  -0.766  -0.726  -0.725  -0.714  -0.709  -0.699  -0.658
 -0.652  -0.619  -0.605  -0.588  -0.549  -0.547  -0.542  -0.540
 -0.518  -0.516  -0.484  -0.472  -0.471  -0.457  -0.451  -0.442
 -0.441  -0.436  -0.434  -0.422  -0.414  -0.411  -0.405  -0.398
 -0.392  -0.385  -0.375  -0.370  -0.366  -0.360  -0.352  -0.351
 -0.344  -0.339  -0.338  -0.335  -0.332  -0.329  -0.322  -0.318
 -0.316  -0.312  -0.310  -0.306  -0.299  -0.298  -0.286  -0.274
 -0.273  -0.257  -0.254  -0.242  -0.239  -0.236  -0.230  -0.179
 -0.175  -0.169  -0.165  -0.161  -0.156  -0.153  -0.148  -0.147
 -0.144

          Ground-State Mulliken Net Atomic Charges

     Atom                 Charge (a.u.)
  ----------------------------------------
      1 O                    -0.218413
      2 C                     0.210966
      3 C                    -0.078145
      4 C                    -0.080209
      5 C                     0.229053
      6 O                    -0.194999
      7 C                    -0.062958
      8 C                    -0.051065
      9 O                    -0.199732
     10 C                     0.221676
     11 C                    -0.083311
     12 C                    -0.082323
     13 C                     0.207343
     14 O                    -0.215590
     15 O                    -0.164094
     16 O                    -0.170501
     17 O                    -0.166536
     18 C                    -0.152629
     19 C                     0.026401
     20 C                    -0.145093
     21 C                    -0.142069
     22 C                     0.027244
     23 O                    -0.184019
     24 H                     0.079341
     25 H                     0.085303
     26 H                     0.085644
     27 H                     0.079799
     28 H                     0.074092
     29 H                     0.079559
     30 H                     0.075345
     31 H                     0.086622
     32 O                    -0.189721
     33 C                    -0.126919
     34 C                     0.024869
     35 C                    -0.145304
     36 C                    -0.141609
     37 C                     0.026468
     38 O                    -0.184568
     39 H                     0.085766
     40 H                     0.086184
     41 H                     0.093029
     42 H                     0.084697
     43 H                     0.079611
     44 H                     0.074456
     45 H                     0.079370
     46 H                     0.073982
     47 H                     0.086860
     48 H                     0.090479
     49 H                     0.086600
     50 H                     0.109684
     51 H                     0.098763
     52 H                     0.081995
     53 H                     0.085781
     54 H                     0.076182
     55 H                     0.107851
     56 H                     0.078795
  ----------------------------------------
  Sum of atomic charges =    -0.000000

                    Cartesian Multipole Moments
 -----------------------------------------------------------------
    Charge (ESU x 10^10)
                -0.0000
    Dipole Moment (Debye)
         X      -0.6178      Y       2.8198      Z      -1.8015
       Tot       3.4027
    Quadrupole Moments (Debye-Ang)
        XX    -145.8104     XY       3.9831     YY    -160.9471
        XZ       3.7037     YZ      -6.4086     ZZ    -167.2549

 Total job time:  158.90s(wall), 7580.44s(cpu)
        *  Thank you very much for using Q-Chem.  Have a nice day.  *
