 Q-Chem 5.0, Q-Chem, Inc., Pleasanton, CA (2017)
 Q-Chem 5.0.1 for Intel X86 EM64T Linux

User input:
--------------------------------------------------------------
$molecule
0  1
O -3.94934 -3.66094 2.70899
C -3.26408 -4.56952 2.26188
C -3.36658 -6.02376 2.66595
C -4.25719 -6.93189 1.80226
C -4.80429 -6.32601 0.52881
O -4.57231 -7.16695 -0.52211
C -4.23162 -8.49639 -0.11495
C -5.23866 -9.00633 0.9107
O -6.48427 -9.31121 0.26388
C -6.39482 -10.11666 -0.82351
C -6.07019 -11.54854 -0.46997
C -5.71748 -12.44632 -1.66489
C -5.39393 -11.72707 -2.95899
O -4.73342 -12.18667 -3.87935
O -2.43696 -4.30689 1.21557
O -5.60037 -10.39817 -3.14908
O -7.30672 -9.94265 -1.6234
C -5.2604 -9.65372 -4.26452
C -5.06066 -12.17451 0.55592
C -5.42486 -13.6415 0.89371
C -4.86796 -14.36122 -0.30097
C -4.45448 -13.17294 -1.14484
O -3.89023 -12.29327 -0.201
H -7.05216 -11.87451 -0.05729
H -6.51003 -13.1818 -1.93031
H -4.99732 -11.76228 1.57761
H -4.87875 -14.0088 1.7927
H -6.51686 -13.77195 1.05503
H -3.93047 -14.88516 -0.00398
H -5.55765 -15.08493 -0.78614
H -3.76663 -13.51971 -1.94706
O -5.41852 -5.27545 0.42888
C -2.2635 -3.05901 0.65518
C -2.01654 -6.6255 3.02338
C -2.152 -7.44127 4.29523
C -3.16307 -8.44491 3.81836
C -3.14334 -8.1247 2.2916
O -1.88057 -7.5801 2.04877
H -3.91218 -5.87695 3.63521
H -5.19456 -6.96311 2.40625
H -1.87068 -2.34979 1.41475
H -1.17734 -5.89852 3.0935
H -1.16631 -7.93428 4.45847
H -2.45059 -6.88981 5.21286
H -2.78566 -9.45698 4.09334
H -4.19284 -8.30195 4.21165
H -3.10049 -9.16565 1.94535
H -3.22837 -2.68309 0.25253
H -1.53386 -3.13249 -0.17708
H -5.56886 -8.60039 -4.10457
H -5.78427 -10.04791 -5.16112
H -4.1617 -9.68169 -4.42521
H -4.76485 -9.9105 1.13909
H -5.54413 -8.83808 1.95636
H -3.13318 -8.54496 0.00109
H -4.23388 -9.12147 -1.0287
$end

$opt
CONSTRAINT
tors           1           2           3           4     +94.367
tors           3           4           5           6    +130.438
tors           4           5           6           7     +16.012
tors           5           6           7           8     +49.605
tors           6           7           8           9     +73.220
tors           7           8           9          10     +51.302
tors           8           9          10          11     +71.916
tors           9          10          11          12    -169.832
tors          11          12          13          14    +157.387
ENDCONSTRAINT
$end

$rem
JOBTYPE                   OPT
METHOD                    B3LYP
DFT_D                     d3_op
BASIS                     STO-3G
GEOM_OPT_MAX_CYCLES       100
GEOM_OPT_TOL_GRADIENT     300
GEOM_OPT_TOL_DISPLACEMENT 1200
GEOM_OPT_TOL_ENERGY       100
SYMMETRY                  False
THRESH                    12
SCF_CONVERGENCE           8
MAX_SUB_FILE_NUM          128
MEM_STATIC                400
MEM_TOTAL                 4000
$end
--------------------------------------------------------------

   16   -1509.8911321670      4.90E-09 Convergence criterion met
 Total energy in the final basis set = -1509.89113217
   14   -1509.9941566253      5.99E-09 Convergence criterion met
 Total energy in the final basis set = -1509.99415663
   14   -1510.0665922498      5.51E-09 Convergence criterion met
 Total energy in the final basis set = -1510.06659225
   13   -1510.1153635247      8.75E-09 Convergence criterion met
 Total energy in the final basis set = -1510.11536352
   14   -1510.1488368577      5.63E-09 Convergence criterion met
 Total energy in the final basis set = -1510.14883686
   14   -1510.1703747675      4.28E-09 Convergence criterion met
 Total energy in the final basis set = -1510.17037477
   13   -1510.1847639903      7.54E-09 Convergence criterion met
 Total energy in the final basis set = -1510.18476399
   13   -1510.1948091271      6.31E-09 Convergence criterion met
   10   -1510.2194306488      9.14E-09 Convergence criterion met
 Total energy in the final basis set = -1510.21943065
    9   -1510.2194346754      7.56E-09 Convergence criterion met
 Total energy in the final basis set = -1510.21943468
    9   -1510.2194380141      7.79E-09 Convergence criterion met
 Total energy in the final basis set = -1510.21943801
    9   -1510.2194411059      8.01E-09 Convergence criterion met
 Total energy in the final basis set = -1510.21944111
    9   -1510.2194433817      7.21E-09 Convergence criterion met
 Total energy in the final basis set = -1510.21944338
    9   -1510.2194448498      4.13E-09 Convergence criterion met
 Total energy in the final basis set = -1510.21944485

             Standard Nuclear Orientation (Angstroms)
    I     Atom           X                Y                Z
 ----------------------------------------------------------------
    1      O      -5.6659097773    -1.4457740053     1.1411523903
    2      C      -5.0047113810    -0.8321293180     0.2758198293
    3      C      -4.4114295090     0.6158021576     0.4041772653
    4      C      -2.8898436291     0.7056298070     0.9016592640
    5      C      -2.2259596008    -0.7509376338     0.7934580194
    6      O      -0.9782394825    -1.1044082638     0.1874519018
    7      C       0.0496714708    -0.1004525322    -0.1366349968
    8      C       0.4348318697     0.9092058377     1.0203365102
    9      O       1.2450560798     0.2886084810     2.0897583131
   10      C       2.3980286671    -0.4199513074     1.5615696603
   11      C       3.6239397754     0.3974656284     0.9705818322
   12      C       4.6554689834    -0.5319156226     0.2184828877
   13      C       4.0438169145    -1.5839262708    -0.8004640388
   14      O       4.6839380385    -2.0926852191    -1.7469050869
   15      O      -4.6779254857    -1.3546625097    -1.0181529378
   16      O       2.6263719153    -1.7600178079    -0.6587122847
   17      O       2.5524368990    -1.6071496585     1.9232659512
   18      C       2.1314685115    -2.7040763735    -1.6902434296
   19      C       3.5737484496     1.6522677784    -0.0223809615
   20      C       4.7481791798     2.6025480488     0.4340221510
   21      C       5.9933450051     1.7176236082     0.0512166739
   22      C       5.3108192368     0.5413511165    -0.7510290492
   23      O       4.0737743807     1.1449305596    -1.3204249493
   24      H       4.1206735355     0.7514125009     1.8956904418
   25      H       5.3657006847    -1.0301435292     0.9023526661
   26      H       2.5974090228     2.1493035693    -0.1575940341
   27      H       4.7275438110     3.5365658552    -0.1504492985
   28      H       4.7061642403     2.8517296392     1.5064072032
   29      H       6.7031407961     2.2651684442    -0.5882919844
   30      H       6.5333117486     1.3443476151     0.9364610670
   31      H       5.9238779060     0.0890071178    -1.5544212561
   32      O      -2.8720297461    -1.7396499046     1.2180682101
   33      C      -5.1329497436    -2.7591885750    -1.1200431347
   34      C      -4.3836430782     1.4647834880    -0.9361109111
   35      C      -4.5341174482     2.9764139011    -0.5196141666
   36      C      -3.1657963781     3.1932922429     0.2218732734
   37      C      -2.4046623866     1.8402217659    -0.1073364788
   38      O      -2.9784056739     1.3930010221    -1.3950662583
   39      H      -5.0478274562     1.1253188446     1.1504527465
   40      H      -2.8385149899     1.0232265393     1.9594545050
   41      H      -6.2291422264    -2.8476623178    -0.9750712143
   42      H      -5.0703263874     1.1061454805    -1.7265682742
   43      H      -4.6128270026     3.6158629978    -1.4135026287
   44      H      -5.4087799064     3.1546041169     0.1258717827
   45      H      -2.6119727522     4.0545046940    -0.1833363194
   46      H      -3.2924422958     3.3363476698     1.3071937020
   47      H      -1.3206631704     1.9837892473    -0.2133693279
   48      H      -4.6238879072    -3.3994992186    -0.3706517670
   49      H      -4.8651482666    -3.0945696763    -2.1389645509
   50      H       1.0604259458    -2.8620037980    -1.4651840026
   51      H       2.6701096614    -3.6712837452    -1.6455227596
   52      H       2.2419612977    -2.2816024129    -2.7099384732
   53      H       0.9380874893     1.7864996463     0.5602227630
   54      H      -0.4638359863     1.2743402817     1.5509237273
   55      H      -0.2393996812     0.4757957221    -1.0428997192
   56      H       0.9594915688    -0.6970741123    -0.3875870869
 ----------------------------------------------------------------

    9   -1510.2194456596      3.83E-09 Convergence criterion met
 Total energy in the final basis set = -1510.21944566
 Final energy is   -1510.21944565956
 **  OPTIMIZATION CONVERGED  **

                    Orbital Energies (a.u.)
 --------------------------------------------------------------

 Alpha MOs
 -- Occupied --
-18.945 -18.935 -18.921 -18.920 -18.896 -18.893 -18.892 -18.879
-18.872 -18.861 -10.109 -10.106 -10.102 -10.090 -10.082 -10.073
-10.072 -10.066 -10.066 -10.066 -10.062 -10.053 -10.047 -10.045
-10.044 -10.033 -10.030 -10.029 -10.026 -10.023  -1.019  -1.010
 -1.005  -0.997  -0.980  -0.976  -0.944  -0.939  -0.931  -0.924
 -0.770  -0.764  -0.731  -0.723  -0.717  -0.710  -0.706  -0.665
 -0.652  -0.622  -0.605  -0.594  -0.556  -0.551  -0.546  -0.542
 -0.525  -0.512  -0.493  -0.484  -0.468  -0.458  -0.454  -0.446
 -0.439  -0.436  -0.429  -0.426  -0.419  -0.413  -0.407  -0.403
 -0.401  -0.400  -0.378  -0.370  -0.367  -0.366  -0.350  -0.345
 -0.342  -0.339  -0.336  -0.331  -0.329  -0.327  -0.321  -0.319
 -0.316  -0.313  -0.309  -0.308  -0.303  -0.294  -0.284  -0.279
 -0.274  -0.265  -0.247  -0.244  -0.240  -0.235  -0.232  -0.185
 -0.177  -0.166  -0.165  -0.159  -0.159  -0.154  -0.149  -0.143
 -0.139

          Ground-State Mulliken Net Atomic Charges

     Atom                 Charge (a.u.)
  ----------------------------------------
      1 O                    -0.211557
      2 C                     0.212579
      3 C                    -0.080673
      4 C                    -0.079301
      5 C                     0.210455
      6 O                    -0.166838
      7 C                    -0.060200
      8 C                    -0.053377
      9 O                    -0.182695
     10 C                     0.216505
     11 C                    -0.087764
     12 C                    -0.073453
     13 C                     0.215470
     14 O                    -0.212470
     15 O                    -0.173749
     16 O                    -0.169550
     17 O                    -0.179862
     18 C                    -0.127882
     19 C                     0.021540
     20 C                    -0.140908
     21 C                    -0.146313
     22 C                     0.022370
     23 O                    -0.193155
     24 H                     0.085563
     25 H                     0.090536
     26 H                     0.077833
     27 H                     0.078804
     28 H                     0.074769
     29 H                     0.080816
     30 H                     0.075985
     31 H                     0.092051
     32 O                    -0.199676
     33 C                    -0.128350
     34 C                     0.024905
     35 C                    -0.142187
     36 C                    -0.145891
     37 C                     0.016606
     38 O                    -0.191686
     39 H                     0.082161
     40 H                     0.086278
     41 H                     0.086239
     42 H                     0.089247
     43 H                     0.077855
     44 H                     0.075387
     45 H                     0.076487
     46 H                     0.073289
     47 H                     0.077950
     48 H                     0.094951
     49 H                     0.087669
     50 H                     0.098855
     51 H                     0.094427
     52 H                     0.090915
     53 H                     0.074770
     54 H                     0.090388
     55 H                     0.084527
     56 H                     0.109354
  ----------------------------------------
  Sum of atomic charges =     0.000000

                    Cartesian Multipole Moments
 -----------------------------------------------------------------
    Charge (ESU x 10^10)
                 0.0000
    Dipole Moment (Debye)
         X       1.7044      Y       4.6567      Z      -0.6891
       Tot       5.0064
    Quadrupole Moments (Debye-Ang)
        XX    -155.6209     XY      -1.0063     YY    -156.6807
        XZ      11.7419     YZ      10.8174     ZZ    -168.6029

 Total job time:  91.30s(wall), 4347.91s(cpu)
        *  Thank you very much for using Q-Chem.  Have a nice day.  *
