 Q-Chem 5.0, Q-Chem, Inc., Pleasanton, CA (2017)
 Q-Chem 5.0.1 for Intel X86 EM64T Linux

User input:
--------------------------------------------------------------
$molecule
0  1
O -5.6659097773 -1.4457740053 1.1411523903
C -5.004711381 -0.832129318 0.2758198293
C -4.411429509 0.6158021576 0.4041772653
C -2.8898436291 0.705629807 0.901659264
C -2.2259596008 -0.7509376338 0.7934580194
O -0.9782394825 -1.1044082638 0.1874519018
C 0.0496714708 -0.1004525322 -0.1366349968
C 0.4348318697 0.9092058377 1.0203365102
O 1.2450560798 0.288608481 2.0897583131
C 2.3980286671 -0.4199513074 1.5615696603
C 3.6239397754 0.3974656284 0.9705818322
C 4.6554689834 -0.5319156226 0.2184828877
C 4.0438169145 -1.5839262708 -0.8004640388
O 4.6839380385 -2.0926852191 -1.7469050869
O -4.6779254857 -1.3546625097 -1.0181529378
O 2.6263719153 -1.7600178079 -0.6587122847
O 2.552436899 -1.6071496585 1.9232659512
C 2.1314685115 -2.7040763735 -1.6902434296
C 3.5737484496 1.6522677784 -0.0223809615
C 4.7481791798 2.6025480488 0.434022151
C 5.9933450051 1.7176236082 0.0512166739
C 5.3108192368 0.5413511165 -0.7510290492
O 4.0737743807 1.1449305596 -1.3204249493
H 4.1206735355 0.7514125009 1.8956904418
H 5.3657006847 -1.0301435292 0.9023526661
H 2.5974090228 2.1493035693 -0.1575940341
H 4.727543811 3.5365658552 -0.1504492985
H 4.7061642403 2.8517296392 1.5064072032
H 6.7031407961 2.2651684442 -0.5882919844
H 6.5333117486 1.3443476151 0.936461067
H 5.923877906 0.0890071178 -1.5544212561
O -2.8720297461 -1.7396499046 1.2180682101
C -5.1329497436 -2.759188575 -1.1200431347
C -4.3836430782 1.464783488 -0.9361109111
C -4.5341174482 2.9764139011 -0.5196141666
C -3.1657963781 3.1932922429 0.2218732734
C -2.4046623866 1.8402217659 -0.1073364788
O -2.9784056739 1.3930010221 -1.3950662583
H -5.0478274562 1.1253188446 1.1504527465
H -2.8385149899 1.0232265393 1.959454505
H -6.2291422264 -2.8476623178 -0.9750712143
H -5.0703263874 1.1061454805 -1.7265682742
H -4.6128270026 3.6158629978 -1.4135026287
H -5.4087799064 3.1546041169 0.1258717827
H -2.6119727522 4.054504694 -0.1833363194
H -3.2924422958 3.3363476698 1.307193702
H -1.3206631704 1.9837892473 -0.2133693279
H -4.6238879072 -3.3994992186 -0.370651767
H -4.8651482666 -3.0945696763 -2.1389645509
H 1.0604259458 -2.862003798 -1.4651840026
H 2.6701096614 -3.6712837452 -1.6455227596
H 2.2419612977 -2.2816024129 -2.7099384732
H 0.9380874893 1.7864996463 0.560222763
H -0.4638359863 1.2743402817 1.5509237273
H -0.2393996812 0.4757957221 -1.0428997192
H 0.9594915688 -0.6970741123 -0.3875870869
$end

$rem
JOBTYPE                   OPT
METHOD                    B3LYP
DFT_D                     d3_op
BASIS                     STO-3G
GEOM_OPT_MAX_CYCLES       100
GEOM_OPT_TOL_GRADIENT     300
GEOM_OPT_TOL_DISPLACEMENT 1200
GEOM_OPT_TOL_ENERGY       100
SYMMETRY                  False
THRESH                    12
SCF_CONVERGENCE           8
MAX_SUB_FILE_NUM          128
MEM_STATIC                400
MEM_TOTAL                 4000
$end
--------------------------------------------------------------

   16   -1510.2196744097      5.90E-09 Convergence criterion met
 Total energy in the final basis set = -1510.21967441
   14   -1510.2236732311      8.16E-09 Convergence criterion met
 Total energy in the final basis set = -1510.22367323
   13   -1510.2270003955      9.14E-09 Convergence criterion met
 Total energy in the final basis set = -1510.22700040
   13   -1510.2298332926      8.85E-09 Convergence criterion met
 Total energy in the final basis set = -1510.22983329
   14   -1510.2317279607      1.71E-09 Convergence criterion met
 Total energy in the final basis set = -1510.23172796
   13   -1510.2337282578      6.40E-09 Convergence criterion met
 Total energy in the final basis set = -1510.23372826
   13   -1510.2362097890      6.57E-09 Convergence criterion met
 Total energy in the final basis set = -1510.23620979
   13   -1510.2384519482      4.05E-09 Convergence criterion met
   13   -1510.2595276261      3.43E-09 Convergence criterion met
 Total energy in the final basis set = -1510.25952763
   13   -1510.2597066501      1.70E-09 Convergence criterion met
 Total energy in the final basis set = -1510.25970665
   12   -1510.2596910464      4.93E-09 Convergence criterion met
 Total energy in the final basis set = -1510.25969105
   11   -1510.2597144643      4.50E-09 Convergence criterion met
 Total energy in the final basis set = -1510.25971446
   11   -1510.2597124033      6.96E-09 Convergence criterion met
 Total energy in the final basis set = -1510.25971240
   11   -1510.2597180017      3.16E-09 Convergence criterion met
 Total energy in the final basis set = -1510.25971800

             Standard Nuclear Orientation (Angstroms)
    I     Atom           X                Y                Z
 ----------------------------------------------------------------
    1      O      -4.6062940217    -1.6857630450     1.2305219006
    2      C      -4.4658540443    -0.9775214243     0.2093282142
    3      C      -4.0352590430     0.5405634705     0.1900133571
    4      C      -2.4829362232     0.7883044765    -0.0207187959
    5      C      -1.6763416707    -0.5508142375    -0.2133488849
    6      O      -0.2528973473    -0.5086744271    -0.3504249111
    7      C       0.4330999631     0.7259910796     0.0811948294
    8      C       0.6200815437     0.7842375371     1.6456386193
    9      O       1.2828266847    -0.3910630575     2.2373660288
   10      C       2.6776341502    -0.6548486984     2.0237699409
   11      C       3.7849614557     0.2847574666     1.3365843436
   12      C       4.4572295506    -0.4976631758     0.1177047172
   13      C       3.7485967468    -1.8487740338    -0.2406747803
   14      O       4.2886294566    -2.9540710203    -0.4569711635
   15      O      -4.8435840321    -1.3774847739    -1.1150775783
   16      O       2.3458853063    -1.5939689096    -0.3020933552
   17      O       3.0777720870    -1.7354817604     2.5183181080
   18      C       1.5821321105    -2.8444158080    -0.5180389350
   19      C       3.4944931163     1.6808961075     0.6446862499
   20      C       4.8753743812     2.4205728764     0.4201603964
   21      C       5.4428554397     1.6633205595    -0.8363043247
   22      C       4.3292654125     0.5712722768    -1.0513329011
   23      O       3.0825343326     1.3105104885    -0.7316874345
   24      H       4.5366198942     0.4291004375     2.1347601439
   25      H       5.5177094679    -0.7226720891     0.3249050263
   26      H       2.7300756052     2.3162006310     1.1222091956
   27      H       4.7057685091     3.4880526667     0.2076449297
   28      H       5.5329228259     2.3357046124     1.2996483411
   29      H       5.5077054663     2.3278540640    -1.7127095965
   30      H       6.4327654046     1.2155042664    -0.6555083386
   31      H       4.2698337807     0.1424401550    -2.0704976350
   32      O      -2.2133787515    -1.6763442908    -0.3452807452
   33      C      -5.1982216787    -2.8130896525    -1.1169617286
   34      C      -4.6346179742     1.3419319429    -1.0409485372
   35      C      -4.5089085098     2.8903758750    -0.7464785505
   36      C      -2.9687628532     3.1217648612    -0.9716988457
   37      C      -2.4988894181     1.6635349822    -1.3551833602
   38      O      -3.6400836073     1.1150325238    -2.1154664043
   39      H      -4.3566781178     0.9768624627     1.1523846211
   40      H      -2.0696863031     1.3603605800     0.8261067717
   41      H      -6.0071024509    -3.0384582459    -0.3919334027
   42      H      -5.6364459056     1.0015925702    -1.3653229414
   43      H      -5.1119417854     3.4683150576    -1.4647195996
   44      H      -4.8342729904     3.1465681811     0.2744716031
   45      H      -2.7810766102     3.8180645174    -1.8044971766
   46      H      -2.4580018326     3.5012231670    -0.0721006099
   47      H      -1.5744960175     1.6063704861    -1.9619618714
   48      H      -4.3177170422    -3.4417281604    -0.8713877691
   49      H      -5.5422483931    -3.0429706626    -2.1422340314
   50      H       0.5261792805    -2.5156276828    -0.5595086795
   51      H       1.7338056753    -3.5516319159     0.3222600242
   52      H       1.8750851375    -3.3394110304    -1.4657067688
   53      H       1.1211980967     1.7361019296     1.9194069166
   54      H      -0.3753145715     0.7822845618     2.1386185132
   55      H      -0.1014219023     1.6443605896    -0.2344002186
   56      H       1.4394354980     0.7136294239    -0.4151191429
 ----------------------------------------------------------------

   11   -1510.2597187721      2.58E-09 Convergence criterion met
 Total energy in the final basis set = -1510.25971877
 Final energy is   -1510.25971877213
 **  OPTIMIZATION CONVERGED  **

                    Orbital Energies (a.u.)
 --------------------------------------------------------------

 Alpha MOs
 -- Occupied --
-18.938 -18.935 -18.932 -18.920 -18.914 -18.891 -18.884 -18.876
-18.864 -18.850 -10.106 -10.104 -10.099 -10.085 -10.083 -10.080
-10.078 -10.066 -10.063 -10.059 -10.048 -10.048 -10.047 -10.044
-10.042 -10.037 -10.035 -10.033 -10.026 -10.023  -1.015  -1.010
 -1.001  -0.994  -0.991  -0.973  -0.942  -0.935  -0.931  -0.917
 -0.776  -0.764  -0.733  -0.724  -0.722  -0.714  -0.708  -0.653
 -0.647  -0.616  -0.604  -0.595  -0.562  -0.554  -0.548  -0.540
 -0.526  -0.514  -0.491  -0.481  -0.470  -0.463  -0.453  -0.450
 -0.439  -0.437  -0.426  -0.419  -0.413  -0.408  -0.406  -0.404
 -0.399  -0.395  -0.377  -0.368  -0.364  -0.362  -0.350  -0.348
 -0.343  -0.337  -0.335  -0.332  -0.329  -0.325  -0.323  -0.323
 -0.318  -0.315  -0.311  -0.301  -0.298  -0.294  -0.284  -0.280
 -0.271  -0.258  -0.254  -0.241  -0.238  -0.236  -0.233  -0.185
 -0.176  -0.172  -0.163  -0.157  -0.154  -0.151  -0.146  -0.143
 -0.133

          Ground-State Mulliken Net Atomic Charges

     Atom                 Charge (a.u.)
  ----------------------------------------
      1 O                    -0.223783
      2 C                     0.215300
      3 C                    -0.080623
      4 C                    -0.084825
      5 C                     0.213353
      6 O                    -0.168286
      7 C                    -0.069903
      8 C                    -0.048233
      9 O                    -0.165966
     10 C                     0.211939
     11 C                    -0.081406
     12 C                    -0.080114
     13 C                     0.211890
     14 O                    -0.206542
     15 O                    -0.170826
     16 O                    -0.172362
     17 O                    -0.210138
     18 C                    -0.131766
     19 C                     0.020715
     20 C                    -0.143183
     21 C                    -0.142247
     22 C                     0.027214
     23 O                    -0.187570
     24 H                     0.087351
     25 H                     0.088449
     26 H                     0.080575
     27 H                     0.080014
     28 H                     0.077787
     29 H                     0.081074
     30 H                     0.079529
     31 H                     0.089544
     32 O                    -0.194229
     33 C                    -0.127186
     34 C                     0.026718
     35 C                    -0.144489
     36 C                    -0.144327
     37 C                     0.022172
     38 O                    -0.184439
     39 H                     0.081375
     40 H                     0.077015
     41 H                     0.085472
     42 H                     0.089826
     43 H                     0.078499
     44 H                     0.073622
     45 H                     0.078444
     46 H                     0.069733
     47 H                     0.082467
     48 H                     0.092767
     49 H                     0.086268
     50 H                     0.112048
     51 H                     0.091735
     52 H                     0.085492
     53 H                     0.076763
     54 H                     0.086247
     55 H                     0.074593
     56 H                     0.126453
  ----------------------------------------
  Sum of atomic charges =     0.000000

                    Cartesian Multipole Moments
 -----------------------------------------------------------------
    Charge (ESU x 10^10)
                 0.0000
    Dipole Moment (Debye)
         X       1.6810      Y       6.4757      Z      -0.5436
       Tot       6.7124
    Quadrupole Moments (Debye-Ang)
        XX    -151.8922     XY       8.6185     YY    -160.4312
        XZ      -1.6077     YZ      10.2354     ZZ    -167.8974

 Total job time:  100.84s(wall), 4801.80s(cpu)
        *  Thank you very much for using Q-Chem.  Have a nice day.  *
