 Q-Chem 5.0, Q-Chem, Inc., Pleasanton, CA (2017)
 Q-Chem 5.0.1 for Intel X86 EM64T Linux

User input:
--------------------------------------------------------------
$molecule
0  1
O -6.140260706 -0.343067576 1.1042380549
C -5.1565567899 0.1037175366 0.4738382367
C -4.7476801758 -0.3422728588 -0.9861785158
C -3.271737212 -0.0237355635 -1.4524117376
C -2.6048237581 1.2954124427 -0.8953172821
O -1.1956592011 1.0809905862 -0.583894467
C -1.0146525304 1.1932897466 0.8832658628
C 0.3127305854 0.4516539887 1.2472675577
O 1.4269328569 1.0252103749 0.458808315
C 2.5682998276 1.2581465222 1.299057576
C 3.8528375209 1.3678973567 0.4040196656
C 4.8138139864 0.1028105309 0.4061662348
C 4.1746381231 -1.2768088323 0.8251083065
O 4.4637127959 -2.3905675367 0.3357706536
O -4.1702289717 0.9474685125 1.0741360249
O 3.1874756232 -1.0980722101 1.8412192732
O 2.5012499149 1.44037462 2.5347790809
C 2.5559797113 -2.394189708 2.179033891
C 3.604285122 1.5612080666 -1.1562238947
C 4.845864243 2.3451016054 -1.7338515708
C 5.9638328703 1.2417842774 -1.6267948327
C 5.1251095672 -0.0068234646 -1.1456570744
O 3.7785432917 0.2067613645 -1.7300687415
H 4.4237868654 2.2278352826 0.8005431031
H 5.7166765684 0.2827153526 1.0191105859
H 2.6089611428 1.9689329365 -1.4164699316
H 4.6621755583 2.6302378226 -2.7821709058
H 5.081000638 3.2527301527 -1.155244418
H 6.4336597243 1.0407811885 -2.602376962
H 6.7516564978 1.5094597273 -0.904389976
H 5.5216798802 -0.9982929739 -1.4397386387
O -3.1351942357 2.4245201506 -0.8964451976
C -4.5563551878 1.2677004606 2.4676796822
C -4.6362656873 -1.9279141336 -0.8802061009
C -4.3222185003 -2.5740531859 -2.2881272753
C -2.7725347109 -2.3215294675 -2.4124171622
C -2.5354806252 -1.4002490316 -1.1562622346
O -3.3666870379 -2.0586886062 -0.1197069514
H -5.5079053159 0.0033844214 -1.7097521429
H -3.2995389885 0.1239151108 -2.5497857997
H -4.6176066076 0.3526619597 3.091701345
H -5.4746631317 -2.389242476 -0.3223121486
H -4.564371289 -3.6484524845 -2.2842586846
H -4.8949833286 -2.0880159698 -3.0945175465
H -2.2040038647 -3.2603039354 -2.3121929896
H -2.4887966854 -1.8335156281 -3.3583763972
H -1.4868112531 -1.2860173672 -0.8206847721
H -5.5332229334 1.7902443686 2.5093392734
H -3.7634853412 1.933003087 2.8560826427
H 1.7797217883 -2.1644186934 2.9318647568
H 3.2906577263 -3.1056723603 2.6080867233
H 2.0889024556 -2.8631804269 1.2890323421
H 0.5304278058 0.5643627369 2.3324523056
H 0.223831499 -0.6270903811 0.9941250359
H -1.8619556881 0.7187404435 1.4270401751
H -0.9529281082 2.2601574684 1.1986130275
$end

$rem
JOBTYPE                   OPT
METHOD                    B3LYP
DFT_D                     d3_op
BASIS                     STO-3G
GEOM_OPT_MAX_CYCLES       100
GEOM_OPT_TOL_GRADIENT     300
GEOM_OPT_TOL_DISPLACEMENT 1200
GEOM_OPT_TOL_ENERGY       100
SYMMETRY                  False
THRESH                    12
SCF_CONVERGENCE           8
MAX_SUB_FILE_NUM          128
MEM_STATIC                400
MEM_TOTAL                 4000
$end
--------------------------------------------------------------

   16   -1510.2501516438      6.18E-09 Convergence criterion met
 Total energy in the final basis set = -1510.25015164
   13   -1510.2543106261      3.01E-09 Convergence criterion met
 Total energy in the final basis set = -1510.25431063
   13   -1510.2583379514      5.28E-09 Convergence criterion met
 Total energy in the final basis set = -1510.25833795
   13   -1510.2623961095      6.07E-09 Convergence criterion met
 Total energy in the final basis set = -1510.26239611
   13   -1510.2664230744      7.25E-09 Convergence criterion met
 Total energy in the final basis set = -1510.26642307
   14   -1510.2702262496      5.39E-09 Convergence criterion met
 Total energy in the final basis set = -1510.27022625
   14   -1510.2735717110      6.68E-09 Convergence criterion met
 Total energy in the final basis set = -1510.27357171
   14   -1510.2759220762      6.53E-09 Convergence criterion met
   11   -1510.2921326152      8.16E-09 Convergence criterion met
 Total energy in the final basis set = -1510.29213262
   11   -1510.2921552665      7.97E-09 Convergence criterion met
 Total energy in the final basis set = -1510.29215527
   12   -1510.2921661031      3.83E-09 Convergence criterion met
 Total energy in the final basis set = -1510.29216610
   12   -1510.2921737897      2.82E-09 Convergence criterion met
 Total energy in the final basis set = -1510.29217379
   11   -1510.2921809825      8.02E-09 Convergence criterion met
 Total energy in the final basis set = -1510.29218098
   11   -1510.2921853477      7.59E-09 Convergence criterion met
 Total energy in the final basis set = -1510.29218535

             Standard Nuclear Orientation (Angstroms)
    I     Atom           X                Y                Z
 ----------------------------------------------------------------
    1      O      -5.7146154757     0.4501324975    -0.4591523252
    2      C      -4.5282127826     0.1144093124    -0.2524352386
    3      C      -3.6768215105    -0.8979597786    -1.0830681950
    4      C      -2.2424984534    -0.3646823469    -1.5188645426
    5      C      -1.9224695439     1.0617118573    -0.9346110897
    6      O      -1.0002535182     0.9377465105     0.1497903660
    7      C      -0.6951740998     2.2700524075     0.7221789729
    8      C       0.4570868719     2.0203091415     1.7544597250
    9      O       1.4825429052     1.1459297553     1.1435111003
   10      C       2.3579501284     1.8878267856     0.2854251125
   11      C       3.1943765309     0.8490470910    -0.5350142270
   12      C       3.6706964938    -0.4018644854     0.3140792898
   13      C       3.4194300262    -0.2619944715     1.8587568159
   14      O       2.8792905812    -1.0907519774     2.6197321624
   15      O      -3.7335526881     0.6123689160     0.8323392841
   16      O       4.0001246989     0.9799210903     2.2866996500
   17      O       2.3683488426     3.1331195941     0.1851381336
   18      C       3.7348484289     1.1898257382     3.7268029048
   19      C       2.2379387865     0.1304302627    -1.5861143805
   20      C       3.1149591215    -0.7275741936    -2.5819903327
   21      C       3.4629173880    -1.9802310775    -1.6920027349
   22      C       2.8023679477    -1.5661249621    -0.3219501414
   23      O       1.5600761682    -0.8814749001    -0.7502296501
   24      H       4.0341679705     1.3726694465    -1.0236918133
   25      H       4.7503939009    -0.5821674329     0.1574147903
   26      H       1.4943828379     0.7979282346    -2.0637096116
   27      H       2.5266552130    -1.0106709277    -3.4691113271
   28      H       4.0122312779    -0.1802413866    -2.9118222520
   29      H       2.9921765186    -2.8952784405    -2.0859153297
   30      H       4.5472319765    -2.1508688523    -1.5991960974
   31      H       2.5664783039    -2.3881532909     0.3818265254
   32      O      -2.3604961869     2.1555860707    -1.3558103226
   33      C      -4.4888922619     1.6350987111     1.5896736435
   34      C      -3.2656919111    -2.1964297489    -0.2505843374
   35      C      -2.9050583326    -3.3294345764    -1.2885136265
   36      C      -1.5188730207    -2.8084930585    -1.8200566963
   37      C      -1.3069378817    -1.5081017231    -0.9435307318
   38      O      -1.9599037892    -1.8464375440     0.3438956091
   39      H      -4.2793622187    -1.1746388823    -1.9660676197
   40      H      -2.1820688445    -0.2915164525    -2.6200329586
   41      H      -5.4880383499     1.2646826696     1.8958529562
   42      H      -3.9891478940    -2.4874879552     0.5358789494
   43      H      -2.8036402531    -4.2993994833    -0.7756618911
   44      H      -3.6623160999    -3.4270156038    -2.0826998078
   45      H      -0.7134008600    -3.5346125510    -1.6275400845
   46      H      -1.5375644422    -2.5831755983    -2.8983862354
   47      H      -0.2382314979    -1.2213205848    -0.7905554110
   48      H      -4.6234578610     2.5594844769     0.9905244230
   49      H      -3.8837579536     1.8609406060     2.4868984357
   50      H       4.2325662746     2.1397734827     3.9952776655
   51      H       4.1459617663     0.3657484348     4.3448057831
   52      H       2.6471148511     1.2713314197     3.9288034203
   53      H       0.8915758571     2.9894528954     2.0824436077
   54      H       0.0726840646     1.4597499195     2.6296430694
   55      H      -1.5850604745     2.7058990430     1.2270116598
   56      H      -0.3647149743     2.9765419071    -0.0699581449
 ----------------------------------------------------------------

    9   -1510.2921848778      7.45E-09 Convergence criterion met
 Total energy in the final basis set = -1510.29218488
 Final energy is   -1510.29218487778
 **  OPTIMIZATION CONVERGED  **

                    Orbital Energies (a.u.)
 --------------------------------------------------------------

 Alpha MOs
 -- Occupied --
-18.937 -18.931 -18.931 -18.926 -18.904 -18.878 -18.874 -18.872
-18.870 -18.858 -10.103 -10.101 -10.093 -10.090 -10.076 -10.070
-10.069 -10.066 -10.064 -10.061 -10.050 -10.043 -10.041 -10.031
-10.028 -10.028 -10.026 -10.025 -10.010 -10.006  -1.019  -1.009
 -1.006  -0.999  -0.981  -0.955  -0.942  -0.935  -0.931  -0.924
 -0.770  -0.752  -0.733  -0.717  -0.712  -0.704  -0.688  -0.663
 -0.656  -0.615  -0.596  -0.579  -0.552  -0.544  -0.535  -0.525
 -0.516  -0.505  -0.488  -0.473  -0.471  -0.457  -0.448  -0.439
 -0.434  -0.425  -0.422  -0.414  -0.412  -0.409  -0.407  -0.402
 -0.393  -0.374  -0.369  -0.364  -0.360  -0.355  -0.351  -0.348
 -0.343  -0.341  -0.337  -0.336  -0.328  -0.324  -0.315  -0.313
 -0.310  -0.302  -0.297  -0.296  -0.292  -0.290  -0.283  -0.277
 -0.267  -0.255  -0.253  -0.245  -0.239  -0.234  -0.216  -0.180
 -0.175  -0.172  -0.167  -0.159  -0.155  -0.150  -0.149  -0.139
 -0.129

          Ground-State Mulliken Net Atomic Charges

     Atom                 Charge (a.u.)
  ----------------------------------------
      1 O                    -0.212896
      2 C                     0.207981
      3 C                    -0.080710
      4 C                    -0.079361
      5 C                     0.210239
      6 O                    -0.161431
      7 C                    -0.047207
      8 C                    -0.045796
      9 O                    -0.165815
     10 C                     0.213970
     11 C                    -0.076903
     12 C                    -0.077845
     13 C                     0.218960
     14 O                    -0.211515
     15 O                    -0.166731
     16 O                    -0.175748
     17 O                    -0.214230
     18 C                    -0.128315
     19 C                     0.028258
     20 C                    -0.144261
     21 C                    -0.143251
     22 C                     0.028091
     23 O                    -0.183863
     24 H                     0.086981
     25 H                     0.084748
     26 H                     0.084806
     27 H                     0.079199
     28 H                     0.076152
     29 H                     0.079284
     30 H                     0.075462
     31 H                     0.095918
     32 O                    -0.227060
     33 C                    -0.128954
     34 C                     0.026065
     35 C                    -0.143859
     36 C                    -0.146036
     37 C                     0.008265
     38 O                    -0.187711
     39 H                     0.083112
     40 H                     0.079756
     41 H                     0.091616
     42 H                     0.079053
     43 H                     0.075022
     44 H                     0.070816
     45 H                     0.073351
     46 H                     0.067836
     47 H                     0.116123
     48 H                     0.089110
     49 H                     0.087891
     50 H                     0.089969
     51 H                     0.089382
     52 H                     0.086789
     53 H                     0.093145
     54 H                     0.095495
     55 H                     0.086262
     56 H                     0.090392
  ----------------------------------------
  Sum of atomic charges =     0.000000

                    Cartesian Multipole Moments
 -----------------------------------------------------------------
    Charge (ESU x 10^10)
                 0.0000
    Dipole Moment (Debye)
         X       2.7428      Y      -0.6092      Z      -0.1175
       Tot       2.8121
    Quadrupole Moments (Debye-Ang)
        XX    -159.8042     XY      -0.0924     YY    -162.2246
        XZ      -6.7254     YZ      13.3755     ZZ    -150.2615

 Total job time:  133.57s(wall), 6356.34s(cpu)
        *  Thank you very much for using Q-Chem.  Have a nice day.  *
