 Q-Chem 5.0, Q-Chem, Inc., Pleasanton, CA (2017)
 Q-Chem 5.0.1 for Intel X86 EM64T Linux

User input:
--------------------------------------------------------------
$molecule
0  1
O -3.94934 -3.66094 2.70899
C -3.26408 -4.56952 2.26188
C -3.36658 -6.02376 2.66595
C -2.17129 -6.93154 2.33267
C -0.93485 -6.24753 1.79282
O 0.18387 -6.83054 2.31627
C 0.91608 -5.96235 3.18769
C 1.8076 -6.77994 4.11661
O 2.67285 -7.62702 3.34417
C 3.97234 -7.64183 3.7318
C 4.72028 -8.85668 3.23645
C 4.98265 -9.93333 4.29959
C 4.17216 -9.81432 5.5746
O 3.73327 -10.75143 6.22556
O -2.77296 -4.32905 1.02044
O 4.24879 -8.62336 6.22512
O 4.49956 -6.7838 4.42971
C 3.67579 -8.35352 7.45116
C 3.97652 -9.71726 2.17942
C 4.98981 -10.5075 1.35237
C 5.46699 -11.51316 2.37746
C 4.52007 -11.18865 3.53828
O 3.3446 -10.73529 2.91467
H 5.6444 -8.47573 2.7461
H 6.05133 -9.95686 4.60585
H 3.32679 -9.12912 1.49534
H 4.41062 -11.04783 0.56901
H 5.79037 -9.91146 0.86391
H 5.28111 -12.53529 1.97916
H 6.52993 -11.4094 2.68611
H 4.41072 -12.07638 4.19892
O -0.87583 -5.76699 0.67294
C -2.75376 -3.09935 0.39117
C -3.44896 -6.19278 4.19705
C -4.16256 -7.49851 4.53186
C -3.11473 -8.50171 4.1082
C -1.9605 -7.55937 3.73886
O -2.12872 -6.45946 4.59562
H -4.3129 -6.39396 2.21087
H -2.4376 -7.71682 1.59084
H -2.16007 -2.37492 0.9886
H -3.95146 -5.34627 4.71415
H -4.26442 -7.53655 5.64045
H -5.1635 -7.63207 4.06798
H -2.85224 -9.12502 4.99208
H -3.39802 -9.15425 3.25417
H -1.01241 -8.12506 3.84675
H -3.78879 -2.71888 0.25637
H -2.28323 -3.2098 -0.60724
H 3.89473 -7.3026 7.73047
H 4.09726 -9.02526 8.22917
H 2.57422 -8.48619 7.39388
H 2.32683 -6.09255 4.82046
H 1.14932 -7.43353 4.72721
H 0.22779 -5.37097 3.83515
H 1.52886 -5.25812 2.58402
$end

$opt
CONSTRAINT
tors           1           2           3           4    -161.837
tors           3           4           5           6    +141.002
tors           4           5           6           7    -113.258
tors           5           6           7           8    +158.951
tors           6           7           8           9     +55.933
tors           7           8           9          10    +134.368
tors           8           9          10          11    +160.068
tors           9          10          11          12    -104.211
tors          11          12          13          14    +143.829
ENDCONSTRAINT
$end

$rem
JOBTYPE                   OPT
METHOD                    B3LYP
DFT_D                     d3_op
BASIS                     STO-3G
GEOM_OPT_MAX_CYCLES       100
GEOM_OPT_TOL_GRADIENT     300
GEOM_OPT_TOL_DISPLACEMENT 1200
GEOM_OPT_TOL_ENERGY       100
SYMMETRY                  False
THRESH                    12
SCF_CONVERGENCE           8
MAX_SUB_FILE_NUM          128
MEM_STATIC                400
MEM_TOTAL                 4000
$end
--------------------------------------------------------------

   15   -1510.0970662089      7.55E-09 Convergence criterion met
 Total energy in the final basis set = -1510.09706621
   14   -1510.1710204557      5.23E-09 Convergence criterion met
 Total energy in the final basis set = -1510.17102046
   14   -1510.2111120889      7.36E-09 Convergence criterion met
 Total energy in the final basis set = -1510.21111209
   14   -1510.2299995352      6.12E-09 Convergence criterion met
 Total energy in the final basis set = -1510.22999954
   13   -1510.2375019620      9.64E-09 Convergence criterion met
 Total energy in the final basis set = -1510.23750196
   13   -1510.2419432172      8.12E-09 Convergence criterion met
 Total energy in the final basis set = -1510.24194322
   13   -1510.2442759020      2.97E-09 Convergence criterion met
 Total energy in the final basis set = -1510.24427590
   13   -1510.2453278342      3.54E-09 Convergence criterion met
   10   -1510.2503518232      9.23E-09 Convergence criterion met
 Total energy in the final basis set = -1510.25035182
    9   -1510.2503554004      6.75E-09 Convergence criterion met
 Total energy in the final basis set = -1510.25035540
    9   -1510.2503601738      9.30E-09 Convergence criterion met
 Total energy in the final basis set = -1510.25036017
    9   -1510.2503644284      7.53E-09 Convergence criterion met
 Total energy in the final basis set = -1510.25036443
    9   -1510.2503670848      7.20E-09 Convergence criterion met
 Total energy in the final basis set = -1510.25036708
    9   -1510.2503682397      5.93E-09 Convergence criterion met
 Total energy in the final basis set = -1510.25036824

             Standard Nuclear Orientation (Angstroms)
    I     Atom           X                Y                Z
 ----------------------------------------------------------------
    1      O      -6.1402607060    -0.3430675760     1.1042380549
    2      C      -5.1565567899     0.1037175366     0.4738382367
    3      C      -4.7476801758    -0.3422728588    -0.9861785158
    4      C      -3.2717372120    -0.0237355635    -1.4524117376
    5      C      -2.6048237581     1.2954124427    -0.8953172821
    6      O      -1.1956592011     1.0809905862    -0.5838944670
    7      C      -1.0146525304     1.1932897466     0.8832658628
    8      C       0.3127305854     0.4516539887     1.2472675577
    9      O       1.4269328569     1.0252103749     0.4588083150
   10      C       2.5682998276     1.2581465222     1.2990575760
   11      C       3.8528375209     1.3678973567     0.4040196656
   12      C       4.8138139864     0.1028105309     0.4061662348
   13      C       4.1746381231    -1.2768088323     0.8251083065
   14      O       4.4637127959    -2.3905675367     0.3357706536
   15      O      -4.1702289717     0.9474685125     1.0741360249
   16      O       3.1874756232    -1.0980722101     1.8412192732
   17      O       2.5012499149     1.4403746200     2.5347790809
   18      C       2.5559797113    -2.3941897080     2.1790338910
   19      C       3.6042851220     1.5612080666    -1.1562238947
   20      C       4.8458642430     2.3451016054    -1.7338515708
   21      C       5.9638328703     1.2417842774    -1.6267948327
   22      C       5.1251095672    -0.0068234646    -1.1456570744
   23      O       3.7785432917     0.2067613645    -1.7300687415
   24      H       4.4237868654     2.2278352826     0.8005431031
   25      H       5.7166765684     0.2827153526     1.0191105859
   26      H       2.6089611428     1.9689329365    -1.4164699316
   27      H       4.6621755583     2.6302378226    -2.7821709058
   28      H       5.0810006380     3.2527301527    -1.1552444180
   29      H       6.4336597243     1.0407811885    -2.6023769620
   30      H       6.7516564978     1.5094597273    -0.9043899760
   31      H       5.5216798802    -0.9982929739    -1.4397386387
   32      O      -3.1351942357     2.4245201506    -0.8964451976
   33      C      -4.5563551878     1.2677004606     2.4676796822
   34      C      -4.6362656873    -1.9279141336    -0.8802061009
   35      C      -4.3222185003    -2.5740531859    -2.2881272753
   36      C      -2.7725347109    -2.3215294675    -2.4124171622
   37      C      -2.5354806252    -1.4002490316    -1.1562622346
   38      O      -3.3666870379    -2.0586886062    -0.1197069514
   39      H      -5.5079053159     0.0033844214    -1.7097521429
   40      H      -3.2995389885     0.1239151108    -2.5497857997
   41      H      -4.6176066076     0.3526619597     3.0917013450
   42      H      -5.4746631317    -2.3892424760    -0.3223121486
   43      H      -4.5643712890    -3.6484524845    -2.2842586846
   44      H      -4.8949833286    -2.0880159698    -3.0945175465
   45      H      -2.2040038647    -3.2603039354    -2.3121929896
   46      H      -2.4887966854    -1.8335156281    -3.3583763972
   47      H      -1.4868112531    -1.2860173672    -0.8206847721
   48      H      -5.5332229334     1.7902443686     2.5093392734
   49      H      -3.7634853412     1.9330030870     2.8560826427
   50      H       1.7797217883    -2.1644186934     2.9318647568
   51      H       3.2906577263    -3.1056723603     2.6080867233
   52      H       2.0889024556    -2.8631804269     1.2890323421
   53      H       0.5304278058     0.5643627369     2.3324523056
   54      H       0.2238314990    -0.6270903811     0.9941250359
   55      H      -1.8619556881     0.7187404435     1.4270401751
   56      H      -0.9529281082     2.2601574684     1.1986130275
 ----------------------------------------------------------------

    9   -1510.2503686247      3.58E-09 Convergence criterion met
 Total energy in the final basis set = -1510.25036862
 Final energy is   -1510.25036862469
 **  OPTIMIZATION CONVERGED  **

                    Orbital Energies (a.u.)
 --------------------------------------------------------------

 Alpha MOs
 -- Occupied --
-18.944 -18.942 -18.923 -18.896 -18.893 -18.887 -18.883 -18.877
-18.877 -18.869 -10.105 -10.104 -10.102 -10.098 -10.070 -10.069
-10.068 -10.067 -10.061 -10.058 -10.056 -10.055 -10.043 -10.040
-10.035 -10.034 -10.022 -10.020 -10.019 -10.017  -1.018  -1.018
 -1.004  -0.998  -0.972  -0.967  -0.940  -0.940  -0.936  -0.925
 -0.764  -0.761  -0.725  -0.722  -0.713  -0.703  -0.692  -0.667
 -0.666  -0.609  -0.600  -0.576  -0.545  -0.543  -0.539  -0.535
 -0.517  -0.507  -0.490  -0.480  -0.470  -0.457  -0.449  -0.440
 -0.437  -0.429  -0.426  -0.418  -0.417  -0.412  -0.409  -0.400
 -0.392  -0.389  -0.379  -0.369  -0.364  -0.357  -0.354  -0.345
 -0.342  -0.339  -0.333  -0.331  -0.328  -0.325  -0.314  -0.313
 -0.310  -0.308  -0.305  -0.301  -0.300  -0.291  -0.288  -0.275
 -0.272  -0.265  -0.252  -0.240  -0.236  -0.231  -0.229  -0.184
 -0.182  -0.167  -0.161  -0.157  -0.153  -0.150  -0.150  -0.144
 -0.140

          Ground-State Mulliken Net Atomic Charges

     Atom                 Charge (a.u.)
  ----------------------------------------
      1 O                    -0.214691
      2 C                     0.212576
      3 C                    -0.076109
      4 C                    -0.084090
      5 C                     0.227593
      6 O                    -0.195200
      7 C                    -0.047556
      8 C                    -0.049148
      9 O                    -0.174059
     10 C                     0.217920
     11 C                    -0.081171
     12 C                    -0.076386
     13 C                     0.211970
     14 O                    -0.212616
     15 O                    -0.170469
     16 O                    -0.168208
     17 O                    -0.215393
     18 C                    -0.127072
     19 C                     0.023755
     20 C                    -0.142663
     21 C                    -0.145677
     22 C                     0.023370
     23 O                    -0.191025
     24 H                     0.082302
     25 H                     0.085973
     26 H                     0.093571
     27 H                     0.077779
     28 H                     0.072877
     29 H                     0.078143
     30 H                     0.072818
     31 H                     0.090041
     32 O                    -0.185837
     33 C                    -0.127166
     34 C                     0.023489
     35 C                    -0.145967
     36 C                    -0.141246
     37 C                     0.020799
     38 O                    -0.196955
     39 H                     0.087920
     40 H                     0.084061
     41 H                     0.091540
     42 H                     0.088182
     43 H                     0.078933
     44 H                     0.074167
     45 H                     0.078081
     46 H                     0.075065
     47 H                     0.089897
     48 H                     0.093039
     49 H                     0.091529
     50 H                     0.092117
     51 H                     0.091278
     52 H                     0.091334
     53 H                     0.097648
     54 H                     0.081519
     55 H                     0.086822
     56 H                     0.080597
  ----------------------------------------
  Sum of atomic charges =    -0.000000

                    Cartesian Multipole Moments
 -----------------------------------------------------------------
    Charge (ESU x 10^10)
                -0.0000
    Dipole Moment (Debye)
         X       0.3772      Y      -0.2496      Z       0.0805
       Tot       0.4594
    Quadrupole Moments (Debye-Ang)
        XX    -156.0009     XY       7.5603     YY    -162.6073
        XZ       3.3782     YZ       0.4730     ZZ    -156.1855

 Total job time:  116.88s(wall), 5568.95s(cpu)
        *  Thank you very much for using Q-Chem.  Have a nice day.  *
