 Q-Chem 5.0, Q-Chem, Inc., Pleasanton, CA (2017)
 Q-Chem 5.0.1 for Intel X86 EM64T Linux

User input:
--------------------------------------------------------------
$molecule
0  1
O 4.1518019474 -1.6061849734 0.9920403869
C 4.9713007166 -1.043020694 0.2355267482
C 4.9670985092 0.4518733239 -0.2401816222
C 3.5552387956 0.9495930575 -0.7555167261
C 2.5184085555 -0.1963160821 -1.0351030746
O 1.1998644164 0.3485329614 -0.9142045725
C 0.2079103271 -0.5236871769 -1.5919402531
C -1.1959360203 0.1128149497 -1.297610917
O -2.2546917931 -0.5871197339 -2.0685942221
C -3.0597563234 -1.3573547673 -1.120853085
C -4.4572807562 -0.6867330289 -0.8194202804
C -4.9062632084 -0.625275684 0.6979712628
C -3.7825125361 -0.5400864495 1.8076914446
O -3.9783360273 -0.1457151746 2.9781895879
O 6.1145951319 -1.6921505551 -0.335954522
O -2.4777951802 -0.8423666252 1.3021909073
O -2.7474038091 -2.5156253303 -0.7787995422
C -1.469908699 -0.7155323436 2.3828416181
C -4.6527610767 0.8227638831 -1.2728984484
C -6.1711904496 0.9929866978 -1.6613664235
C -6.8455123581 0.8490226343 -0.2457378911
C -5.5818786256 0.8159957517 0.7028661727
O -4.5549978729 1.6086908152 -0.0198209549
H -5.1898041705 -1.318221995 -1.3583554073
H -5.6090118815 -1.4375858073 0.9582343782
H -3.9122204141 1.1667793024 -2.0203296554
H -6.3464443274 1.9939486139 -2.0874679671
H -6.514932834 0.2338279469 -2.3820730847
H -7.4869249501 1.7123634888 -0.0084584228
H -7.4463261043 -0.0704271865 -0.1551668131
H -5.7408108174 1.2203298275 1.721750694
O 2.7671504423 -1.3558166605 -1.4301414809
C 6.1434067734 -3.1139326336 0.0790217271
C 5.1459872751 1.3983812103 1.0269800199
C 5.3814340017 2.8837706708 0.5390008043
C 3.9199631684 3.314355517 0.1438253602
C 3.1368843956 1.9664395582 0.391010738
O 3.7832468369 1.4209277199 1.6058664301
H 5.763203492 0.5928176788 -0.9910406798
H 3.6743397622 1.4891758259 -1.7146296611
H 5.2292728404 -3.650214917 -0.2480487654
H 5.8761924116 1.0290548324 1.7732061478
H 5.7801390929 3.5017922153 1.3588361245
H 6.0811717799 2.9300981175 -0.310758998
H 3.5401700717 4.1061637591 0.8091991711
H 3.8415724182 3.6594644399 -0.8994049732
H 2.0433139173 2.0618144254 0.5333260119
H 6.2367988807 -3.217797912 1.1795216625
H 7.0294996205 -3.5581032502 -0.4107304726
H -0.4964914365 -0.9606715099 1.9191896837
H -1.6765166424 -1.4212930725 3.2121038339
H -1.4420914631 0.3152054781 2.7910995006
H -1.4104469609 0.0877759774 -0.2080975981
H -1.1814312117 1.1732372478 -1.6328649101
H 0.2562394944 -1.5654568595 -1.2059433226
H 0.3961293884 -0.5523540849 -2.6873201533
$end

$rem
JOBTYPE                   OPT
METHOD                    B3LYP
DFT_D                     d3_op
BASIS                     STO-3G
GEOM_OPT_MAX_CYCLES       100
GEOM_OPT_TOL_GRADIENT     300
GEOM_OPT_TOL_DISPLACEMENT 1200
GEOM_OPT_TOL_ENERGY       100
SYMMETRY                  False
THRESH                    12
SCF_CONVERGENCE           8
MAX_SUB_FILE_NUM          128
MEM_STATIC                400
MEM_TOTAL                 4000
$end
--------------------------------------------------------------

   16   -1510.2527983383      5.30E-09 Convergence criterion met
 Total energy in the final basis set = -1510.25279834
   14   -1510.2553891363      3.12E-09 Convergence criterion met
 Total energy in the final basis set = -1510.25538914
   14   -1510.2576721865      1.51E-09 Convergence criterion met
 Total energy in the final basis set = -1510.25767219
   13   -1510.2599398612      9.15E-09 Convergence criterion met
 Total energy in the final basis set = -1510.25993986
   14   -1510.2623810145      2.15E-09 Convergence criterion met
 Total energy in the final basis set = -1510.26238101
   14   -1510.2618646642      2.99E-09 Convergence criterion met
 Total energy in the final basis set = -1510.26186466
   13   -1510.2648739658      6.87E-09 Convergence criterion met
 Total energy in the final basis set = -1510.26487397
   13   -1510.2661037515      8.96E-09 Convergence criterion met
   12   -1510.2901928370      8.62E-09 Convergence criterion met
 Total energy in the final basis set = -1510.29019284
   13   -1510.2900778262      7.03E-09 Convergence criterion met
 Total energy in the final basis set = -1510.29007783
   13   -1510.2902714561      3.81E-09 Convergence criterion met
 Total energy in the final basis set = -1510.29027146
   12   -1510.2902258638      3.66E-09 Convergence criterion met
 Total energy in the final basis set = -1510.29022586
   11   -1510.2902713181      6.94E-09 Convergence criterion met
 Total energy in the final basis set = -1510.29027132
   11   -1510.2902739309      4.39E-09 Convergence criterion met
 Total energy in the final basis set = -1510.29027393

             Standard Nuclear Orientation (Angstroms)
    I     Atom           X                Y                Z
 ----------------------------------------------------------------
    1      O      -1.6037131742     0.7105368224     1.4160135718
    2      C      -2.7231974116     0.8861015425     0.8798161915
    3      C      -3.6970614582    -0.2102789973     0.3110255221
    4      C      -3.5129035551    -0.5086423089    -1.2384031537
    5      C      -2.2834490638     0.2700316505    -1.8268887673
    6      O      -1.7039372444    -0.4667060053    -2.9114290649
    7      C      -0.3028097660    -0.0201813736    -3.1148812087
    8      C       0.6147596723    -0.9136258112    -2.1830728014
    9      O       1.9183258138    -0.3084940275    -1.8411480252
   10      C       1.7591308129     0.6838926117    -0.8143464035
   11      C       3.1717803587     1.1040869230    -0.2623565107
   12      C       3.3512578205     0.6880232245     1.2637515759
   13      C       2.0747677455     0.0462708463     1.9088678839
   14      O       1.5252273739     0.3978628541     2.9757050438
   15      O      -3.3727915411     2.1550379409     0.8024864722
   16      O       1.6283293897    -1.0297570743     1.0813242174
   17      O       0.6558318080     1.1403384432    -0.4443461285
   18      C       0.3140294427    -1.5282028218     1.5639054948
   19      C       4.3659199588     0.3089506209    -0.9307017505
   20      C       5.7267681557     1.0039342320    -0.5255992395
   21      C       5.8919389568     0.5148687797     0.9609822728
   22      C       4.5702085569    -0.3307290151     1.1467920818
   23      O       4.3815716644    -0.9659433491    -0.1753391821
   24      H       3.2795048844     2.1978318689    -0.3818476099
   25      H       3.6254976520     1.5606532345     1.8817312796
   26      H       4.2354681761     0.1153125565    -2.0120012794
   27      H       6.5491464768     0.6442354933    -1.1639541173
   28      H       5.6699885597     2.1010976573    -0.6080947513
   29      H       6.7787460539    -0.1284989821     1.0775365407
   30      H       5.9597410258     1.3458965020     1.6808945368
   31      H       4.6084994125    -1.0983974388     1.9439848602
   32      O      -1.8411151284     1.3635158608    -1.4090384988
   33      C      -2.4316931501     3.2163546185     1.2308964927
   34      C      -3.3930953974    -1.6437227698     0.9238518411
   35      C      -4.6635582271    -2.5529037078     0.7030249747
   36      C      -4.5700015210    -2.8290737146    -0.8436083729
   37      C      -3.2365432310    -2.0694477626    -1.2128580981
   38      O      -2.3925052356    -2.2225183722    -0.0044083558
   39      H      -4.7310489375     0.1146795060     0.5224566247
   40      H      -4.4220435252    -0.2533597082    -1.8137876188
   41      H      -1.5088644203     3.1960137301     0.6162298047
   42      H      -2.9926588654    -1.6226206080     1.9557898534
   43      H      -4.5753561470    -3.4842507256     1.2849135093
   44      H      -5.5967401200    -2.0430991958     0.9906530485
   45      H      -4.4714933882    -3.9050084756    -1.0581894584
   46      H      -5.4366547072    -2.4365612548    -1.3993851922
   47      H      -2.7034005244    -2.4369371511    -2.1105892430
   48      H      -2.1510653351     3.1050083333     2.2982976351
   49      H      -2.9638086734     4.1739546996     1.0833064775
   50      H       0.0386728256    -2.3623900458     0.8930481624
   51      H      -0.4614844112    -0.7227987138     1.5059583172
   52      H       0.3871896559    -1.9000174527     2.6054467848
   53      H       0.0382160079    -1.1363679002    -1.2587916975
   54      H       0.8561111839    -1.8679546096    -2.6919220387
   55      H      -0.2029632136     1.0493056897    -2.8338939297
   56      H      -0.0631296525    -0.1636183456    -4.1864467621
 ----------------------------------------------------------------

   11   -1510.2902749132      2.31E-09 Convergence criterion met
 Total energy in the final basis set = -1510.29027491
 Final energy is   -1510.29027491320
 **  OPTIMIZATION CONVERGED  **

                    Orbital Energies (a.u.)
 --------------------------------------------------------------

 Alpha MOs
 -- Occupied --
-18.936 -18.928 -18.925 -18.913 -18.890 -18.890 -18.880 -18.872
-18.863 -18.857 -10.106 -10.098 -10.091 -10.081 -10.069 -10.065
-10.061 -10.061 -10.053 -10.052 -10.051 -10.043 -10.037 -10.029
-10.026 -10.023 -10.022 -10.022 -10.014 -10.013  -1.020  -1.004
 -1.003  -0.989  -0.973  -0.962  -0.944  -0.929  -0.927  -0.916
 -0.765  -0.754  -0.727  -0.718  -0.711  -0.701  -0.689  -0.655
 -0.634  -0.615  -0.592  -0.577  -0.547  -0.540  -0.537  -0.530
 -0.511  -0.503  -0.481  -0.474  -0.461  -0.457  -0.455  -0.439
 -0.433  -0.426  -0.417  -0.408  -0.401  -0.399  -0.397  -0.393
 -0.382  -0.378  -0.368  -0.361  -0.353  -0.351  -0.349  -0.345
 -0.338  -0.336  -0.331  -0.325  -0.323  -0.317  -0.315  -0.313
 -0.307  -0.303  -0.299  -0.296  -0.285  -0.281  -0.279  -0.274
 -0.265  -0.257  -0.247  -0.243  -0.238  -0.231  -0.225  -0.186
 -0.170  -0.165  -0.161  -0.158  -0.149  -0.145  -0.141  -0.135
 -0.133

          Ground-State Mulliken Net Atomic Charges

     Atom                 Charge (a.u.)
  ----------------------------------------
      1 O                    -0.209939
      2 C                     0.221613
      3 C                    -0.081229
      4 C                    -0.077751
      5 C                     0.213714
      6 O                    -0.175280
      7 C                    -0.055492
      8 C                    -0.049747
      9 O                    -0.170479
     10 C                     0.214138
     11 C                    -0.078115
     12 C                    -0.080247
     13 C                     0.208785
     14 O                    -0.212216
     15 O                    -0.168128
     16 O                    -0.174076
     17 O                    -0.213682
     18 C                    -0.150087
     19 C                     0.024752
     20 C                    -0.145063
     21 C                    -0.143519
     22 C                     0.025721
     23 O                    -0.186415
     24 H                     0.081651
     25 H                     0.082455
     26 H                     0.088934
     27 H                     0.076156
     28 H                     0.071785
     29 H                     0.076399
     30 H                     0.073078
     31 H                     0.082339
     32 O                    -0.195296
     33 C                    -0.127851
     34 C                     0.023874
     35 C                    -0.143519
     36 C                    -0.144500
     37 C                     0.022401
     38 O                    -0.193694
     39 H                     0.086070
     40 H                     0.087259
     41 H                     0.101881
     42 H                     0.087200
     43 H                     0.078598
     44 H                     0.074339
     45 H                     0.078630
     46 H                     0.073924
     47 H                     0.091088
     48 H                     0.088410
     49 H                     0.087051
     50 H                     0.083927
     51 H                     0.116412
     52 H                     0.076647
     53 H                     0.097363
     54 H                     0.088745
     55 H                     0.103507
     56 H                     0.087479
  ----------------------------------------
  Sum of atomic charges =     0.000000

                    Cartesian Multipole Moments
 -----------------------------------------------------------------
    Charge (ESU x 10^10)
                 0.0000
    Dipole Moment (Debye)
         X      -1.5545      Y       0.2171      Z      -1.7797
       Tot       2.3729
    Quadrupole Moments (Debye-Ang)
        XX    -140.8819     XY      10.8648     YY    -156.5383
        XZ       0.0658     YZ      -0.6047     ZZ    -158.5181

 Total job time:  103.50s(wall), 4925.58s(cpu)
        *  Thank you very much for using Q-Chem.  Have a nice day.  *
