 Q-Chem 5.0, Q-Chem, Inc., Pleasanton, CA (2017)
 Q-Chem 5.0.1 for Intel X86 EM64T Linux

User input:
--------------------------------------------------------------
$molecule
0  1
O -3.94934 -3.66094 2.70899
C -3.26408 -4.56952 2.26188
C -3.36658 -6.02376 2.66595
C -3.41669 -6.33291 4.1712
C -3.53792 -5.14515 5.09996
O -4.11157 -5.53326 6.27713
C -3.87854 -4.61204 7.34778
C -4.63338 -5.05568 8.59659
O -4.27058 -4.22319 9.70934
C -5.23323 -3.36894 10.13675
C -5.89782 -3.82312 11.41452
C -7.42951 -3.71295 11.42209
C -8.08448 -3.51542 10.0698
O -9.25942 -3.7343 9.81255
O -2.27107 -4.26518 1.38529
O -7.39136 -3.05649 8.99551
O -5.19537 -2.18731 9.82164
C -7.89233 -2.86373 7.72215
C -5.72082 -5.31967 11.77423
C -5.93557 -5.52357 13.27414
C -7.43093 -5.32772 13.37418
C -7.78051 -5.1401 11.89551
O -6.84729 -5.94333 11.21684
H -5.44174 -3.21342 12.22678
H -7.84017 -2.94304 12.11114
H -4.73503 -5.7489 11.49669
H -5.70345 -6.58899 13.5015
H -5.32458 -4.86788 13.93114
H -7.88293 -6.2685 13.76052
H -7.7593 -4.4653 13.99378
H -8.84991 -5.39708 11.72857
O -2.76265 -4.19685 5.02851
C -2.00061 -2.99227 0.92846
C -4.71322 -6.61445 2.20385
C -4.59473 -8.12916 2.0608
C -4.5066 -8.53754 3.51339
C -4.71759 -7.17984 4.19595
O -5.5591 -6.47955 3.3165
H -2.54783 -6.57456 2.14859
H -2.53536 -6.91938 4.51322
H -1.73531 -2.3286 1.77913
H -5.08407 -6.17138 1.25294
H -5.56296 -8.49269 1.64723
H -3.76404 -8.4866 1.41499
H -5.3519 -9.22719 3.73348
H -3.54537 -9.00407 3.81985
H -5.12675 -7.35822 5.21273
H -2.88353 -2.58233 0.39296
H -1.1432 -3.03238 0.22581
H -7.0809 -2.48453 7.06758
H -8.71482 -2.11737 7.74239
H -8.26349 -3.82543 7.30806
H -5.72579 -5.03395 8.3779
H -4.36343 -6.10308 8.8486
H -4.2288 -3.58891 7.07893
H -2.79018 -4.58459 7.58249
$end

$opt
CONSTRAINT
tors           1           2           3           4     -47.368
tors           3           4           5           6    +155.028
tors           4           5           6           7    +161.053
tors           5           6           7           8    +175.743
tors           6           7           8           9    +173.081
tors           7           8           9          10    +109.235
tors           8           9          10          11    +104.097
tors           9          10          11          12    -134.998
tors          11          12          13          14    +160.671
ENDCONSTRAINT
$end

$rem
JOBTYPE                   OPT
METHOD                    B3LYP
DFT_D                     d3_op
BASIS                     STO-3G
GEOM_OPT_MAX_CYCLES       100
GEOM_OPT_TOL_GRADIENT     300
GEOM_OPT_TOL_DISPLACEMENT 1200
GEOM_OPT_TOL_ENERGY       100
SYMMETRY                  False
THRESH                    12
SCF_CONVERGENCE           8
MAX_SUB_FILE_NUM          128
MEM_STATIC                400
MEM_TOTAL                 4000
$end
--------------------------------------------------------------

   15   -1510.1036065293      7.86E-09 Convergence criterion met
 Total energy in the final basis set = -1510.10360653
   13   -1510.1780491036      8.22E-09 Convergence criterion met
 Total energy in the final basis set = -1510.17804910
   14   -1510.2192604979      5.41E-09 Convergence criterion met
 Total energy in the final basis set = -1510.21926050
   14   -1510.2384847474      8.41E-09 Convergence criterion met
 Total energy in the final basis set = -1510.23848475
   14   -1510.2453550137      5.90E-09 Convergence criterion met
 Total energy in the final basis set = -1510.24535501
   14   -1510.2478951318      4.24E-09 Convergence criterion met
 Total energy in the final basis set = -1510.24789513
   13   -1510.2496945317      2.42E-09 Convergence criterion met
 Total energy in the final basis set = -1510.24969453
   13   -1510.2507570221      2.61E-09 Convergence criterion met
   11   -1510.2527129625      8.62E-09 Convergence criterion met
 Total energy in the final basis set = -1510.25271296
   10   -1510.2527452611      9.38E-09 Convergence criterion met
 Total energy in the final basis set = -1510.25274526
   10   -1510.2527639403      9.52E-09 Convergence criterion met
 Total energy in the final basis set = -1510.25276394
   10   -1510.2527701473      9.48E-09 Convergence criterion met
 Total energy in the final basis set = -1510.25277015
    9   -1510.2527731743      6.35E-09 Convergence criterion met
 Total energy in the final basis set = -1510.25277317
    9   -1510.2527749386      3.18E-09 Convergence criterion met
 Total energy in the final basis set = -1510.25277494

             Standard Nuclear Orientation (Angstroms)
    I     Atom           X                Y                Z
 ----------------------------------------------------------------
    1      O       4.1518019474    -1.6061849734     0.9920403869
    2      C       4.9713007166    -1.0430206940     0.2355267482
    3      C       4.9670985092     0.4518733239    -0.2401816222
    4      C       3.5552387956     0.9495930575    -0.7555167261
    5      C       2.5184085555    -0.1963160821    -1.0351030746
    6      O       1.1998644164     0.3485329614    -0.9142045725
    7      C       0.2079103271    -0.5236871769    -1.5919402531
    8      C      -1.1959360203     0.1128149497    -1.2976109170
    9      O      -2.2546917931    -0.5871197339    -2.0685942221
   10      C      -3.0597563234    -1.3573547673    -1.1208530850
   11      C      -4.4572807562    -0.6867330289    -0.8194202804
   12      C      -4.9062632084    -0.6252756840     0.6979712628
   13      C      -3.7825125361    -0.5400864495     1.8076914446
   14      O      -3.9783360273    -0.1457151746     2.9781895879
   15      O       6.1145951319    -1.6921505551    -0.3359545220
   16      O      -2.4777951802    -0.8423666252     1.3021909073
   17      O      -2.7474038091    -2.5156253303    -0.7787995422
   18      C      -1.4699086990    -0.7155323436     2.3828416181
   19      C      -4.6527610767     0.8227638831    -1.2728984484
   20      C      -6.1711904496     0.9929866978    -1.6613664235
   21      C      -6.8455123581     0.8490226343    -0.2457378911
   22      C      -5.5818786256     0.8159957517     0.7028661727
   23      O      -4.5549978729     1.6086908152    -0.0198209549
   24      H      -5.1898041705    -1.3182219950    -1.3583554073
   25      H      -5.6090118815    -1.4375858073     0.9582343782
   26      H      -3.9122204141     1.1667793024    -2.0203296554
   27      H      -6.3464443274     1.9939486139    -2.0874679671
   28      H      -6.5149328340     0.2338279469    -2.3820730847
   29      H      -7.4869249501     1.7123634888    -0.0084584228
   30      H      -7.4463261043    -0.0704271865    -0.1551668131
   31      H      -5.7408108174     1.2203298275     1.7217506940
   32      O       2.7671504423    -1.3558166605    -1.4301414809
   33      C       6.1434067734    -3.1139326336     0.0790217271
   34      C       5.1459872751     1.3983812103     1.0269800199
   35      C       5.3814340017     2.8837706708     0.5390008043
   36      C       3.9199631684     3.3143555170     0.1438253602
   37      C       3.1368843956     1.9664395582     0.3910107380
   38      O       3.7832468369     1.4209277199     1.6058664301
   39      H       5.7632034920     0.5928176788    -0.9910406798
   40      H       3.6743397622     1.4891758259    -1.7146296611
   41      H       5.2292728404    -3.6502149170    -0.2480487654
   42      H       5.8761924116     1.0290548324     1.7732061478
   43      H       5.7801390929     3.5017922153     1.3588361245
   44      H       6.0811717799     2.9300981175    -0.3107589980
   45      H       3.5401700717     4.1061637591     0.8091991711
   46      H       3.8415724182     3.6594644399    -0.8994049732
   47      H       2.0433139173     2.0618144254     0.5333260119
   48      H       6.2367988807    -3.2177979120     1.1795216625
   49      H       7.0294996205    -3.5581032502    -0.4107304726
   50      H      -0.4964914365    -0.9606715099     1.9191896837
   51      H      -1.6765166424    -1.4212930725     3.2121038339
   52      H      -1.4420914631     0.3152054781     2.7910995006
   53      H      -1.4104469609     0.0877759774    -0.2080975981
   54      H      -1.1814312117     1.1732372478    -1.6328649101
   55      H       0.2562394944    -1.5654568595    -1.2059433226
   56      H       0.3961293884    -0.5523540849    -2.6873201533
 ----------------------------------------------------------------

    9   -1510.2527756100      2.02E-09 Convergence criterion met
 Total energy in the final basis set = -1510.25277561
 Final energy is   -1510.25277560997
 **  OPTIMIZATION CONVERGED  **

                    Orbital Energies (a.u.)
 --------------------------------------------------------------

 Alpha MOs
 -- Occupied --
-18.947 -18.929 -18.926 -18.898 -18.896 -18.888 -18.887 -18.880
-18.876 -18.865 -10.108 -10.106 -10.100 -10.091 -10.068 -10.066
-10.064 -10.062 -10.060 -10.059 -10.058 -10.057 -10.045 -10.038
-10.037 -10.034 -10.023 -10.022 -10.020 -10.019  -1.020  -1.011
 -1.002  -1.001  -0.973  -0.969  -0.942  -0.939  -0.931  -0.926
 -0.765  -0.761  -0.726  -0.722  -0.713  -0.705  -0.691  -0.666
 -0.657  -0.609  -0.599  -0.577  -0.547  -0.544  -0.540  -0.537
 -0.517  -0.510  -0.490  -0.472  -0.468  -0.457  -0.448  -0.442
 -0.436  -0.433  -0.427  -0.418  -0.413  -0.408  -0.405  -0.399
 -0.389  -0.383  -0.375  -0.369  -0.362  -0.356  -0.353  -0.350
 -0.344  -0.341  -0.334  -0.332  -0.329  -0.320  -0.316  -0.315
 -0.311  -0.310  -0.303  -0.303  -0.296  -0.288  -0.285  -0.274
 -0.273  -0.269  -0.252  -0.245  -0.237  -0.233  -0.231  -0.186
 -0.177  -0.169  -0.165  -0.156  -0.154  -0.152  -0.145  -0.143
 -0.141

          Ground-State Mulliken Net Atomic Charges

     Atom                 Charge (a.u.)
  ----------------------------------------
      1 O                    -0.212743
      2 C                     0.211722
      3 C                    -0.079859
      4 C                    -0.078379
      5 C                     0.212966
      6 O                    -0.179204
      7 C                    -0.049244
      8 C                    -0.053687
      9 O                    -0.199943
     10 C                     0.228746
     11 C                    -0.084879
     12 C                    -0.076205
     13 C                     0.212806
     14 O                    -0.211799
     15 O                    -0.170865
     16 O                    -0.170927
     17 O                    -0.181453
     18 C                    -0.127677
     19 C                     0.020611
     20 C                    -0.141669
     21 C                    -0.145816
     22 C                     0.023611
     23 O                    -0.195073
     24 H                     0.084867
     25 H                     0.088360
     26 H                     0.090729
     27 H                     0.078257
     28 H                     0.074006
     29 H                     0.079248
     30 H                     0.074145
     31 H                     0.089217
     32 O                    -0.209668
     33 C                    -0.128728
     34 C                     0.025770
     35 C                    -0.144818
     36 C                    -0.143102
     37 C                     0.024041
     38 O                    -0.188218
     39 H                     0.086039
     40 H                     0.083927
     41 H                     0.092581
     42 H                     0.082173
     43 H                     0.077882
     44 H                     0.073744
     45 H                     0.077764
     46 H                     0.072870
     47 H                     0.090742
     48 H                     0.086773
     49 H                     0.088343
     50 H                     0.097747
     51 H                     0.093888
     52 H                     0.093645
     53 H                     0.097281
     54 H                     0.081022
     55 H                     0.093604
     56 H                     0.084832
  ----------------------------------------
  Sum of atomic charges =     0.000000

                    Cartesian Multipole Moments
 -----------------------------------------------------------------
    Charge (ESU x 10^10)
                 0.0000
    Dipole Moment (Debye)
         X      -0.2946      Y       1.7082      Z      -1.3542
       Tot       2.1997
    Quadrupole Moments (Debye-Ang)
        XX    -134.9312     XY       5.0946     YY    -160.3653
        XZ       3.3842     YZ      -4.9278     ZZ    -164.5955

 Total job time:  57.47s(wall), 2730.52s(cpu)
        *  Thank you very much for using Q-Chem.  Have a nice day.  *
