 Q-Chem 5.0, Q-Chem, Inc., Pleasanton, CA (2017)
 Q-Chem 5.0.1 for Intel X86 EM64T Linux

User input:
--------------------------------------------------------------
$molecule
0  1
O -3.94934 -3.66094 2.70899
C -3.26408 -4.56952 2.26188
C -3.36658 -6.02376 2.66595
C -2.07028 -6.7239 3.10556
C -0.84898 -5.84529 3.26227
O -0.90118 -4.81437 2.36789
C -0.44051 -3.57299 2.91195
C 0.46369 -2.86312 1.90964
O 0.66335 -3.69494 0.75592
C -0.37352 -4.50897 0.43748
C -0.39776 -4.88636 -1.02459
C -0.56097 -6.38774 -1.30297
C -1.0267 -7.23003 -0.13236
O -1.56223 -8.32581 -0.21625
O -3.48585 -4.62117 0.90693
O -0.10489 -7.1365 0.86719
O -1.39448 -3.83046 0.48669
C 0.58806 -8.20154 1.43081
C -1.5154 -4.34923 -1.98839
C -1.03534 -4.3806 -3.44096
C -1.06979 -5.86537 -3.71742
C -1.64345 -6.37669 -2.39442
O -2.50049 -5.35036 -1.97495
H 0.55938 -4.5113 -1.45629
H 0.3778 -6.86303 -1.66715
H -1.85779 -3.31558 -1.76254
H -1.82003 -3.8903 -4.0612
H -0.05989 -3.8823 -3.62749
H -1.78929 -6.05277 -4.5456
H -0.08802 -6.32846 -3.9567
H -2.11354 -7.37317 -2.54468
O 0.1422 -6.12146 3.92565
C -4.22436 -3.70709 0.1595
C -4.24253 -6.19708 3.92238
C -4.74641 -7.63719 4.03358
C -3.48011 -8.34222 4.45932
C -2.5119 -7.15835 4.52577
O -3.31925 -6.09776 4.97379
H -3.82218 -6.62359 1.83932
H -1.82336 -7.63853 2.53701
H -3.77206 -2.69465 0.22631
H -5.10763 -5.4996 3.95916
H -5.47805 -7.68874 4.87133
H -5.21869 -8.02453 3.10518
H -3.63195 -8.74468 5.48615
H -3.13549 -9.15626 3.78572
H -1.65594 -7.42469 5.18463
H -5.27205 -3.67139 0.52742
H -4.25697 -4.01903 -0.9003
H 0.37518 -8.28187 2.51394
H 1.67581 -8.02353 1.30514
H 0.34692 -9.17456 0.95156
H 0.02121 -1.89248 1.59342
H 1.44977 -2.64592 2.37218
H 0.07247 -3.66119 3.89834
H -1.31515 -2.91352 3.09525
$end

$opt
CONSTRAINT
tors           1           2           3           4    -127.530
tors           3           4           5           6     -31.909
tors           4           5           6           7    +140.712
tors           5           6           7           8    +136.250
tors           6           7           8           9      -4.167
tors           7           8           9          10     +31.354
tors           8           9          10          11    +154.848
tors           9          10          11          12    +130.866
tors          11          12          13          14    +158.562
ENDCONSTRAINT
$end

$rem
JOBTYPE                   OPT
METHOD                    B3LYP
DFT_D                     d3_op
BASIS                     STO-3G
GEOM_OPT_MAX_CYCLES       100
GEOM_OPT_TOL_GRADIENT     300
GEOM_OPT_TOL_DISPLACEMENT 1200
GEOM_OPT_TOL_ENERGY       100
SYMMETRY                  False
THRESH                    12
SCF_CONVERGENCE           8
MAX_SUB_FILE_NUM          128
MEM_STATIC                400
MEM_TOTAL                 4000
$end
--------------------------------------------------------------

   17   -1509.9302715825      3.35E-09 Convergence criterion met
 Total energy in the final basis set = -1509.93027158
   16   -1510.0129028063      2.27E-09 Convergence criterion met
 Total energy in the final basis set = -1510.01290281
   15   -1510.0854002061      3.58E-09 Convergence criterion met
 Total energy in the final basis set = -1510.08540021
    2   -1510.0854002061      1.43E-09 Convergence criterion met
 Total energy in the final basis set = -1510.08540021
   14   -1510.1298308964      9.51E-09 Convergence criterion met
 Total energy in the final basis set = -1510.12983090
   15   -1510.1609594335      2.57E-09 Convergence criterion met
 Total energy in the final basis set = -1510.16095943
   14   -1510.1837253601      9.00E-09 Convergence criterion met
 Total energy in the final basis set = -1510.18372536
   14   -1510.1993477600      7.60E-09 Convergence criterion met
   11   -1510.2468014118      7.42E-09 Convergence criterion met
 Total energy in the final basis set = -1510.24680141
   11   -1510.2468148486      4.54E-09 Convergence criterion met
 Total energy in the final basis set = -1510.24681485
   11   -1510.2468202556      2.52E-09 Convergence criterion met
 Total energy in the final basis set = -1510.24682026
   10   -1510.2468252992      8.39E-09 Convergence criterion met
 Total energy in the final basis set = -1510.24682530
   10   -1510.2468294576      7.91E-09 Convergence criterion met
 Total energy in the final basis set = -1510.24682946
   10   -1510.2468314197      3.45E-09 Convergence criterion met
 Total energy in the final basis set = -1510.24683142

             Standard Nuclear Orientation (Angstroms)
    I     Atom           X                Y                Z
 ----------------------------------------------------------------
    1      O      -1.4462565679    -2.1236178126     1.7350155106
    2      C      -1.5899327647    -0.8878046552     1.5850554732
    3      C      -2.9538787381    -0.1287593269     1.3941339984
    4      C      -3.1109620179     0.8462193274     0.1650511454
    5      C      -2.3581633487     0.3515147559    -1.1333299093
    6      O      -1.1594215162    -0.3905397692    -0.8284192874
    7      C      -1.0260251558    -1.5336949953    -1.7637667888
    8      C       0.4026649264    -1.8606805387    -2.4190854504
    9      O       1.6591136739    -1.0808103605    -2.2688082702
   10      C       1.8944303346    -0.3748206755    -1.0479705080
   11      C       3.4539285789    -0.2074240983    -0.8800363808
   12      C       3.8503338555     1.2862167500    -0.5374519072
   13      C       2.7356337419     2.3478758570    -0.8396929870
   14      O       2.6299726210     3.4895469654    -0.3433859500
   15      O      -0.6087564656     0.0908860608     1.9452401938
   16      O       1.9185795935     1.8537030660    -1.9108524076
   17      O       1.0626972515    -0.0922241405    -0.1667382138
   18      C       0.7184248901     2.6974912097    -2.1049883958
   19      C       3.8653234289    -0.9213482259     0.4777686999
   20      C       5.4368385693    -0.8909285514     0.6398245774
   21      C       5.6753923797     0.5947132655     1.1055137573
   22      C       4.2136324425     1.1746518547     1.0045939443
   23      O       3.3851792212     0.0459851275     1.4941715308
   24      H       3.9837168799    -0.6008294538    -1.7639291516
   25      H       4.7450868170     1.5871173156    -1.1144282994
   26      H       3.3946716803    -1.9107109016     0.6384479515
   27      H       5.7612705880    -1.6138234057     1.4049884716
   28      H       5.9495238352    -1.1254321919    -0.3068984152
   29      H       6.0322199972     0.6362906422     2.1471029992
   30      H       6.3878096337     1.1370761389     0.4638310664
   31      H       4.0117821415     2.0929259553     1.5901215106
   32      O      -2.7703991180     0.5183940461    -2.3031643986
   33      C       0.5883294348    -0.5622850700     2.5346915986
   34      C      -4.2505629651    -1.0357367643     1.2382223857
   35      C      -5.4187108047    -0.2736730476     1.9737042898
   36      C      -5.5753413628     0.9787076464     1.0310963023
   37      C      -4.6384065389     0.5844856895    -0.1783225101
   38      O      -4.6444704114    -0.9031911558    -0.1862269547
   39      H      -3.0561086910     0.4787399752     2.3127602163
   40      H      -2.8590174347     1.8938717724     0.4101332251
   41      H       0.5097682326    -1.6589863449     2.3996680627
   42      H      -4.1045172029    -2.0993177051     1.5103939182
   43      H      -6.3343621431    -0.8868371937     1.9776881793
   44      H      -5.1650872401    -0.0035994200     3.0111968810
   45      H      -6.6148587952     1.1086754746     0.6915233563
   46      H      -5.2433277695     1.9125265883     1.5127050409
   47      H      -4.9404172259     0.9762656230    -1.1690283888
   48      H       0.6139803372    -0.3285008537     3.6184378092
   49      H       1.5067327267    -0.1752474456     2.0388735397
   50      H      -0.1655931456     2.1565053131    -1.7091217974
   51      H       0.5898023511     2.8713556531    -3.1902940692
   52      H       0.8438692104     3.6606598406    -1.5708625455
   53      H       0.6479784062    -2.8992827965    -2.1013242100
   54      H       0.2521057503    -1.8851351370    -3.5184882362
   55      H      -1.7444161798    -1.3803392048    -2.5968548135
   56      H      -1.3281330752    -2.4370325385    -1.1894150479
 ----------------------------------------------------------------

    9   -1510.2468319022      5.53E-09 Convergence criterion met
 Total energy in the final basis set = -1510.24683190
 Final energy is   -1510.24683190217
 **  OPTIMIZATION CONVERGED  **

                    Orbital Energies (a.u.)
 --------------------------------------------------------------

 Alpha MOs
 -- Occupied --
-18.940 -18.932 -18.923 -18.903 -18.899 -18.883 -18.881 -18.880
-18.863 -18.846 -10.105 -10.099 -10.096 -10.081 -10.071 -10.068
-10.065 -10.065 -10.060 -10.055 -10.052 -10.041 -10.037 -10.036
-10.026 -10.025 -10.024 -10.018 -10.018 -10.016  -1.016  -1.011
 -0.997  -0.984  -0.977  -0.965  -0.941  -0.935  -0.930  -0.909
 -0.767  -0.757  -0.727  -0.721  -0.711  -0.701  -0.697  -0.660
 -0.634  -0.617  -0.594  -0.580  -0.549  -0.542  -0.536  -0.532
 -0.512  -0.499  -0.479  -0.473  -0.459  -0.454  -0.448  -0.443
 -0.436  -0.427  -0.422  -0.416  -0.412  -0.403  -0.394  -0.391
 -0.387  -0.380  -0.372  -0.361  -0.355  -0.353  -0.352  -0.344
 -0.338  -0.336  -0.333  -0.328  -0.326  -0.323  -0.317  -0.316
 -0.308  -0.305  -0.302  -0.296  -0.291  -0.287  -0.278  -0.273
 -0.266  -0.249  -0.241  -0.236  -0.233  -0.230  -0.221  -0.176
 -0.175  -0.163  -0.160  -0.160  -0.156  -0.144  -0.140  -0.134
 -0.127

          Ground-State Mulliken Net Atomic Charges

     Atom                 Charge (a.u.)
  ----------------------------------------
      1 O                    -0.232741
      2 C                     0.217127
      3 C                    -0.081303
      4 C                    -0.074076
      5 C                     0.213742
      6 O                    -0.155876
      7 C                    -0.052597
      8 C                    -0.051462
      9 O                    -0.175375
     10 C                     0.220507
     11 C                    -0.077863
     12 C                    -0.079394
     13 C                     0.217394
     14 O                    -0.209788
     15 O                    -0.170662
     16 O                    -0.166756
     17 O                    -0.206043
     18 C                    -0.132822
     19 C                     0.025944
     20 C                    -0.144589
     21 C                    -0.142043
     22 C                     0.026201
     23 O                    -0.186136
     24 H                     0.086320
     25 H                     0.085844
     26 H                     0.084494
     27 H                     0.079296
     28 H                     0.075157
     29 H                     0.079554
     30 H                     0.074983
     31 H                     0.091803
     32 O                    -0.208702
     33 C                    -0.146021
     34 C                     0.020247
     35 C                    -0.140970
     36 C                    -0.146120
     37 C                     0.022597
     38 O                    -0.195701
     39 H                     0.082904
     40 H                     0.087893
     41 H                     0.087311
     42 H                     0.089008
     43 H                     0.076987
     44 H                     0.073541
     45 H                     0.077910
     46 H                     0.073821
     47 H                     0.088752
     48 H                     0.068697
     49 H                     0.112493
     50 H                     0.092313
     51 H                     0.089444
     52 H                     0.101103
     53 H                     0.079980
     54 H                     0.087935
     55 H                     0.096204
     56 H                     0.089536
  ----------------------------------------
  Sum of atomic charges =     0.000000

                    Cartesian Multipole Moments
 -----------------------------------------------------------------
    Charge (ESU x 10^10)
                 0.0000
    Dipole Moment (Debye)
         X       1.7800      Y       0.0250      Z      -0.4448
       Tot       1.8349
    Quadrupole Moments (Debye-Ang)
        XX    -142.5764     XY      -8.0040     YY    -161.1587
        XZ      -6.5815     YZ       1.9835     ZZ    -159.4963

 Total job time:  105.71s(wall), 5042.12s(cpu)
        *  Thank you very much for using Q-Chem.  Have a nice day.  *
