 Q-Chem 5.0, Q-Chem, Inc., Pleasanton, CA (2017)
 Q-Chem 5.0.1 for Intel X86 EM64T Linux

User input:
--------------------------------------------------------------
$molecule
0  1
O -1.4462565679 -2.1236178126 1.7350155106
C -1.5899327647 -0.8878046552 1.5850554732
C -2.9538787381 -0.1287593269 1.3941339984
C -3.1109620179 0.8462193274 0.1650511454
C -2.3581633487 0.3515147559 -1.1333299093
O -1.1594215162 -0.3905397692 -0.8284192874
C -1.0260251558 -1.5336949953 -1.7637667888
C 0.4026649264 -1.8606805387 -2.4190854504
O 1.6591136739 -1.0808103605 -2.2688082702
C 1.8944303346 -0.3748206755 -1.047970508
C 3.4539285789 -0.2074240983 -0.8800363808
C 3.8503338555 1.28621675 -0.5374519072
C 2.7356337419 2.347875857 -0.839692987
O 2.629972621 3.4895469654 -0.34338595
O -0.6087564656 0.0908860608 1.9452401938
O 1.9185795935 1.853703066 -1.9108524076
O 1.0626972515 -0.0922241405 -0.1667382138
C 0.7184248901 2.6974912097 -2.1049883958
C 3.8653234289 -0.9213482259 0.4777686999
C 5.4368385693 -0.8909285514 0.6398245774
C 5.6753923797 0.5947132655 1.1055137573
C 4.2136324425 1.1746518547 1.0045939443
O 3.3851792212 0.0459851275 1.4941715308
H 3.9837168799 -0.6008294538 -1.7639291516
H 4.745086817 1.5871173156 -1.1144282994
H 3.3946716803 -1.9107109016 0.6384479515
H 5.761270588 -1.6138234057 1.4049884716
H 5.9495238352 -1.1254321919 -0.3068984152
H 6.0322199972 0.6362906422 2.1471029992
H 6.3878096337 1.1370761389 0.4638310664
H 4.0117821415 2.0929259553 1.5901215106
O -2.770399118 0.5183940461 -2.3031643986
C 0.5883294348 -0.56228507 2.5346915986
C -4.2505629651 -1.0357367643 1.2382223857
C -5.4187108047 -0.2736730476 1.9737042898
C -5.5753413628 0.9787076464 1.0310963023
C -4.6384065389 0.5844856895 -0.1783225101
O -4.6444704114 -0.9031911558 -0.1862269547
H -3.056108691 0.4787399752 2.3127602163
H -2.8590174347 1.8938717724 0.4101332251
H 0.5097682326 -1.6589863449 2.3996680627
H -4.1045172029 -2.0993177051 1.5103939182
H -6.3343621431 -0.8868371937 1.9776881793
H -5.1650872401 -0.00359942 3.011196881
H -6.6148587952 1.1086754746 0.6915233563
H -5.2433277695 1.9125265883 1.5127050409
H -4.9404172259 0.976265623 -1.1690283888
H 0.6139803372 -0.3285008537 3.6184378092
H 1.5067327267 -0.1752474456 2.0388735397
H -0.1655931456 2.1565053131 -1.7091217974
H 0.5898023511 2.8713556531 -3.1902940692
H 0.8438692104 3.6606598406 -1.5708625455
H 0.6479784062 -2.8992827965 -2.10132421
H 0.2521057503 -1.885135137 -3.5184882362
H -1.7444161798 -1.3803392048 -2.5968548135
H -1.3281330752 -2.4370325385 -1.1894150479
$end

$rem
JOBTYPE                   OPT
METHOD                    B3LYP
DFT_D                     d3_op
BASIS                     STO-3G
GEOM_OPT_MAX_CYCLES       100
GEOM_OPT_TOL_GRADIENT     300
GEOM_OPT_TOL_DISPLACEMENT 1200
GEOM_OPT_TOL_ENERGY       100
SYMMETRY                  False
THRESH                    12
SCF_CONVERGENCE           8
MAX_SUB_FILE_NUM          128
MEM_STATIC                400
MEM_TOTAL                 4000
$end
--------------------------------------------------------------

   16   -1510.2469420572      5.79E-09 Convergence criterion met
 Total energy in the final basis set = -1510.24694206
   15   -1510.2505352307      3.58E-09 Convergence criterion met
 Total energy in the final basis set = -1510.25053523
   14   -1510.2537869751      5.87E-09 Convergence criterion met
 Total energy in the final basis set = -1510.25378698
   15   -1510.2577427674      2.68E-09 Convergence criterion met
 Total energy in the final basis set = -1510.25774277
   14   -1510.2597110305      6.96E-09 Convergence criterion met
 Total energy in the final basis set = -1510.25971103
   14   -1510.2621125943      6.24E-09 Convergence criterion met
 Total energy in the final basis set = -1510.26211259
   13   -1510.2651699042      5.98E-09 Convergence criterion met
 Total energy in the final basis set = -1510.26516990
   15   -1510.2569676092      2.88E-09 Convergence criterion met
   10   -1510.3045835849      9.57E-09 Convergence criterion met
 Total energy in the final basis set = -1510.30458358
   10   -1510.3045907932      8.83E-09 Convergence criterion met
 Total energy in the final basis set = -1510.30459079
   10   -1510.3045923241      9.33E-09 Convergence criterion met
 Total energy in the final basis set = -1510.30459232
    9   -1510.3045934447      9.08E-09 Convergence criterion met
 Total energy in the final basis set = -1510.30459344
    9   -1510.3045946085      9.47E-09 Convergence criterion met
 Total energy in the final basis set = -1510.30459461
    9   -1510.3045961114      3.38E-09 Convergence criterion met
 Total energy in the final basis set = -1510.30459611

             Standard Nuclear Orientation (Angstroms)
    I     Atom           X                Y                Z
 ----------------------------------------------------------------
    1      O       1.3282374057     1.2357357950    -1.2427469099
    2      C       1.4667308380     1.4432135676    -0.0130793624
    3      C       2.3973530807     0.6340870616     0.9530830803
    4      C       3.0174460191    -0.6378708299     0.2466925920
    5      C       2.5261818291    -0.8482008311    -1.2335971461
    6      O       1.2203538453    -1.4734145296    -1.1959381591
    7      C       0.6269886426    -1.4487891434    -2.5509752411
    8      C      -0.7069201862    -2.2667263437    -2.5326353059
    9      O      -1.6994574422    -1.7783026989    -1.5446788438
   10      C      -2.3036344884    -0.5517752929    -1.9645899207
   11      C      -3.4256466344    -0.1703486158    -0.9306390534
   12      C      -3.0398463108    -0.3243512522     0.6029581519
   13      C      -1.5468624969    -0.7479197347     0.8195756487
   14      O      -0.5426510333    -0.0160839303     0.6863144990
   15      O       0.8368695109     2.4898619396     0.7090168541
   16      O      -1.4983450165    -2.1158729514     1.2233515357
   17      O      -2.0151710151     0.0625779375    -3.0135405404
   18      C      -0.0831385239    -2.5656078829     1.2472042566
   19      C      -3.7731741035     1.3723137092    -1.0131424966
   20      C      -5.1875563200     1.6023288765    -0.3555929232
   21      C      -4.8450816888     1.4220290311     1.1716510932
   22      C      -3.2893973179     1.1581684930     1.1123368619
   23      O      -2.8479575569     1.9879361770    -0.0324032170
   24      H      -4.3125292545    -0.7887267533    -1.1649180197
   25      H      -3.6950338756    -1.0560354804     1.1066520021
   26      H      -3.6205944803     1.8096694112    -2.0192573869
   27      H      -5.5506530354     2.6201019587    -0.5698372377
   28      H      -5.9352477785     0.8765885762    -0.7137419388
   29      H      -5.0593653676     2.3383829387     1.7443589901
   30      H      -5.3882159030     0.5815768130     1.6324766945
   31      H      -2.7238763145     1.4316121931     2.0240166333
   32      O       3.1849776744    -0.6863211063    -2.2812530127
   33      C      -0.1476322634     3.1920436040    -0.1548578015
   34      C       3.7137062298     1.4484371546     1.3096616051
   35      C       4.4521939093     0.7198534107     2.5017279244
   36      C       5.0849324199    -0.5156308419     1.7599960152
   37      C       4.5615421484    -0.2858954179     0.2884913350
   38      O       4.5883817211     1.1890888731     0.1431904027
   39      H       1.8176880767     0.3671387327     1.8540648032
   40      H       2.7884092812    -1.5538066605     0.8196705305
   41      H       0.2298657042     3.2743093060    -1.1927942379
   42      H       3.5524165155     2.5355327262     1.4462772499
   43      H       5.2267830693     1.3744660556     2.9316687258
   44      H       3.7544831825     0.4252902162     3.3021577866
   45      H       6.1857017696    -0.4796101570     1.7860219933
   46      H       4.7539051295    -1.4800503722     2.1773941005
   47      H       5.1553122016    -0.7612797281    -0.5160508156
   48      H      -0.2760118336     4.1997038253     0.2810838272
   49      H      -1.1270305793     2.6493882359    -0.1534640490
   50      H       0.4497177286    -2.2323974000     0.3229554230
   51      H      -0.1153983547    -3.6684601264     1.3108896449
   52      H       0.4445055917    -2.1651660788     2.1373769582
   53      H      -1.1385418530    -2.2512991897    -3.5574469391
   54      H      -0.5072131541    -3.3162333398    -2.2359874874
   55      H       1.3200495391    -1.8988952011    -3.2958722537
   56      H       0.4249273232    -0.3975809111    -2.8513959703
 ----------------------------------------------------------------

    8   -1510.3045960945      7.29E-09 Convergence criterion met
 Total energy in the final basis set = -1510.30459609
 Final energy is   -1510.30459609447
 **  OPTIMIZATION CONVERGED  **

                    Orbital Energies (a.u.)
 --------------------------------------------------------------

 Alpha MOs
 -- Occupied --
-18.942 -18.925 -18.920 -18.919 -18.904 -18.883 -18.879 -18.864
-18.861 -18.859 -10.107 -10.095 -10.090 -10.090 -10.079 -10.068
-10.067 -10.064 -10.052 -10.050 -10.044 -10.041 -10.040 -10.029
-10.028 -10.027 -10.026 -10.026 -10.015 -10.014  -1.020  -1.003
 -1.000  -0.992  -0.981  -0.962  -0.944  -0.927  -0.923  -0.921
 -0.769  -0.754  -0.731  -0.719  -0.712  -0.705  -0.695  -0.653
 -0.642  -0.614  -0.594  -0.578  -0.550  -0.544  -0.537  -0.531
 -0.513  -0.502  -0.479  -0.465  -0.463  -0.455  -0.448  -0.444
 -0.438  -0.431  -0.427  -0.413  -0.406  -0.403  -0.397  -0.392
 -0.387  -0.374  -0.368  -0.363  -0.360  -0.353  -0.350  -0.346
 -0.341  -0.339  -0.333  -0.330  -0.326  -0.323  -0.317  -0.317
 -0.311  -0.303  -0.297  -0.295  -0.289  -0.287  -0.278  -0.270
 -0.264  -0.259  -0.248  -0.243  -0.234  -0.233  -0.226  -0.183
 -0.169  -0.164  -0.163  -0.160  -0.152  -0.145  -0.142  -0.138
 -0.135

          Ground-State Mulliken Net Atomic Charges

     Atom                 Charge (a.u.)
  ----------------------------------------
      1 O                    -0.217367
      2 C                     0.231270
      3 C                    -0.075140
      4 C                    -0.080875
      5 C                     0.222259
      6 O                    -0.182563
      7 C                    -0.050737
      8 C                    -0.047181
      9 O                    -0.168830
     10 C                     0.212981
     11 C                    -0.078157
     12 C                    -0.079539
     13 C                     0.214165
     14 O                    -0.221762
     15 O                    -0.170523
     16 O                    -0.169821
     17 O                    -0.209235
     18 C                    -0.145688
     19 C                     0.025830
     20 C                    -0.143063
     21 C                    -0.143737
     22 C                     0.027533
     23 O                    -0.187548
     24 H                     0.086135
     25 H                     0.087017
     26 H                     0.094063
     27 H                     0.080016
     28 H                     0.075031
     29 H                     0.079584
     30 H                     0.075441
     31 H                     0.087780
     32 O                    -0.215028
     33 C                    -0.147178
     34 C                     0.023915
     35 C                    -0.143898
     36 C                    -0.144116
     37 C                     0.024487
     38 O                    -0.189512
     39 H                     0.088891
     40 H                     0.080329
     41 H                     0.087056
     42 H                     0.085062
     43 H                     0.076824
     44 H                     0.072410
     45 H                     0.076815
     46 H                     0.071252
     47 H                     0.087496
     48 H                     0.077885
     49 H                     0.113091
     50 H                     0.114038
     51 H                     0.079741
     52 H                     0.072524
     53 H                     0.091764
     54 H                     0.092244
     55 H                     0.090861
     56 H                     0.105709
  ----------------------------------------
  Sum of atomic charges =    -0.000000

                    Cartesian Multipole Moments
 -----------------------------------------------------------------
    Charge (ESU x 10^10)
                 0.0000
    Dipole Moment (Debye)
         X      -3.3842      Y      -2.1185      Z       2.3678
       Tot       4.6420
    Quadrupole Moments (Debye-Ang)
        XX    -151.1958     XY      -6.8115     YY    -155.7602
        XZ       9.3877     YZ       5.2843     ZZ    -159.9964

 Total job time:  219.39s(wall), 10470.78s(cpu)
        *  Thank you very much for using Q-Chem.  Have a nice day.  *
