 Q-Chem 5.0, Q-Chem, Inc., Pleasanton, CA (2017)
 Q-Chem 5.0.1 for Intel X86 EM64T Linux

User input:
--------------------------------------------------------------
$molecule
0  1
O -5.0941184851 -2.4615992711 1.4414496808
C -4.6720800927 -1.6439767214 0.5947047817
C -4.6969754823 -0.0759578204 0.7192279248
C -3.2860263983 0.6250239116 0.5739716526
C -2.0742915204 -0.3861433121 0.5532610351
O -0.8604669443 0.1165931651 -0.0594498552
C -0.3001035662 1.2271285953 0.7432195285
C 0.9970685248 1.704055852 0.0146741551
O 1.9276699293 0.5582796922 -0.0779076877
C 2.616864905 0.5792522696 -1.3393425151
C 3.9051508191 -0.3115147086 -1.2331207946
C 4.7905622522 -0.0759387994 0.0538955936
C 4.6646523206 1.2944482419 0.8010498053
O 5.1951645662 1.5757932848 1.8989669414
O -4.256983243 -1.9973729535 -0.7316581787
O 4.0497659464 2.2700659498 -0.0548031544
O 2.2270292149 1.210882945 -2.3454334502
C 4.1303264014 3.6169913101 0.5571103693
C 3.4459571628 -1.8153555803 -0.9598233696
C 4.6952075782 -2.7832389823 -1.0360278947
C 5.3664465105 -2.5379183344 0.3670059087
C 4.4611838474 -1.3713205007 0.9210796567
O 3.1082032446 -1.7777189495 0.4825442892
H 4.4832945128 -0.2010040724 -2.1666877037
H 5.8553964942 -0.1200268448 -0.247579791
H 2.5675528663 -2.1358985773 -1.5530835242
H 4.36740593 -3.8280561692 -1.1541255878
H 5.3626104234 -2.5277217959 -1.8749796335
H 5.2800635849 -3.4263168297 1.0130015791
H 6.4282137454 -2.2540280843 0.2925596386
H 4.4928935485 -1.2132344761 2.0166108938
O -2.1559180045 -1.588853423 0.8823456263
C -4.2127521332 -3.4697145091 -0.8671975451
C -5.4567455263 0.5704423941 -0.5187670535
C -5.7297965232 2.1000954965 -0.2190964778
C -4.3058974306 2.7240521171 -0.4679523878
C -3.4668885368 1.4261995414 -0.7890120779
O -4.4123093091 0.599335512 -1.568966036
H -5.1754121355 0.1747099569 1.68177921
H -3.1300797213 1.3293138954 1.4113863847
H -5.1896078566 -3.9349622027 -0.6229603811
H -6.3370201348 -0.0044173799 -0.8655293362
H -6.4765398823 2.5026067445 -0.9217808053
H -6.0902817989 2.2618717923 0.809458887
H -4.3093496361 3.4035563813 -1.3351620205
H -3.9174588143 3.2687020997 0.4072709618
H -2.5265555196 1.581572006 -1.3534220901
H -3.4363129574 -3.9098713036 -0.2082376679
H -3.9580467348 -3.6713342957 -1.9239308703
H 3.1083280757 4.0014922173 0.7415284958
H 4.6519989491 4.2938326929 -0.1471122295
H 4.6880275425 3.5470260409 1.5133412639
H 0.7676644211 2.0752055702 -1.0079318902
H 1.469526121 2.5191216443 0.6037082792
H -0.0434214591 0.8792916585 1.7692365589
H -1.0035288134 2.0862966257 0.8310338257
$end

$rem
JOBTYPE                   OPT
METHOD                    B3LYP
DFT_D                     d3_op
BASIS                     STO-3G
GEOM_OPT_MAX_CYCLES       100
GEOM_OPT_TOL_GRADIENT     300
GEOM_OPT_TOL_DISPLACEMENT 1200
GEOM_OPT_TOL_ENERGY       100
SYMMETRY                  False
THRESH                    12
SCF_CONVERGENCE           8
MAX_SUB_FILE_NUM          128
MEM_STATIC                400
MEM_TOTAL                 4000
$end
--------------------------------------------------------------

   16   -1510.2585975383      3.07E-09 Convergence criterion met
 Total energy in the final basis set = -1510.25859754
   13   -1510.2621215798      9.50E-09 Convergence criterion met
 Total energy in the final basis set = -1510.26212158
   13   -1510.2647542841      3.19E-09 Convergence criterion met
 Total energy in the final basis set = -1510.26475428
   13   -1510.2668857478      5.46E-09 Convergence criterion met
 Total energy in the final basis set = -1510.26688575
   13   -1510.2688060078      6.09E-09 Convergence criterion met
 Total energy in the final basis set = -1510.26880601
   14   -1510.2707119835      3.30E-09 Convergence criterion met
 Total energy in the final basis set = -1510.27071198
   13   -1510.2722310552      6.72E-09 Convergence criterion met
 Total energy in the final basis set = -1510.27223106
   13   -1510.2736214096      5.16E-09 Convergence criterion met
   12   -1510.2801124968      6.69E-09 Convergence criterion met
 Total energy in the final basis set = -1510.28011250
   12   -1510.2801206669      6.75E-09 Convergence criterion met
 Total energy in the final basis set = -1510.28012067
   12   -1510.2801872849      6.98E-09 Convergence criterion met
 Total energy in the final basis set = -1510.28018728
   11   -1510.2801754920      8.63E-09 Convergence criterion met
 Total energy in the final basis set = -1510.28017549
   12   -1510.2801291275      3.90E-09 Convergence criterion met
 Total energy in the final basis set = -1510.28012913
   11   -1510.2801662266      4.45E-09 Convergence criterion met
 Total energy in the final basis set = -1510.28016623

             Standard Nuclear Orientation (Angstroms)
    I     Atom           X                Y                Z
 ----------------------------------------------------------------
    1      O      -2.1199383702    -2.6095127163     1.0510961565
    2      C      -2.8751663143    -1.8676310611     0.3854091716
    3      C      -3.3814533382    -0.4376006212     0.8176681132
    4      C      -2.4589555192     0.7606080205     0.3401885913
    5      C      -1.2813028030     0.2847562629    -0.5806223619
    6      O      -0.3225091587     1.2308216870    -1.0502766446
    7      C      -0.1412371956     2.4581443420    -0.2404120976
    8      C       1.3642292369     2.8465236654    -0.4745860540
    9      O       2.1728396805     1.6486656027    -0.1687748627
   10      C       2.4596959017     0.9226942154    -1.3838952098
   11      C       2.9548961883    -0.5074274744    -0.9944848449
   12      C       3.9560353020    -0.5282352998     0.2337734743
   13      C       4.4047784373     0.8949020447     0.7162367443
   14      O       4.3754295466     1.3524003034     1.8786324443
   15      O      -3.5384925701    -2.2601865401    -0.8239257557
   16      O       4.9442200491     1.5922675195    -0.4197878938
   17      O       2.2961508737     1.3889561730    -2.5306078651
   18      C       5.3246274415     2.9714016737    -0.0424486678
   19      C       1.7450902085    -1.3570172068    -0.3960794261
   20      C       2.1947518809    -2.8671281879    -0.2798719452
   21      C       3.1210186881    -2.8234017298     0.9922645037
   22      C       3.0905614318    -1.2826910803     1.3278929352
   23      O       1.6979025022    -0.8930766845     1.0094060255
   24      H       3.3905563242    -0.9768665190    -1.8937464796
   25      H       4.8650826805    -1.1025588869    -0.0238435338
   26      H       0.7563892824    -1.1970106952    -0.8846835496
   27      H       1.3169748701    -3.5136581667    -0.1212854546
   28      H       2.7277608142    -3.2098149035    -1.1813068308
   29      H       2.6917892764    -3.4061409626     1.8229147999
   30      H       4.1410193998    -3.1889922367     0.7926200573
   31      H       3.3455707795    -1.0050135599     2.3692439838
   32      O      -1.1520871443    -0.8875640456    -1.0154804822
   33      C      -3.0197427714    -3.5712278270    -1.2698100193
   34      C      -4.7662678339    -0.0254034600     0.1596852118
   35      C      -5.3812801307     1.1654359545     0.9958096818
   36      C      -4.4573444173     2.3593199009     0.5523328222
   37      C      -3.5051271259     1.6372917813    -0.4817626248
   38      O      -4.3708005918     0.6209341399    -1.1146221615
   39      H      -3.4458993852    -0.4407852149     1.9203610640
   40      H      -2.0629292225     1.3166361072     1.2065584760
   41      H      -3.1235492346    -4.3447879930    -0.4814639481
   42      H      -5.4503762986    -0.8729339150    -0.0353152783
   43      H      -6.4292088111     1.3383119153     0.7033554119
   44      H      -5.3436780348     0.9770883785     2.0806062511
   45      H      -5.0331353913     3.1561487166     0.0552934197
   46      H      -3.8962107829     2.7989598658     1.3925506721
   47      H      -3.0533368510     2.2940589152    -1.2499852963
   48      H      -1.9503626100    -3.4992779371    -1.5561608915
   49      H      -3.6207774578    -3.8552706305    -2.1531843887
   50      H       4.6519227039     3.6889645213    -0.5535370521
   51      H       6.3671761562     3.1543256421    -0.3670203554
   52      H       5.2366076990     3.0908061602     1.0566831219
   53      H       1.5252586284     3.1452210489    -1.5330848400
   54      H       1.6697520803     3.6603593899     0.2137557876
   55      H      -0.3051628552     2.2702035697     0.8398822989
   56      H      -0.8246187493     3.2693835991    -0.5774038049
 ----------------------------------------------------------------

   10   -1510.2801672036      6.27E-09 Convergence criterion met
 Total energy in the final basis set = -1510.28016720
 Final energy is   -1510.28016720361
 **  OPTIMIZATION CONVERGED  **

                    Orbital Energies (a.u.)
 --------------------------------------------------------------

 Alpha MOs
 -- Occupied --
-18.947 -18.927 -18.924 -18.918 -18.896 -18.893 -18.874 -18.873
-18.870 -18.854 -10.118 -10.095 -10.095 -10.089 -10.089 -10.077
-10.069 -10.061 -10.054 -10.051 -10.048 -10.047 -10.039 -10.035
-10.030 -10.029 -10.027 -10.023 -10.009 -10.007  -1.025  -1.010
 -1.000  -0.995  -0.975  -0.958  -0.951  -0.932  -0.930  -0.920
 -0.767  -0.755  -0.726  -0.723  -0.711  -0.708  -0.692  -0.655
 -0.650  -0.611  -0.604  -0.583  -0.552  -0.542  -0.536  -0.526
 -0.520  -0.504  -0.494  -0.480  -0.466  -0.460  -0.452  -0.441
 -0.437  -0.428  -0.421  -0.416  -0.408  -0.407  -0.401  -0.400
 -0.398  -0.391  -0.370  -0.365  -0.360  -0.354  -0.351  -0.343
 -0.340  -0.337  -0.335  -0.333  -0.327  -0.326  -0.316  -0.315
 -0.310  -0.305  -0.298  -0.295  -0.290  -0.288  -0.281  -0.274
 -0.262  -0.253  -0.244  -0.243  -0.241  -0.236  -0.223  -0.187
 -0.173  -0.167  -0.161  -0.160  -0.156  -0.149  -0.147  -0.136
 -0.132

          Ground-State Mulliken Net Atomic Charges

     Atom                 Charge (a.u.)
  ----------------------------------------
      1 O                    -0.222009
      2 C                     0.215100
      3 C                    -0.080109
      4 C                    -0.083145
      5 C                     0.225936
      6 O                    -0.169835
      7 C                    -0.044360
      8 C                    -0.048858
      9 O                    -0.174229
     10 C                     0.221233
     11 C                    -0.078114
     12 C                    -0.078643
     13 C                     0.218940
     14 O                    -0.217105
     15 O                    -0.170537
     16 O                    -0.176160
     17 O                    -0.210706
     18 C                    -0.135887
     19 C                     0.014076
     20 C                    -0.144777
     21 C                    -0.143715
     22 C                     0.024625
     23 O                    -0.193024
     24 H                     0.085312
     25 H                     0.083619
     26 H                     0.101762
     27 H                     0.080272
     28 H                     0.070890
     29 H                     0.077345
     30 H                     0.070360
     31 H                     0.086935
     32 O                    -0.191817
     33 C                    -0.127073
     34 C                     0.026277
     35 C                    -0.144187
     36 C                    -0.144119
     37 C                     0.023540
     38 O                    -0.184931
     39 H                     0.083580
     40 H                     0.082912
     41 H                     0.086067
     42 H                     0.090916
     43 H                     0.078912
     44 H                     0.074474
     45 H                     0.078875
     46 H                     0.071938
     47 H                     0.081111
     48 H                     0.091386
     49 H                     0.087076
     50 H                     0.081100
     51 H                     0.084674
     52 H                     0.100080
     53 H                     0.102444
     54 H                     0.088336
     55 H                     0.089940
     56 H                     0.083296
  ----------------------------------------
  Sum of atomic charges =    -0.000000

                    Cartesian Multipole Moments
 -----------------------------------------------------------------
    Charge (ESU x 10^10)
                 0.0000
    Dipole Moment (Debye)
         X      -0.9001      Y       2.3459      Z       1.1862
       Tot       2.7785
    Quadrupole Moments (Debye-Ang)
        XX    -150.2420     XY      -5.2092     YY    -144.7148
        XZ      -6.6581     YZ       4.7875     ZZ    -170.6931

 Total job time:  83.37s(wall), 3973.97s(cpu)
        *  Thank you very much for using Q-Chem.  Have a nice day.  *
