 Q-Chem 5.0, Q-Chem, Inc., Pleasanton, CA (2017)
 Q-Chem 5.0.1 for Intel X86 EM64T Linux

User input:
--------------------------------------------------------------
$molecule
0  1
O -3.94934 -3.66094 2.70899
C -3.26408 -4.56952 2.26188
C -3.36658 -6.02376 2.66595
C -3.62738 -7.04685 1.54831
C -3.5797 -6.52313 0.13002
O -3.33803 -7.55101 -0.73628
C -4.40458 -8.50431 -0.79054
C -4.0644 -9.61817 -1.77528
O -3.84112 -9.06501 -3.08182
C -2.84536 -9.64386 -3.79773
C -2.94277 -9.35948 -5.2777
C -4.34117 -9.55047 -5.88289
C -5.48351 -9.64183 -4.89121
O -6.67161 -9.66265 -5.17852
O -2.28671 -4.26058 1.36692
O -5.22619 -10.73366 -4.09531
O -2.03252 -10.43938 -3.34335
C -6.09051 -11.76385 -3.71943
C -2.69757 -7.87507 -5.62014
C -2.24127 -7.75534 -7.07325
C -3.52413 -8.10513 -7.80103
C -4.49219 -8.20639 -6.61548
O -3.97919 -7.29819 -5.6714
H -2.16311 -9.96784 -5.7909
H -4.39979 -10.43703 -6.55314
H -1.96575 -7.38324 -4.94242
H -2.01496 -6.67894 -7.2489
H -1.35523 -8.36346 -7.35606
H -3.79134 -7.25571 -8.46798
H -3.49881 -9.05415 -8.37943
H -5.53678 -8.02074 -6.95041
O -4.23931 -5.56009 -0.23202
C -2.03955 -2.9906 0.88975
C -2.04027 -6.54021 3.24877
C -2.30165 -7.74221 4.15255
C -2.6547 -8.79199 3.12299
C -2.43173 -8.00037 1.82913
O -1.38582 -7.11727 2.14837
H -4.15582 -6.07194 3.45088
H -4.61662 -7.52544 1.71121
H -1.7721 -2.31171 1.72741
H -1.473 -5.75945 3.80215
H -1.33119 -8.01891 4.62365
H -3.06244 -7.5792 4.94598
H -1.91525 -9.62009 3.20208
H -3.68717 -9.19828 3.18889
H -2.21567 -8.71746 1.00971
H -2.93519 -2.60078 0.36032
H -1.1916 -3.02942 0.17569
H -6.18789 -11.81975 -2.61886
H -5.66967 -12.72687 -4.07389
H -7.11226 -11.66817 -4.14122
H -3.19386 -10.17656 -1.36446
H -4.93534 -10.28672 -1.76936
H -5.34113 -8.00381 -1.12653
H -4.58484 -9.00748 0.18137
$end

$opt
CONSTRAINT
tors           1           2           3           4    +123.537
tors           3           4           5           6    +157.967
tors           4           5           6           7     +65.968
tors           5           6           7           8    +179.984
tors           6           7           8           9     -58.947
tors           7           8           9          10    +142.105
tors           8           9          10          11    +161.053
tors           9          10          11          12     -46.798
tors          11          12          13          14    +172.468
ENDCONSTRAINT
$end

$rem
JOBTYPE                   OPT
METHOD                    B3LYP
DFT_D                     d3_op
BASIS                     STO-3G
GEOM_OPT_MAX_CYCLES       100
GEOM_OPT_TOL_GRADIENT     300
GEOM_OPT_TOL_DISPLACEMENT 1200
GEOM_OPT_TOL_ENERGY       100
SYMMETRY                  False
THRESH                    12
SCF_CONVERGENCE           8
MAX_SUB_FILE_NUM          128
MEM_STATIC                400
MEM_TOTAL                 4000
$end
--------------------------------------------------------------

   16   -1510.0646291092      2.90E-09 Convergence criterion met
 Total energy in the final basis set = -1510.06462911
   15   -1510.1416082401      1.77E-09 Convergence criterion met
 Total energy in the final basis set = -1510.14160824
   15   -1510.1857865422      1.99E-09 Convergence criterion met
 Total energy in the final basis set = -1510.18578654
   15   -1510.2105076426      2.07E-09 Convergence criterion met
 Total energy in the final basis set = -1510.21050764
   14   -1510.2267797377      6.12E-09 Convergence criterion met
 Total energy in the final basis set = -1510.22677974
   14   -1510.2362029032      3.39E-09 Convergence criterion met
 Total energy in the final basis set = -1510.23620290
   13   -1510.2426767197      2.91E-09 Convergence criterion met
 Total energy in the final basis set = -1510.24267672
   13   -1510.2473274198      4.47E-09 Convergence criterion met
   12   -1510.2583520786      4.08E-09 Convergence criterion met
 Total energy in the final basis set = -1510.25835208
   12   -1510.2584706276      2.20E-09 Convergence criterion met
 Total energy in the final basis set = -1510.25847063
   11   -1510.2585364161      5.22E-09 Convergence criterion met
 Total energy in the final basis set = -1510.25853642
   11   -1510.2585687532      6.06E-09 Convergence criterion met
 Total energy in the final basis set = -1510.25856875
   11   -1510.2585759651      4.04E-09 Convergence criterion met
 Total energy in the final basis set = -1510.25857597
    9   -1510.2585770788      5.53E-09 Convergence criterion met
 Total energy in the final basis set = -1510.25857708

             Standard Nuclear Orientation (Angstroms)
    I     Atom           X                Y                Z
 ----------------------------------------------------------------
    1      O      -5.0941184851    -2.4615992711     1.4414496808
    2      C      -4.6720800927    -1.6439767214     0.5947047817
    3      C      -4.6969754823    -0.0759578204     0.7192279248
    4      C      -3.2860263983     0.6250239116     0.5739716526
    5      C      -2.0742915204    -0.3861433121     0.5532610351
    6      O      -0.8604669443     0.1165931651    -0.0594498552
    7      C      -0.3001035662     1.2271285953     0.7432195285
    8      C       0.9970685248     1.7040558520     0.0146741551
    9      O       1.9276699293     0.5582796922    -0.0779076877
   10      C       2.6168649050     0.5792522696    -1.3393425151
   11      C       3.9051508191    -0.3115147086    -1.2331207946
   12      C       4.7905622522    -0.0759387994     0.0538955936
   13      C       4.6646523206     1.2944482419     0.8010498053
   14      O       5.1951645662     1.5757932848     1.8989669414
   15      O      -4.2569832430    -1.9973729535    -0.7316581787
   16      O       4.0497659464     2.2700659498    -0.0548031544
   17      O       2.2270292149     1.2108829450    -2.3454334502
   18      C       4.1303264014     3.6169913101     0.5571103693
   19      C       3.4459571628    -1.8153555803    -0.9598233696
   20      C       4.6952075782    -2.7832389823    -1.0360278947
   21      C       5.3664465105    -2.5379183344     0.3670059087
   22      C       4.4611838474    -1.3713205007     0.9210796567
   23      O       3.1082032446    -1.7777189495     0.4825442892
   24      H       4.4832945128    -0.2010040724    -2.1666877037
   25      H       5.8553964942    -0.1200268448    -0.2475797910
   26      H       2.5675528663    -2.1358985773    -1.5530835242
   27      H       4.3674059300    -3.8280561692    -1.1541255878
   28      H       5.3626104234    -2.5277217959    -1.8749796335
   29      H       5.2800635849    -3.4263168297     1.0130015791
   30      H       6.4282137454    -2.2540280843     0.2925596386
   31      H       4.4928935485    -1.2132344761     2.0166108938
   32      O      -2.1559180045    -1.5888534230     0.8823456263
   33      C      -4.2127521332    -3.4697145091    -0.8671975451
   34      C      -5.4567455263     0.5704423941    -0.5187670535
   35      C      -5.7297965232     2.1000954965    -0.2190964778
   36      C      -4.3058974306     2.7240521171    -0.4679523878
   37      C      -3.4668885368     1.4261995414    -0.7890120779
   38      O      -4.4123093091     0.5993355120    -1.5689660360
   39      H      -5.1754121355     0.1747099569     1.6817792100
   40      H      -3.1300797213     1.3293138954     1.4113863847
   41      H      -5.1896078566    -3.9349622027    -0.6229603811
   42      H      -6.3370201348    -0.0044173799    -0.8655293362
   43      H      -6.4765398823     2.5026067445    -0.9217808053
   44      H      -6.0902817989     2.2618717923     0.8094588870
   45      H      -4.3093496361     3.4035563813    -1.3351620205
   46      H      -3.9174588143     3.2687020997     0.4072709618
   47      H      -2.5265555196     1.5815720060    -1.3534220901
   48      H      -3.4363129574    -3.9098713036    -0.2082376679
   49      H      -3.9580467348    -3.6713342957    -1.9239308703
   50      H       3.1083280757     4.0014922173     0.7415284958
   51      H       4.6519989491     4.2938326929    -0.1471122295
   52      H       4.6880275425     3.5470260409     1.5133412639
   53      H       0.7676644211     2.0752055702    -1.0079318902
   54      H       1.4695261210     2.5191216443     0.6037082792
   55      H      -0.0434214591     0.8792916585     1.7692365589
   56      H      -1.0035288134     2.0862966257     0.8310338257
 ----------------------------------------------------------------

    9   -1510.2585769464      3.86E-09 Convergence criterion met
 Total energy in the final basis set = -1510.25857695
 Final energy is   -1510.25857694639
 **  OPTIMIZATION CONVERGED  **

                    Orbital Energies (a.u.)
 --------------------------------------------------------------

 Alpha MOs
 -- Occupied --
-18.941 -18.923 -18.917 -18.916 -18.903 -18.889 -18.888 -18.881
-18.870 -18.857 -10.109 -10.107 -10.097 -10.086 -10.079 -10.071
-10.065 -10.061 -10.060 -10.060 -10.059 -10.049 -10.042 -10.038
-10.037 -10.033 -10.023 -10.021 -10.020 -10.019  -1.019  -1.011
 -1.003  -0.994  -0.970  -0.969  -0.944  -0.942  -0.928  -0.920
 -0.764  -0.762  -0.727  -0.722  -0.712  -0.705  -0.700  -0.666
 -0.648  -0.609  -0.599  -0.582  -0.546  -0.546  -0.539  -0.537
 -0.516  -0.511  -0.488  -0.482  -0.469  -0.466  -0.443  -0.439
 -0.434  -0.433  -0.420  -0.418  -0.412  -0.408  -0.403  -0.400
 -0.396  -0.388  -0.377  -0.371  -0.362  -0.353  -0.350  -0.346
 -0.342  -0.338  -0.333  -0.330  -0.329  -0.327  -0.324  -0.315
 -0.311  -0.309  -0.306  -0.300  -0.295  -0.289  -0.285  -0.277
 -0.273  -0.249  -0.246  -0.240  -0.239  -0.233  -0.232  -0.182
 -0.170  -0.166  -0.164  -0.161  -0.157  -0.149  -0.143  -0.142
 -0.137

          Ground-State Mulliken Net Atomic Charges

     Atom                 Charge (a.u.)
  ----------------------------------------
      1 O                    -0.219229
      2 C                     0.212287
      3 C                    -0.080427
      4 C                    -0.085131
      5 C                     0.223184
      6 O                    -0.181541
      7 C                    -0.044329
      8 C                    -0.047280
      9 O                    -0.169433
     10 C                     0.220810
     11 C                    -0.077416
     12 C                    -0.077639
     13 C                     0.213672
     14 O                    -0.215440
     15 O                    -0.169535
     16 O                    -0.171209
     17 O                    -0.214845
     18 C                    -0.136271
     19 C                     0.026099
     20 C                    -0.145337
     21 C                    -0.142141
     22 C                     0.026585
     23 O                    -0.182581
     24 H                     0.086073
     25 H                     0.085621
     26 H                     0.086116
     27 H                     0.079095
     28 H                     0.073281
     29 H                     0.078856
     30 H                     0.073214
     31 H                     0.088037
     32 O                    -0.175510
     33 C                    -0.127790
     34 C                     0.026855
     35 C                    -0.144740
     36 C                    -0.143624
     37 C                     0.022939
     38 O                    -0.183079
     39 H                     0.083177
     40 H                     0.078587
     41 H                     0.085973
     42 H                     0.084425
     43 H                     0.078384
     44 H                     0.073625
     45 H                     0.078396
     46 H                     0.070004
     47 H                     0.087282
     48 H                     0.091280
     49 H                     0.088246
     50 H                     0.081542
     51 H                     0.088385
     52 H                     0.104240
     53 H                     0.099951
     54 H                     0.079418
     55 H                     0.084461
     56 H                     0.074429
  ----------------------------------------
  Sum of atomic charges =    -0.000000

                    Cartesian Multipole Moments
 -----------------------------------------------------------------
    Charge (ESU x 10^10)
                 0.0000
    Dipole Moment (Debye)
         X       1.4256      Y       3.1474      Z       0.2320
       Tot       3.4630
    Quadrupole Moments (Debye-Ang)
        XX    -148.6572     XY     -12.3927     YY    -150.1253
        XZ      -3.9496     YZ      10.4244     ZZ    -168.7314

 Total job time:  65.87s(wall), 3135.17s(cpu)
        *  Thank you very much for using Q-Chem.  Have a nice day.  *
