 Q-Chem 5.0, Q-Chem, Inc., Pleasanton, CA (2017)
 Q-Chem 5.0.1 for Intel X86 EM64T Linux

User input:
--------------------------------------------------------------
$molecule
0  1
O -4.3941351209 1.2639218451 1.0141924007
C -4.7423867052 0.708526805 -0.0493178871
C -4.0223166155 -0.4294414219 -0.8478474987
C -2.4670213702 -0.2071466876 -1.0801382334
C -1.845472883 1.0373415693 -0.3530321501
O -1.7059110699 0.7586317996 1.0459231039
C -0.6959788399 1.6609759066 1.6462646061
C 0.6163181578 0.8421913426 1.9283662274
O 1.6026445303 1.1415010425 0.865653326
C 2.9265605255 1.2414525623 1.4099570867
C 3.960307173 1.0699867267 0.2405750819
C 4.4091916851 -0.4162914895 -0.0980485582
C 3.6597938153 -1.608715511 0.6018809841
O 3.656051279 -2.7926887793 0.198718959
O -5.9577225525 1.020192836 -0.7471729251
O 3.0053372516 -1.1834832731 1.7970800816
O 3.1833929403 1.5037541014 2.6054268712
C 2.3127375875 -2.3242965626 2.4391570813
C 3.3926176676 1.535529106 -1.1735832475
C 4.6221695228 1.8699022887 -2.106577312
C 5.1620873901 0.4250897443 -2.4193878597
C 4.1068240301 -0.468534762 -1.6575427792
O 2.8437690328 0.2955653772 -1.7674142249
H 4.8523606309 1.6605289203 0.5166886856
H 5.4891149827 -0.5463413249 0.1034122794
H 2.6096219904 2.3160301867 -1.1183183991
H 4.2800392309 2.3792431001 -3.0215989305
H 5.3679394518 2.5066789633 -1.6047839001
H 5.1430001696 0.2092994033 -3.4993414142
H 6.1854410903 0.2640863822 -2.0447414436
H 3.9796515588 -1.4978343898 -2.0467692856
O -1.4546122732 2.0918418454 -0.9024180552
C -6.7044206181 2.0718187303 -0.0190840811
C -4.0151408616 -1.8239921171 -0.0742698483
C -3.7695247531 -2.9625731569 -1.1411376133
C -2.2447761491 -2.7452055862 -1.4639095278
C -1.8874071462 -1.559513998 -0.4814620841
O -2.7529560783 -1.8018179453 0.6954063436
H -4.5480228109 -0.5279732456 -1.8138437734
H -2.2460161097 -0.0985328267 -2.1567174472
H -6.1067600618 3.0003903982 0.0842746888
H -4.8787982272 -1.9843055662 0.599919278
H -3.9494730357 -3.9520988976 -0.6911556431
H -4.4151453648 -2.8546243185 -2.0273143032
H -1.6476394491 -3.6392079736 -1.2239643327
H -2.0677904638 -2.4752453485 -2.5171109559
H -0.8242887151 -1.5042622389 -0.1774558017
H -7.0039637221 1.7334733096 0.9940942754
H -7.6081358502 2.2778631873 -0.6216977598
H 1.8409127951 -1.9170828847 3.3521183136
H 3.02490028 -3.1286768403 2.7141683318
H 1.5344635613 -2.7528048543 1.7750595636
H 1.0552913434 1.1084289739 2.9144039316
H 0.3780719154 -0.2434955592 1.9141822861
H -1.1212666524 2.0495838821 2.5942365519
H -0.4876338485 2.5039829049 0.9519827281
$end

$rem
JOBTYPE                   OPT
METHOD                    B3LYP
DFT_D                     d3_op
BASIS                     STO-3G
GEOM_OPT_MAX_CYCLES       100
GEOM_OPT_TOL_GRADIENT     300
GEOM_OPT_TOL_DISPLACEMENT 1200
GEOM_OPT_TOL_ENERGY       100
SYMMETRY                  False
THRESH                    12
SCF_CONVERGENCE           8
MAX_SUB_FILE_NUM          128
MEM_STATIC                400
MEM_TOTAL                 4000
$end
--------------------------------------------------------------

   16   -1510.2743399605      5.41E-09 Convergence criterion met
 Total energy in the final basis set = -1510.27433996
   14   -1510.2772131257      4.11E-09 Convergence criterion met
 Total energy in the final basis set = -1510.27721313
   14   -1510.2786457704      1.67E-09 Convergence criterion met
 Total energy in the final basis set = -1510.27864577
   14   -1510.2800282795      1.50E-09 Convergence criterion met
 Total energy in the final basis set = -1510.28002828
   13   -1510.2813787903      3.54E-09 Convergence criterion met
 Total energy in the final basis set = -1510.28137879
   13   -1510.2825744240      3.60E-09 Convergence criterion met
 Total energy in the final basis set = -1510.28257442
   13   -1510.2838644037      6.26E-09 Convergence criterion met
 Total energy in the final basis set = -1510.28386440
   13   -1510.2851185240      8.91E-09 Convergence criterion met
   13   -1510.3003292017      5.12E-09 Convergence criterion met
 Total energy in the final basis set = -1510.30032920
   13   -1510.3003747802      5.73E-09 Convergence criterion met
 Total energy in the final basis set = -1510.30037478
   12   -1510.3004347446      7.28E-09 Convergence criterion met
 Total energy in the final basis set = -1510.30043474
   12   -1510.3004524787      4.83E-09 Convergence criterion met
 Total energy in the final basis set = -1510.30045248
   12   -1510.3004776844      2.18E-09 Convergence criterion met
 Total energy in the final basis set = -1510.30047768
   11   -1510.3004920375      7.95E-09 Convergence criterion met
 Total energy in the final basis set = -1510.30049204

             Standard Nuclear Orientation (Angstroms)
    I     Atom           X                Y                Z
 ----------------------------------------------------------------
    1      O      -3.3238376753     2.1534001032    -0.1228570215
    2      C      -3.7723202502     1.0772020362    -0.5780835381
    3      C      -2.9639402024    -0.0469137906    -1.3083729894
    4      C      -1.4022356728     0.0655617452    -1.0818798587
    5      C      -0.9645414227     1.1873295544    -0.0790420446
    6      O      -1.3877152106     0.8300135427     1.2463733444
    7      C      -0.7443777504     1.7295303298     2.2287178598
    8      C       0.5874522810     1.0542215907     2.7209206240
    9      O       1.3220213423     0.5369134587     1.5417225265
   10      C       2.3879752071     1.4172049012     1.1685259955
   11      C       3.0835580647     0.8647075062    -0.1168340574
   12      C       3.3390669061    -0.7021450700    -0.1605635728
   13      C       2.5885900516    -1.5069708384     0.9633390504
   14      O       1.5620248615    -2.2121218399     0.8388459428
   15      O      -5.1527674730     0.7070903156    -0.5390248039
   16      O       3.3291221263    -1.3762361800     2.1817214119
   17      O       2.6765420524     2.4647093609     1.7872704093
   18      C       2.6500531483    -2.1234877491     3.2646093462
   19      C       2.1882773188     1.0568532611    -1.4292533057
   20      C       3.1649048456     1.0762828643    -2.6660072858
   21      C       3.6076911247    -0.4357083061    -2.7165592571
   22      C       2.7177836120    -1.0611475256    -1.5699357508
   23      O       1.4898591066    -0.2370936306    -1.5835810718
   24      H       4.0354467271     1.4146626554    -0.2204756151
   25      H       4.4188833870    -0.9265891225    -0.0929586448
   26      H       1.4306439768     1.8670636289    -1.3495903145
   27      H       2.6193594928     1.3645428612    -3.5789985329
   28      H       4.0120979935     1.7665425008    -2.5275084669
   29      H       3.3670011353    -0.8967525335    -3.6873978085
   30      H       4.6838271206    -0.5679874282    -2.5206256525
   31      H       2.4637186645    -2.1319043979    -1.6912188987
   32      O      -0.2764623956     2.2010602677    -0.3444643905
   33      C      -5.9433290591     1.7638976077     0.1333518823
   34      C      -3.2501420781    -1.5112525515    -0.7564448558
   35      C      -2.7618268817    -2.5378561568    -1.8524529728
   36      C      -1.2006211117    -2.4191302289    -1.6948274939
   37      C      -1.0803939382    -1.3828506372    -0.5082337025
   38      O      -2.2647605466    -1.6781283978     0.3333704646
   39      H      -3.2127357582     0.0143223632    -2.3845118139
   40      H      -0.8680982532     0.2532653010    -2.0288567014
   41      H      -5.8611896250     2.7351987427    -0.3958972895
   42      H      -4.2827659594    -1.6603204393    -0.3855619006
   43      H      -3.1170433774    -3.5525489494    -1.6109476738
   44      H      -3.1147005473    -2.2717179454    -2.8617222847
   45      H      -0.7476706533    -3.3807755201    -1.4062447222
   46      H      -0.7033866067    -2.0552631896    -2.6080188051
   47      H      -0.1343328593    -1.4688841405     0.0719495395
   48      H      -5.6197685672     1.9074822255     1.1845204223
   49      H      -6.9933225045     1.4183111048     0.1133334295
   50      H       3.2011310192    -1.8875118986     4.1934901661
   51      H       2.6806574084    -3.2177826115     3.0846106583
   52      H       1.5900762619    -1.8164960551     3.3686149867
   53      H       1.2183901014     1.7864389127     3.2692527578
   54      H       0.3606628994     0.1785930035     3.3612918640
   55      H      -1.4472048217     1.8624151067     3.0754738406
   56      H      -0.5197907195     2.7071349044     1.7514232458
 ----------------------------------------------------------------

   11   -1510.3004927263      4.13E-09 Convergence criterion met
 Total energy in the final basis set = -1510.30049273
 Final energy is   -1510.30049272627
 **  OPTIMIZATION CONVERGED  **

                    Orbital Energies (a.u.)
 --------------------------------------------------------------

 Alpha MOs
 -- Occupied --
-18.935 -18.935 -18.932 -18.917 -18.884 -18.877 -18.875 -18.872
-18.870 -18.856 -10.101 -10.100 -10.097 -10.088 -10.068 -10.064
-10.063 -10.061 -10.057 -10.049 -10.047 -10.037 -10.035 -10.033
-10.029 -10.020 -10.019 -10.017 -10.007 -10.001  -1.018  -1.011
 -1.007  -0.994  -0.969  -0.953  -0.938  -0.935  -0.933  -0.921
 -0.761  -0.750  -0.724  -0.712  -0.705  -0.698  -0.685  -0.662
 -0.658  -0.610  -0.591  -0.576  -0.542  -0.535  -0.532  -0.520
 -0.508  -0.502  -0.484  -0.472  -0.462  -0.456  -0.442  -0.437
 -0.428  -0.421  -0.418  -0.416  -0.411  -0.408  -0.404  -0.397
 -0.389  -0.373  -0.369  -0.364  -0.360  -0.356  -0.349  -0.345
 -0.342  -0.337  -0.331  -0.324  -0.321  -0.317  -0.309  -0.305
 -0.302  -0.302  -0.298  -0.294  -0.289  -0.280  -0.275  -0.269
 -0.262  -0.252  -0.251  -0.243  -0.232  -0.229  -0.217  -0.182
 -0.177  -0.175  -0.160  -0.153  -0.152  -0.149  -0.143  -0.140
 -0.127

          Ground-State Mulliken Net Atomic Charges

     Atom                 Charge (a.u.)
  ----------------------------------------
      1 O                    -0.210796
      2 C                     0.213570
      3 C                    -0.079685
      4 C                    -0.078491
      5 C                     0.224706
      6 O                    -0.168291
      7 C                    -0.052263
      8 C                    -0.052026
      9 O                    -0.174041
     10 C                     0.214405
     11 C                    -0.080666
     12 C                    -0.078889
     13 C                     0.221307
     14 O                    -0.216052
     15 O                    -0.169734
     16 O                    -0.172672
     17 O                    -0.211283
     18 C                    -0.128198
     19 C                     0.016332
     20 C                    -0.143248
     21 C                    -0.145302
     22 C                     0.024694
     23 O                    -0.193888
     24 H                     0.085538
     25 H                     0.084943
     26 H                     0.105203
     27 H                     0.077431
     28 H                     0.074211
     29 H                     0.076678
     30 H                     0.072796
     31 H                     0.085388
     32 O                    -0.229832
     33 C                    -0.127884
     34 C                     0.024498
     35 C                    -0.144215
     36 C                    -0.143953
     37 C                     0.022231
     38 O                    -0.191182
     39 H                     0.083547
     40 H                     0.089674
     41 H                     0.089330
     42 H                     0.084540
     43 H                     0.074376
     44 H                     0.069418
     45 H                     0.075637
     46 H                     0.072707
     47 H                     0.107793
     48 H                     0.090261
     49 H                     0.090607
     50 H                     0.089460
     51 H                     0.087573
     52 H                     0.090310
     53 H                     0.099124
     54 H                     0.086223
     55 H                     0.087456
     56 H                     0.100625
  ----------------------------------------
  Sum of atomic charges =    -0.000000

                    Cartesian Multipole Moments
 -----------------------------------------------------------------
    Charge (ESU x 10^10)
                -0.0000
    Dipole Moment (Debye)
         X       0.3281      Y      -1.0396      Z      -0.4397
       Tot       1.1755
    Quadrupole Moments (Debye-Ang)
        XX    -144.1199     XY      -8.6844     YY    -165.9658
        XZ      -1.9985     YZ       0.1041     ZZ    -147.5075

 Total job time:  128.01s(wall), 6103.89s(cpu)
        *  Thank you very much for using Q-Chem.  Have a nice day.  *
