 Q-Chem 5.0, Q-Chem, Inc., Pleasanton, CA (2017)
 Q-Chem 5.0.1 for Intel X86 EM64T Linux

User input:
--------------------------------------------------------------
$molecule
0  1
O -3.94934 -3.66094 2.70899
C -3.26408 -4.56952 2.26188
C -3.36658 -6.02376 2.66595
C -3.41669 -6.33291 4.1712
C -3.53792 -5.14515 5.09996
O -4.81318 -4.65735 5.06538
C -5.15006 -3.87957 6.219
C -6.08801 -4.66686 7.12814
O -5.35378 -5.20915 8.23706
C -5.9963 -5.18194 9.43103
C -5.40739 -6.14095 10.43808
C -5.98987 -7.56127 10.39686
C -6.79 -7.91164 9.15842
O -7.04552 -9.04457 8.77665
O -2.2765 -4.26597 1.37886
O -7.62131 -6.95714 8.6576
O -6.80654 -4.32103 9.75097
C -8.56028 -7.15805 7.66388
C -3.90408 -6.43028 10.25288
C -3.30307 -6.91419 11.57146
C -3.92233 -8.29219 11.67382
C -4.66907 -8.359 10.3369
O -3.87448 -7.59242 9.46398
H -5.55932 -5.67857 11.44017
H -6.60691 -7.82679 11.28299
H -3.33238 -5.55737 9.86827
H -2.20709 -7.02834 11.40972
H -3.4771 -6.24962 12.44491
H -3.10165 -9.04326 11.69995
H -4.60668 -8.44469 12.53633
H -4.82411 -9.42064 10.04331
O -2.69749 -4.87331 5.94925
C -2.01944 -2.99594 0.90645
C -4.70402 -6.66174 2.22592
C -4.53798 -8.17597 2.09572
C -4.42391 -8.57509 3.55387
C -4.67415 -7.22253 4.23028
O -5.54739 -6.56003 3.3475
H -2.54411 -6.56942 2.14868
H -2.49959 -6.88082 4.4842
H -1.75827 -2.31939 1.74808
H -5.09877 -6.23636 1.27711
H -5.49847 -8.57293 1.69512
H -3.70477 -8.51496 1.44334
H -5.24297 -9.29095 3.78764
H -3.44396 -9.00586 3.85326
H -5.03839 -7.36299 5.27219
H -2.90801 -2.60125 0.36865
H -1.16415 -3.03624 0.20122
H -9.07684 -6.1993 7.45316
H -9.31399 -7.90479 7.99269
H -8.06405 -7.51026 6.73411
H -6.86068 -3.94344 7.47342
H -6.62139 -5.45278 6.55478
H -5.73463 -3.03226 5.79907
H -4.32188 -3.38245 6.77332
$end

$opt
CONSTRAINT
tors           1           2           3           4     -47.368
tors           3           4           5           6     +75.018
tors           4           5           6           7    +158.888
tors           5           6           7           8    -106.090
tors           6           7           8           9    +101.723
tors           7           8           9          10    +140.964
tors           8           9          10          11    +161.053
tors           9          10          11          12     -88.167
tors          11          12          13          14    +160.684
ENDCONSTRAINT
$end

$rem
JOBTYPE                   OPT
METHOD                    B3LYP
DFT_D                     d3_op
BASIS                     STO-3G
GEOM_OPT_MAX_CYCLES       100
GEOM_OPT_TOL_GRADIENT     300
GEOM_OPT_TOL_DISPLACEMENT 1200
GEOM_OPT_TOL_ENERGY       100
SYMMETRY                  False
THRESH                    12
SCF_CONVERGENCE           8
MAX_SUB_FILE_NUM          128
MEM_STATIC                400
MEM_TOTAL                 4000
$end
--------------------------------------------------------------

   15   -1510.1398306037      8.76E-09 Convergence criterion met
 Total energy in the final basis set = -1510.13983060
   13   -1510.2105526514      7.00E-09 Convergence criterion met
 Total energy in the final basis set = -1510.21055265
   14   -1510.2483401569      7.28E-09 Convergence criterion met
 Total energy in the final basis set = -1510.24834016
   13   -1510.2648265920      9.29E-09 Convergence criterion met
 Total energy in the final basis set = -1510.26482659
   14   -1510.2705319037      5.07E-09 Convergence criterion met
 Total energy in the final basis set = -1510.27053190
   13   -1510.2726491350      6.47E-09 Convergence criterion met
 Total energy in the final basis set = -1510.27264914
   13   -1510.2738092537      1.97E-09 Convergence criterion met
 Total energy in the final basis set = -1510.27380925
   12   -1510.2741480094      6.99E-09 Convergence criterion met
   11   -1510.2743964778      7.14E-09 Convergence criterion met
 Total energy in the final basis set = -1510.27439648
   11   -1510.2744253494      4.03E-09 Convergence criterion met
 Total energy in the final basis set = -1510.27442535
   10   -1510.2744408164      8.35E-09 Convergence criterion met
 Total energy in the final basis set = -1510.27444082
    9   -1510.2744494804      9.66E-09 Convergence criterion met
 Total energy in the final basis set = -1510.27444948
    9   -1510.2744527677      5.51E-09 Convergence criterion met
 Total energy in the final basis set = -1510.27445277
    9   -1510.2744541726      3.82E-09 Convergence criterion met
 Total energy in the final basis set = -1510.27445417

             Standard Nuclear Orientation (Angstroms)
    I     Atom           X                Y                Z
 ----------------------------------------------------------------
    1      O      -4.3941351209     1.2639218451     1.0141924007
    2      C      -4.7423867052     0.7085268050    -0.0493178871
    3      C      -4.0223166155    -0.4294414219    -0.8478474987
    4      C      -2.4670213702    -0.2071466876    -1.0801382334
    5      C      -1.8454728830     1.0373415693    -0.3530321501
    6      O      -1.7059110699     0.7586317996     1.0459231039
    7      C      -0.6959788399     1.6609759066     1.6462646061
    8      C       0.6163181578     0.8421913426     1.9283662274
    9      O       1.6026445303     1.1415010425     0.8656533260
   10      C       2.9265605255     1.2414525623     1.4099570867
   11      C       3.9603071730     1.0699867267     0.2405750819
   12      C       4.4091916851    -0.4162914895    -0.0980485582
   13      C       3.6597938153    -1.6087155110     0.6018809841
   14      O       3.6560512790    -2.7926887793     0.1987189590
   15      O      -5.9577225525     1.0201928360    -0.7471729251
   16      O       3.0053372516    -1.1834832731     1.7970800816
   17      O       3.1833929403     1.5037541014     2.6054268712
   18      C       2.3127375875    -2.3242965626     2.4391570813
   19      C       3.3926176676     1.5355291060    -1.1735832475
   20      C       4.6221695228     1.8699022887    -2.1065773120
   21      C       5.1620873901     0.4250897443    -2.4193878597
   22      C       4.1068240301    -0.4685347620    -1.6575427792
   23      O       2.8437690328     0.2955653772    -1.7674142249
   24      H       4.8523606309     1.6605289203     0.5166886856
   25      H       5.4891149827    -0.5463413249     0.1034122794
   26      H       2.6096219904     2.3160301867    -1.1183183991
   27      H       4.2800392309     2.3792431001    -3.0215989305
   28      H       5.3679394518     2.5066789633    -1.6047839001
   29      H       5.1430001696     0.2092994033    -3.4993414142
   30      H       6.1854410903     0.2640863822    -2.0447414436
   31      H       3.9796515588    -1.4978343898    -2.0467692856
   32      O      -1.4546122732     2.0918418454    -0.9024180552
   33      C      -6.7044206181     2.0718187303    -0.0190840811
   34      C      -4.0151408616    -1.8239921171    -0.0742698483
   35      C      -3.7695247531    -2.9625731569    -1.1411376133
   36      C      -2.2447761491    -2.7452055862    -1.4639095278
   37      C      -1.8874071462    -1.5595139980    -0.4814620841
   38      O      -2.7529560783    -1.8018179453     0.6954063436
   39      H      -4.5480228109    -0.5279732456    -1.8138437734
   40      H      -2.2460161097    -0.0985328267    -2.1567174472
   41      H      -6.1067600618     3.0003903982     0.0842746888
   42      H      -4.8787982272    -1.9843055662     0.5999192780
   43      H      -3.9494730357    -3.9520988976    -0.6911556431
   44      H      -4.4151453648    -2.8546243185    -2.0273143032
   45      H      -1.6476394491    -3.6392079736    -1.2239643327
   46      H      -2.0677904638    -2.4752453485    -2.5171109559
   47      H      -0.8242887151    -1.5042622389    -0.1774558017
   48      H      -7.0039637221     1.7334733096     0.9940942754
   49      H      -7.6081358502     2.2778631873    -0.6216977598
   50      H       1.8409127951    -1.9170828847     3.3521183136
   51      H       3.0249002800    -3.1286768403     2.7141683318
   52      H       1.5344635613    -2.7528048543     1.7750595636
   53      H       1.0552913434     1.1084289739     2.9144039316
   54      H       0.3780719154    -0.2434955592     1.9141822861
   55      H      -1.1212666524     2.0495838821     2.5942365519
   56      H      -0.4876338485     2.5039829049     0.9519827281
 ----------------------------------------------------------------

    9   -1510.2744550117      2.84E-09 Convergence criterion met
 Total energy in the final basis set = -1510.27445501
 Final energy is   -1510.27445501173
 **  OPTIMIZATION CONVERGED  **

                    Orbital Energies (a.u.)
 --------------------------------------------------------------

 Alpha MOs
 -- Occupied --
-18.945 -18.932 -18.923 -18.919 -18.888 -18.886 -18.877 -18.874
-18.869 -18.867 -10.104 -10.096 -10.096 -10.093 -10.070 -10.062
-10.061 -10.060 -10.060 -10.059 -10.058 -10.057 -10.040 -10.036
-10.035 -10.034 -10.020 -10.019 -10.019 -10.018  -1.019  -1.009
 -1.004  -0.999  -0.969  -0.969  -0.941  -0.933  -0.932  -0.925
 -0.762  -0.761  -0.724  -0.721  -0.711  -0.705  -0.689  -0.667
 -0.661  -0.611  -0.596  -0.576  -0.545  -0.543  -0.536  -0.536
 -0.513  -0.510  -0.487  -0.478  -0.468  -0.458  -0.441  -0.437
 -0.432  -0.432  -0.419  -0.416  -0.410  -0.410  -0.408  -0.404
 -0.389  -0.376  -0.375  -0.370  -0.362  -0.354  -0.346  -0.345
 -0.339  -0.337  -0.333  -0.331  -0.329  -0.327  -0.322  -0.312
 -0.308  -0.306  -0.305  -0.297  -0.295  -0.293  -0.278  -0.275
 -0.273  -0.253  -0.249  -0.239  -0.237  -0.234  -0.232  -0.184
 -0.176  -0.169  -0.161  -0.158  -0.151  -0.148  -0.145  -0.143
 -0.141

          Ground-State Mulliken Net Atomic Charges

     Atom                 Charge (a.u.)
  ----------------------------------------
      1 O                    -0.207413
      2 C                     0.205023
      3 C                    -0.079901
      4 C                    -0.078462
      5 C                     0.211278
      6 O                    -0.164171
      7 C                    -0.053903
      8 C                    -0.053689
      9 O                    -0.179337
     10 C                     0.219282
     11 C                    -0.081103
     12 C                    -0.077655
     13 C                     0.211521
     14 O                    -0.214951
     15 O                    -0.170940
     16 O                    -0.167713
     17 O                    -0.216614
     18 C                    -0.126827
     19 C                     0.026281
     20 C                    -0.143859
     21 C                    -0.144628
     22 C                     0.024159
     23 O                    -0.189622
     24 H                     0.082539
     25 H                     0.086043
     26 H                     0.089646
     27 H                     0.078105
     28 H                     0.073322
     29 H                     0.078096
     30 H                     0.073189
     31 H                     0.087979
     32 O                    -0.213485
     33 C                    -0.129322
     34 C                     0.026505
     35 C                    -0.143193
     36 C                    -0.144643
     37 C                     0.027774
     38 O                    -0.184774
     39 H                     0.086620
     40 H                     0.086564
     41 H                     0.090048
     42 H                     0.082951
     43 H                     0.077564
     44 H                     0.074265
     45 H                     0.077755
     46 H                     0.075054
     47 H                     0.083793
     48 H                     0.087877
     49 H                     0.089754
     50 H                     0.094696
     51 H                     0.092374
     52 H                     0.090904
     53 H                     0.096478
     54 H                     0.086026
     55 H                     0.088812
     56 H                     0.103927
  ----------------------------------------
  Sum of atomic charges =    -0.000000

                    Cartesian Multipole Moments
 -----------------------------------------------------------------
    Charge (ESU x 10^10)
                -0.0000
    Dipole Moment (Debye)
         X      -0.2513      Y      -0.8486      Z      -1.0216
       Tot       1.3516
    Quadrupole Moments (Debye-Ang)
        XX    -139.8006     XY       2.8508     YY    -159.5653
        XZ      -1.2523     YZ      -1.5202     ZZ    -161.4315

 Total job time:  49.44s(wall), 2353.56s(cpu)
        *  Thank you very much for using Q-Chem.  Have a nice day.  *
