 Q-Chem 5.0, Q-Chem, Inc., Pleasanton, CA (2017)
 Q-Chem 5.0.1 for Intel X86 EM64T Linux

User input:
--------------------------------------------------------------
$molecule
0  1
O -3.94934 -3.66094 2.70899
C -3.26408 -4.56952 2.26188
C -3.36658 -6.02376 2.66595
C -2.97023 -7.07442 1.61577
C -2.34713 -6.55154 0.34046
O -1.33456 -7.37875 -0.05432
C -1.11271 -7.36208 -1.46845
C -0.56857 -8.70968 -1.93106
O -0.45439 -9.60187 -0.81131
C -0.79908 -10.89063 -1.05507
C 0.35849 -11.84834 -0.90188
C 1.53627 -11.59795 -1.855
C 1.54756 -10.25243 -2.55224
O 2.52482 -9.72968 -3.06824
O -2.1137 -4.20525 1.63123
O 0.53635 -10.37226 -3.47694
O -1.92165 -11.22558 -1.40383
C 0.46678 -9.81614 -4.75219
C 1.04553 -11.75982 0.47048
C 1.78181 -13.06577 0.7615
C 2.92653 -12.9682 -0.22581
C 2.67226 -11.57164 -0.80657
O 2.1023 -10.85764 0.26427
H -0.05428 -12.87287 -1.04557
H 1.70204 -12.4005 -2.60954
H 0.34234 -11.51441 1.2965
H 2.19364 -12.98692 1.79322
H 1.16436 -13.98631 0.68222
H 3.88186 -12.98538 0.34458
H 2.94122 -13.74797 -1.01774
H 3.6198 -11.15534 -1.21441
O -2.9307 -5.7689 -0.4027
C -1.78747 -2.91367 1.27234
C -2.36532 -6.36156 3.79204
C -2.88111 -7.54868 4.59905
C -2.70545 -8.66353 3.59278
C -1.97914 -7.91084 2.46891
O -1.25074 -6.91218 3.13509
H -4.39592 -6.17146 3.06498
H -3.85406 -7.67032 1.29792
H -1.73018 -2.26638 2.17317
H -2.15654 -5.5036 4.46882
H -2.15939 -7.70447 5.43321
H -3.90485 -7.44463 5.01846
H -2.05267 -9.44251 4.04603
H -3.64763 -9.12336 3.22337
H -1.38255 -8.64647 1.88887
H -2.54642 -2.51179 0.56744
H -0.79895 -2.91527 0.76931
H -0.44818 -9.19924 -4.85219
H 0.41122 -10.63483 -5.49832
H 1.33715 -9.17385 -5.00022
H -1.22282 -9.08758 -2.74899
H 0.41232 -8.32054 -2.24864
H -0.5039 -6.4771 -1.77106
H -2.08335 -7.26245 -2.01188
$end

$opt
CONSTRAINT
tors           1           2           3           4    +151.515
tors           3           4           5           6    +140.646
tors           4           5           6           7    +152.512
tors           5           6           7           8    -150.579
tors           6           7           8           9      +0.654
tors           7           8           9          10    +140.717
tors           8           9          10          11    +116.148
tors           9          10          11          12     -61.185
tors          11          12          13          14    +160.684
ENDCONSTRAINT
$end

$rem
JOBTYPE                   OPT
METHOD                    B3LYP
DFT_D                     d3_op
BASIS                     STO-3G
GEOM_OPT_MAX_CYCLES       100
GEOM_OPT_TOL_GRADIENT     300
GEOM_OPT_TOL_DISPLACEMENT 1200
GEOM_OPT_TOL_ENERGY       100
SYMMETRY                  False
THRESH                    12
SCF_CONVERGENCE           8
MAX_SUB_FILE_NUM          128
MEM_STATIC                400
MEM_TOTAL                 4000
$end
--------------------------------------------------------------

   16   -1510.0586591315      4.02E-09 Convergence criterion met
 Total energy in the final basis set = -1510.05865913
   14   -1510.1360090778      8.07E-09 Convergence criterion met
 Total energy in the final basis set = -1510.13600908
   15   -1510.1802356004      1.53E-09 Convergence criterion met
 Total energy in the final basis set = -1510.18023560
   14   -1510.2089522534      8.48E-09 Convergence criterion met
 Total energy in the final basis set = -1510.20895225
   14   -1510.2239368068      2.46E-09 Convergence criterion met
 Total energy in the final basis set = -1510.22393681
   14   -1510.2326888617      2.80E-09 Convergence criterion met
 Total energy in the final basis set = -1510.23268886
   12   -1510.2379117756      9.14E-09 Convergence criterion met
 Total energy in the final basis set = -1510.23791178
   12   -1510.2411913341      8.54E-09 Convergence criterion met
    9   -1510.2496916992      3.33E-09 Convergence criterion met
 Total energy in the final basis set = -1510.24969170
    9   -1510.2496935555      3.03E-09 Convergence criterion met
 Total energy in the final basis set = -1510.24969356
    9   -1510.2496831486      3.01E-09 Convergence criterion met
 Total energy in the final basis set = -1510.24968315
    9   -1510.2496842777      3.67E-09 Convergence criterion met
 Total energy in the final basis set = -1510.24968428
    8   -1510.2496988693      8.61E-09 Convergence criterion met
 Total energy in the final basis set = -1510.24969887
    8   -1510.2496968982      1.00E-08 Convergence criterion met
 Total energy in the final basis set = -1510.24969690

             Standard Nuclear Orientation (Angstroms)
    I     Atom           X                Y                Z
 ----------------------------------------------------------------
    1      O      -6.2583904568    -0.6611887290    -0.6731976704
    2      C      -5.0580001715    -0.3465597364    -0.5235989638
    3      C      -4.4516297373     0.5851990987     0.5799697995
    4      C      -2.9519184679     0.2516589425     0.9561692354
    5      C      -2.4443695294    -1.1514067456     0.4549605804
    6      O      -1.0930916651    -1.0004290678     0.0046577548
    7      C      -0.3353527742    -2.2641642952     0.1359883993
    8      C       1.1789050088    -1.8546591550     0.3723956862
    9      O       1.2554180576    -0.3823009961     0.3876662493
   10      C       2.1770431290     0.1221771843     1.3901423195
   11      C       3.3944294055     0.8905337581     0.7448714863
   12      C       4.3358433785     0.0669347601    -0.2231373696
   13      C       4.3303421642    -1.4921944667    -0.1124887036
   14      O       4.7266916065    -2.3005375963    -0.9811231181
   15      O      -4.0203820973    -0.6770993636    -1.4562601148
   16      O       3.9788735285    -1.8646462858     1.2285081115
   17      O       1.9769959139    -0.0021783951     2.6170669513
   18      C       4.1652658373    -3.3221001849     1.4263517021
   19      C       2.8115722111     1.9456579949    -0.3034164047
   20      C       3.9661281338     2.9197886255    -0.7742717503
   21      C       4.7303229209     2.0162368201    -1.8133130337
   22      C       3.9478182768     0.6559846508    -1.6481442126
   23      O       2.5469708159     1.1027300425    -1.4921240258
   24      H       3.9671008013     1.3700137326     1.5577970801
   25      H       5.3832090498     0.3486955641     0.0029144210
   26      H       1.8809803363     2.4465627138     0.0269878499
   27      H       3.5434244848     3.8185718452    -1.2505121512
   28      H       4.6053221029     3.2336970120     0.0666330696
   29      H       4.6147797281     2.3998966658    -2.8396807918
   30      H       5.8046867465     1.9173421461    -1.5907216682
   31      H       4.0455436634    -0.0648631333    -2.4832402789
   32      O      -3.0105689114    -2.2548604481     0.6164788192
   33      C      -4.5427402252    -1.5702601063    -2.5133667909
   34      C      -4.2618357203     2.0438261752    -0.0346470405
   35      C      -3.8881470804     3.0475573152     1.1288012972
   36      C      -2.3681653960     2.7059728288     1.3542289280
   37      C      -2.1825335423     1.5013630096     0.3522519894
   38      O      -3.0088131780     1.9073063509    -0.8095186495
   39      H      -5.1239747242     0.5839631703     1.4552470467
   40      H      -2.8359488352     0.2295140938     2.0566242399
   41      H      -5.4354148826    -1.1370842500    -3.0084899472
   42      H      -5.0915647867     2.3737450690    -0.6899271891
   43      H      -4.0273435948     4.0895386700     0.7998897197
   44      H      -4.5001543053     2.8773849131     2.0291347671
   45      H      -1.7205140328     3.5484270688     1.0633414355
   46      H      -2.1407035850     2.4269600664     2.3954430377
   47      H      -1.1436247003     1.2748491130     0.0428660786
   48      H      -4.8125965205    -2.5649695325    -2.1025307599
   49      H      -3.7250654178    -1.6839196462    -3.2485962054
   50      H       3.2162772132    -3.7617910819     1.7885940952
   51      H       4.9549834782    -3.4825894194     2.1862395338
   52      H       4.4622228747    -3.7868793866     0.4643750834
   53      H       1.5348185769    -2.2930112197     1.3270229615
   54      H       1.8085514563    -2.2482216779    -0.4562954531
   55      H      -0.4323492277    -2.8741117511    -0.7890107459
   56      H      -0.7315203765    -2.8653154516     0.9816143097
 ----------------------------------------------------------------

    9   -1510.2496971745      2.12E-09 Convergence criterion met
 Total energy in the final basis set = -1510.24969717
 Final energy is   -1510.24969717448
 **  OPTIMIZATION CONVERGED  **

                    Orbital Energies (a.u.)
 --------------------------------------------------------------

 Alpha MOs
 -- Occupied --
-18.945 -18.929 -18.923 -18.902 -18.893 -18.891 -18.888 -18.881
-18.867 -18.862 -10.112 -10.105 -10.094 -10.091 -10.073 -10.068
-10.067 -10.063 -10.062 -10.057 -10.055 -10.048 -10.046 -10.040
-10.031 -10.030 -10.023 -10.022 -10.016 -10.014  -1.023  -1.008
 -1.003  -0.997  -0.973  -0.963  -0.948  -0.937  -0.929  -0.922
 -0.768  -0.757  -0.727  -0.719  -0.713  -0.704  -0.690  -0.669
 -0.653  -0.611  -0.600  -0.576  -0.550  -0.541  -0.538  -0.531
 -0.520  -0.506  -0.490  -0.474  -0.470  -0.457  -0.450  -0.436
 -0.434  -0.428  -0.427  -0.420  -0.416  -0.406  -0.405  -0.402
 -0.393  -0.387  -0.372  -0.365  -0.359  -0.356  -0.351  -0.347
 -0.345  -0.338  -0.335  -0.333  -0.330  -0.323  -0.318  -0.315
 -0.309  -0.303  -0.299  -0.298  -0.290  -0.287  -0.285  -0.281
 -0.268  -0.259  -0.245  -0.242  -0.237  -0.230  -0.226  -0.187
 -0.172  -0.171  -0.164  -0.159  -0.154  -0.149  -0.142  -0.141
 -0.135

          Ground-State Mulliken Net Atomic Charges

     Atom                 Charge (a.u.)
  ----------------------------------------
      1 O                    -0.214693
      2 C                     0.211963
      3 C                    -0.079288
      4 C                    -0.077008
      5 C                     0.219128
      6 O                    -0.167303
      7 C                    -0.046258
      8 C                    -0.041680
      9 O                    -0.187595
     10 C                     0.222609
     11 C                    -0.078778
     12 C                    -0.079383
     13 C                     0.209266
     14 O                    -0.212977
     15 O                    -0.164626
     16 O                    -0.172464
     17 O                    -0.190985
     18 C                    -0.137276
     19 C                     0.026927
     20 C                    -0.145318
     21 C                    -0.142211
     22 C                     0.025133
     23 O                    -0.181867
     24 H                     0.084766
     25 H                     0.087261
     26 H                     0.084036
     27 H                     0.079239
     28 H                     0.073361
     29 H                     0.079312
     30 H                     0.073181
     31 H                     0.089243
     32 O                    -0.222690
     33 C                    -0.126979
     34 C                     0.025264
     35 C                    -0.144661
     36 C                    -0.143508
     37 C                     0.022454
     38 O                    -0.187879
     39 H                     0.084817
     40 H                     0.082902
     41 H                     0.090377
     42 H                     0.081437
     43 H                     0.076793
     44 H                     0.073077
     45 H                     0.075646
     46 H                     0.072906
     47 H                     0.101146
     48 H                     0.089458
     49 H                     0.091309
     50 H                     0.085450
     51 H                     0.088849
     52 H                     0.103548
     53 H                     0.085526
     54 H                     0.078739
     55 H                     0.082693
     56 H                     0.087610
  ----------------------------------------
  Sum of atomic charges =    -0.000000

                    Cartesian Multipole Moments
 -----------------------------------------------------------------
    Charge (ESU x 10^10)
                 0.0000
    Dipole Moment (Debye)
         X       3.5384      Y       0.6322      Z       0.9878
       Tot       3.7277
    Quadrupole Moments (Debye-Ang)
        XX    -160.1482     XY      -3.8244     YY    -150.2598
        XZ       0.9212     YZ       1.4496     ZZ    -161.5829

 Total job time:  78.78s(wall), 3752.42s(cpu)
        *  Thank you very much for using Q-Chem.  Have a nice day.  *
