 Q-Chem 5.0, Q-Chem, Inc., Pleasanton, CA (2017)
 Q-Chem 5.0.1 for Intel X86 EM64T Linux

User input:
--------------------------------------------------------------
$molecule
0  1
O -6.2583904568 -0.661188729 -0.6731976704
C -5.0580001715 -0.3465597364 -0.5235989638
C -4.4516297373 0.5851990987 0.5799697995
C -2.9519184679 0.2516589425 0.9561692354
C -2.4443695294 -1.1514067456 0.4549605804
O -1.0930916651 -1.0004290678 0.0046577548
C -0.3353527742 -2.2641642952 0.1359883993
C 1.1789050088 -1.854659155 0.3723956862
O 1.2554180576 -0.3823009961 0.3876662493
C 2.177043129 0.1221771843 1.3901423195
C 3.3944294055 0.8905337581 0.7448714863
C 4.3358433785 0.0669347601 -0.2231373696
C 4.3303421642 -1.4921944667 -0.1124887036
O 4.7266916065 -2.3005375963 -0.9811231181
O -4.0203820973 -0.6770993636 -1.4562601148
O 3.9788735285 -1.8646462858 1.2285081115
O 1.9769959139 -0.0021783951 2.6170669513
C 4.1652658373 -3.3221001849 1.4263517021
C 2.8115722111 1.9456579949 -0.3034164047
C 3.9661281338 2.9197886255 -0.7742717503
C 4.7303229209 2.0162368201 -1.8133130337
C 3.9478182768 0.6559846508 -1.6481442126
O 2.5469708159 1.1027300425 -1.4921240258
H 3.9671008013 1.3700137326 1.5577970801
H 5.3832090498 0.3486955641 0.002914421
H 1.8809803363 2.4465627138 0.0269878499
H 3.5434244848 3.8185718452 -1.2505121512
H 4.6053221029 3.233697012 0.0666330696
H 4.6147797281 2.3998966658 -2.8396807918
H 5.8046867465 1.9173421461 -1.5907216682
H 4.0455436634 -0.0648631333 -2.4832402789
O -3.0105689114 -2.2548604481 0.6164788192
C -4.5427402252 -1.5702601063 -2.5133667909
C -4.2618357203 2.0438261752 -0.0346470405
C -3.8881470804 3.0475573152 1.1288012972
C -2.368165396 2.7059728288 1.354228928
C -2.1825335423 1.5013630096 0.3522519894
O -3.008813178 1.9073063509 -0.8095186495
H -5.1239747242 0.5839631703 1.4552470467
H -2.8359488352 0.2295140938 2.0566242399
H -5.4354148826 -1.13708425 -3.0084899472
H -5.0915647867 2.373745069 -0.6899271891
H -4.0273435948 4.08953867 0.7998897197
H -4.5001543053 2.8773849131 2.0291347671
H -1.7205140328 3.5484270688 1.0633414355
H -2.140703585 2.4269600664 2.3954430377
H -1.1436247003 1.274849113 0.0428660786
H -4.8125965205 -2.5649695325 -2.1025307599
H -3.7250654178 -1.6839196462 -3.2485962054
H 3.2162772132 -3.7617910819 1.7885940952
H 4.9549834782 -3.4825894194 2.1862395338
H 4.4622228747 -3.7868793866 0.4643750834
H 1.5348185769 -2.2930112197 1.3270229615
H 1.8085514563 -2.2482216779 -0.4562954531
H -0.4323492277 -2.8741117511 -0.7890107459
H -0.7315203765 -2.8653154516 0.9816143097
$end

$rem
JOBTYPE                   OPT
METHOD                    B3LYP
DFT_D                     d3_op
BASIS                     STO-3G
GEOM_OPT_MAX_CYCLES       100
GEOM_OPT_TOL_GRADIENT     300
GEOM_OPT_TOL_DISPLACEMENT 1200
GEOM_OPT_TOL_ENERGY       100
SYMMETRY                  False
THRESH                    12
SCF_CONVERGENCE           8
MAX_SUB_FILE_NUM          128
MEM_STATIC                400
MEM_TOTAL                 4000
$end
--------------------------------------------------------------

   16   -1510.2495608697      5.92E-09 Convergence criterion met
 Total energy in the final basis set = -1510.24956087
   15   -1510.2555233078      2.61E-09 Convergence criterion met
 Total energy in the final basis set = -1510.25552331
   14   -1510.2621452793      7.80E-09 Convergence criterion met
 Total energy in the final basis set = -1510.26214528
   14   -1510.2683048958      8.71E-09 Convergence criterion met
 Total energy in the final basis set = -1510.26830490
   14   -1510.2751582053      4.77E-09 Convergence criterion met
 Total energy in the final basis set = -1510.27515821
   15   -1510.2723416535      4.01E-09 Convergence criterion met
 Total energy in the final basis set = -1510.27234165
   14   -1510.2802325623      9.09E-09 Convergence criterion met
 Total energy in the final basis set = -1510.28023256
   14   -1510.2826207623      7.55E-09 Convergence criterion met
   12   -1510.2922783055      6.78E-09 Convergence criterion met
 Total energy in the final basis set = -1510.29227831
   11   -1510.2922895123      8.12E-09 Convergence criterion met
 Total energy in the final basis set = -1510.29228951
   11   -1510.2922959939      3.63E-09 Convergence criterion met
 Total energy in the final basis set = -1510.29229599
   12   -1510.2923094753      2.56E-09 Convergence criterion met
 Total energy in the final basis set = -1510.29230948
   12   -1510.2923189467      3.64E-09 Convergence criterion met
 Total energy in the final basis set = -1510.29231895
    9   -1510.2923224715      9.60E-09 Convergence criterion met
 Total energy in the final basis set = -1510.29232247

             Standard Nuclear Orientation (Angstroms)
    I     Atom           X                Y                Z
 ----------------------------------------------------------------
    1      O       5.4520351407    -0.7953220303    -0.6235203828
    2      C       4.3548359082    -0.4534243145    -0.1317163586
    3      C       3.5987096765     0.8968358702    -0.3476505963
    4      C       2.0463383604     0.7484469497    -0.6595147195
    5      C       1.5568438606    -0.7473433766    -0.6486221754
    6      O       0.7971765808    -0.9998714586     0.5376766428
    7      C       0.3120303607    -2.3986135914     0.5579122590
    8      C      -0.8906539889    -2.6008461917    -0.4346744805
    9      O      -1.7502211059    -1.4024504955    -0.3073956693
   10      C      -2.1743925833    -0.9183778760    -1.5860644021
   11      C      -2.8690180207     0.4653110281    -1.3541389113
   12      C      -3.7349361001     0.5377586278    -0.0289053476
   13      C      -3.9517761049    -0.8464692107     0.6786819454
   14      O      -3.7568595057    -1.1231417908     1.8812173990
   15      O       3.5878245734    -1.2712092417     0.7614963245
   16      O      -4.5134641246    -1.7483915333    -0.2887858330
   17      O      -1.9382935889    -1.4849796878    -2.6742884184
   18      C      -4.7226696444    -3.0850938701     0.3116962494
   19      C      -1.7490747731     1.5427620954    -1.0190164520
   20      C      -2.3901268576     2.9860351563    -1.0228166614
   21      C      -3.1390703766     2.9984012604     0.3619178402
   22      C      -2.8712349841     1.5267560874     0.8600942328
   23      O      -1.4807982323     1.2738611897     0.4103155719
   24      H      -3.4508629001     0.7280760768    -2.2546291378
   25      H      -4.7305096269     0.9670956262    -0.2462782930
   26      H      -0.8217110157     1.4392756822    -1.6147458927
   27      H      -1.6042026444     3.7567762168    -1.0680452049
   28      H      -3.0738262889     3.1267164901    -1.8751716527
   29      H      -2.6896741287     3.7263036503     1.0561090149
   30      H      -4.2142036925     3.2176444473     0.2641035711
   31      H      -2.9631904539     1.3501087479     1.9494964495
   32      O       1.7517161738    -1.5961224332    -1.5474913181
   33      C       4.2207595378    -2.5999406592     0.9153204682
   34      C       3.5451232363     1.7862793656     0.9755065523
   35      C       3.2281712504     3.2706625967     0.5396370327
   36      C       1.7031873403     3.1511824520     0.1711066977
   37      C       1.4166251644     1.6306455092     0.4974614079
   38      O       2.3046306223     1.3495978264     1.6498717009
   39      H       4.1181544729     1.4327012363    -1.1612175295
   40      H       1.8214823064     1.1584924354    -1.6610036968
   41      H       5.2851014505    -2.5158957299     1.2139336668
   42      H       4.4185062999     1.6655601508     1.6454973498
   43      H       3.3886575855     3.9608041044     1.3832653576
   44      H       3.8506467212     3.5975545532    -0.3085936009
   45      H       1.0812747259     3.8020105732     0.8061589270
   46      H       1.5019787540     3.3954617525    -0.8843567080
   47      H       0.3498714761     1.4007862523     0.7260759543
   48      H       4.1622671699    -3.1826622268    -0.0272933701
   49      H       3.6505880614    -3.1198305999     1.7069838589
   50      H      -4.1245595269    -3.8294762635    -0.2500634602
   51      H      -5.7955071710    -3.3510039896     0.2377397684
   52      H      -4.4091720781    -3.0670189341     1.3754174987
   53      H      -0.5403507530    -2.6941094825    -1.4845936590
   54      H      -1.4672296398    -3.5109386442    -0.1609168227
   55      H      -0.0217722964    -2.5702765397     1.6004733864
   56      H       1.1236624308    -3.1137946150     0.3021292441
 ----------------------------------------------------------------

    9   -1510.2923227249      4.42E-09 Convergence criterion met
 Total energy in the final basis set = -1510.29232272
 Final energy is   -1510.29232272495
 **  OPTIMIZATION CONVERGED  **

                    Orbital Energies (a.u.)
 --------------------------------------------------------------

 Alpha MOs
 -- Occupied --
-18.936 -18.933 -18.929 -18.928 -18.903 -18.879 -18.876 -18.875
-18.872 -18.859 -10.103 -10.102 -10.095 -10.092 -10.070 -10.070
-10.069 -10.066 -10.062 -10.059 -10.053 -10.044 -10.042 -10.036
-10.031 -10.028 -10.028 -10.026 -10.013 -10.010  -1.019  -1.010
 -1.006  -0.999  -0.981  -0.958  -0.941  -0.936  -0.933  -0.926
 -0.770  -0.755  -0.733  -0.718  -0.713  -0.704  -0.691  -0.661
 -0.657  -0.615  -0.598  -0.579  -0.552  -0.545  -0.537  -0.527
 -0.519  -0.503  -0.492  -0.472  -0.470  -0.455  -0.449  -0.440
 -0.433  -0.426  -0.421  -0.420  -0.414  -0.410  -0.406  -0.403
 -0.395  -0.376  -0.372  -0.366  -0.362  -0.354  -0.353  -0.351
 -0.346  -0.341  -0.339  -0.334  -0.329  -0.324  -0.315  -0.314
 -0.310  -0.302  -0.300  -0.298  -0.293  -0.292  -0.285  -0.278
 -0.270  -0.251  -0.249  -0.245  -0.240  -0.237  -0.220  -0.179
 -0.173  -0.173  -0.167  -0.162  -0.155  -0.154  -0.151  -0.141
 -0.133

          Ground-State Mulliken Net Atomic Charges

     Atom                 Charge (a.u.)
  ----------------------------------------
      1 O                    -0.212171
      2 C                     0.208742
      3 C                    -0.080244
      4 C                    -0.079597
      5 C                     0.211000
      6 O                    -0.157106
      7 C                    -0.044332
      8 C                    -0.054003
      9 O                    -0.170759
     10 C                     0.215080
     11 C                    -0.076412
     12 C                    -0.077166
     13 C                     0.221127
     14 O                    -0.215681
     15 O                    -0.165904
     16 O                    -0.176690
     17 O                    -0.210428
     18 C                    -0.136091
     19 C                     0.026841
     20 C                    -0.144428
     21 C                    -0.143206
     22 C                     0.027623
     23 O                    -0.184379
     24 H                     0.087771
     25 H                     0.085406
     26 H                     0.083131
     27 H                     0.079043
     28 H                     0.076080
     29 H                     0.079798
     30 H                     0.075411
     31 H                     0.095390
     32 O                    -0.228623
     33 C                    -0.128736
     34 C                     0.026031
     35 C                    -0.143885
     36 C                    -0.146044
     37 C                     0.009630
     38 O                    -0.187207
     39 H                     0.083648
     40 H                     0.078201
     41 H                     0.091660
     42 H                     0.080066
     43 H                     0.075703
     44 H                     0.071485
     45 H                     0.073937
     46 H                     0.066893
     47 H                     0.115301
     48 H                     0.088855
     49 H                     0.090027
     50 H                     0.082875
     51 H                     0.084848
     52 H                     0.101089
     53 H                     0.105514
     54 H                     0.082084
     55 H                     0.092961
     56 H                     0.089841
  ----------------------------------------
  Sum of atomic charges =     0.000000

                    Cartesian Multipole Moments
 -----------------------------------------------------------------
    Charge (ESU x 10^10)
                 0.0000
    Dipole Moment (Debye)
         X      -2.3256      Y       1.1385      Z       0.1525
       Tot       2.5938
    Quadrupole Moments (Debye-Ang)
        XX    -157.7419     XY      -0.6472     YY    -142.4291
        XZ       4.7513     YZ      -8.9664     ZZ    -171.2818

 Total job time:  119.62s(wall), 5697.33s(cpu)
        *  Thank you very much for using Q-Chem.  Have a nice day.  *
