 Q-Chem 5.0, Q-Chem, Inc., Pleasanton, CA (2017)
 Q-Chem 5.0.1 for Intel X86 EM64T Linux

User input:
--------------------------------------------------------------
$molecule
0  1
O -4.7543493738 1.391993425 0.1162114534
C -4.0689843068 0.7737342879 -0.7250317253
C -3.4128160179 -0.6482277978 -0.5694230407
C -1.8323333073 -0.6282460411 -0.4644372764
C -1.2340142856 0.8056434878 -0.3083067243
O 0.1774057248 0.6893557163 -0.059153779
C 0.8498955447 1.9667421045 -0.360062829
C 1.6687068122 2.1082862824 -1.6863190583
O 3.0561634605 1.632465279 -1.8194000925
C 3.8579602851 1.2953393667 -0.6705184086
C 3.6390670322 -0.1638588579 -0.0495557592
C 2.6261477416 -0.7104680016 1.0497288493
C 1.6998610079 0.1827210292 1.9399555585
O 0.7476874657 -0.2512579935 2.6296417077
O -3.8863854643 1.1884008075 -2.0881673348
O 2.2384629856 1.5110976449 2.0749568948
O 4.8744063309 1.9740812027 -0.4071717888
C 1.4766903606 2.2685879774 3.1018816709
C 3.2656303017 -1.1377017155 -1.2656924558
C 3.8072802129 -2.5896561358 -0.9613651978
C 2.7497726309 -3.0912156125 0.0885673095
C 1.8309712693 -1.8143708713 0.2195910464
O 1.7976210783 -1.2743175129 -1.1537791416
H 4.6529422806 -0.4096284241 0.3170150772
H 3.2534150483 -1.2290806424 1.8017877539
H 3.535225073 -0.7308352188 -2.2590116028
H 3.7949021404 -3.2047466354 -1.8750056763
H 4.8330462824 -2.5722113061 -0.5601926213
H 2.166597799 -3.9408326678 -0.3008594427
H 3.2016601281 -3.3847118882 1.0492820085
H 0.8125277961 -2.0148165529 0.5921094441
O -1.8383889217 1.8986625119 -0.3858415608
C -4.444881641 2.5447174967 -2.2760037181
C -3.8198321393 -1.3524723469 0.7861415066
C -3.5219512365 -2.8978028987 0.6548907277
C -1.9492098535 -2.9119123035 0.7421657763
C -1.6419972756 -1.3764043695 0.9426915982
O -2.788237997 -0.8843782263 1.7357629126
H -3.7211653725 -1.2493659802 -1.4444031529
H -1.3281438754 -1.1492159342 -1.2975652151
H -3.89282842 3.2922272701 -1.670065754
H -4.8313893657 -1.0844245266 1.1482094678
H -3.9757603273 -3.4482372376 1.4944884916
H -3.9007049558 -3.3190169587 -0.2900940424
H -1.5963918654 -3.4940561065 1.6082822656
H -1.477439812 -3.3131263921 -0.1693194713
H -0.7012664842 -1.1219264295 1.4793750415
H -5.5181025877 2.5890885812 -1.9989089714
H -4.3285145826 2.7802437053 -3.3499817095
H 0.9947746617 3.1438781786 2.6249578976
H 2.185617526 2.6134520083 3.8788103498
H 0.7069282737 1.6040904677 3.5433736255
H 1.1088183563 1.6340627481 -2.5237826216
H 1.6917342781 3.2054654216 -1.887449705
H 1.5337987268 2.1521195027 0.4981259953
H 0.0642615439 2.753191302 -0.3826579562
$end

$rem
JOBTYPE                   OPT
METHOD                    B3LYP
DFT_D                     d3_op
BASIS                     STO-3G
GEOM_OPT_MAX_CYCLES       100
GEOM_OPT_TOL_GRADIENT     300
GEOM_OPT_TOL_DISPLACEMENT 1200
GEOM_OPT_TOL_ENERGY       100
SYMMETRY                  False
THRESH                    12
SCF_CONVERGENCE           8
MAX_SUB_FILE_NUM          128
MEM_STATIC                400
MEM_TOTAL                 4000
$end
--------------------------------------------------------------

   16   -1510.2438945782      4.85E-09 Convergence criterion met
 Total energy in the final basis set = -1510.24389458
   14   -1510.2399075235      9.71E-09 Convergence criterion met
 Total energy in the final basis set = -1510.23990752
   15   -1510.2361286250      8.13E-09 Convergence criterion met
 Total energy in the final basis set = -1510.23612863
   14   -1510.2473597945      4.23E-09 Convergence criterion met
 Total energy in the final basis set = -1510.24735979
   15   -1510.2562474025      5.07E-09 Convergence criterion met
 Total energy in the final basis set = -1510.25624740
   13   -1510.2604142351      9.69E-09 Convergence criterion met
 Total energy in the final basis set = -1510.26041424
   13   -1510.2634506792      6.57E-09 Convergence criterion met
 Total energy in the final basis set = -1510.26345068
   13   -1510.2655881029      5.28E-09 Convergence criterion met
   11   -1510.2979150998      6.68E-09 Convergence criterion met
 Total energy in the final basis set = -1510.29791510
   10   -1510.2979164882      9.22E-09 Convergence criterion met
 Total energy in the final basis set = -1510.29791649
   10   -1510.2979197923      4.19E-09 Convergence criterion met
 Total energy in the final basis set = -1510.29791979
    9   -1510.2979202186      6.23E-09 Convergence criterion met
 Total energy in the final basis set = -1510.29792022
    9   -1510.2979214379      5.21E-09 Convergence criterion met
 Total energy in the final basis set = -1510.29792144
    9   -1510.2979226709      8.02E-09 Convergence criterion met
 Total energy in the final basis set = -1510.29792267

             Standard Nuclear Orientation (Angstroms)
    I     Atom           X                Y                Z
 ----------------------------------------------------------------
    1      O      -4.4097667026     1.1764969074    -0.8784003875
    2      C      -3.3359939723     0.6527419218    -1.2432205116
    3      C      -2.6521816956    -0.6390461202    -0.6646705290
    4      C      -1.4088439883    -0.3754820624     0.2796273887
    5      C      -1.1808133965     1.1431101952     0.5382009178
    6      O      -0.0796651819     1.3315253100     1.4475743968
    7      C       0.3663153124     2.7450472173     1.3901658108
    8      C       0.9227739608     3.0693443559    -0.0569870172
    9      O       1.2750966905     1.7955953260    -0.7304094697
   10      C       2.5570359589     1.3381801542    -0.2802780336
   11      C       2.8462229816    -0.0934046588    -0.8577502577
   12      C       2.7684006598    -1.2900473486     0.1926911184
   13      C       2.0511705138    -0.9744909050     1.5583983613
   14      O       1.0436377646    -1.5613750089     2.0104074011
   15      O      -2.5882276148     1.0603958536    -2.4041929537
   16      O       2.7494889962     0.0562128083     2.2509679302
   17      O       3.3296935442     2.0249872010     0.4224127553
   18      C       2.0206528220     0.3858294820     3.5001539110
   19      C       1.8191098865    -0.5993573812    -1.9622407872
   20      C       2.5613229288    -1.6659948097    -2.8552631227
   21      C       2.6721432611    -2.8744460875    -1.8516873413
   22      C       1.8771723765    -2.3210094709    -0.6061337385
   23      O       0.8505263853    -1.4373780589    -1.2134401035
   24      H       3.8686349262    -0.0584670119    -1.2766628693
   25      H       3.7802586989    -1.6795995877     0.4088516328
   26      H       1.2902274717     0.2068384041    -2.5052683135
   27      H       1.9438336928    -1.9266640093    -3.7296996737
   28      H       3.5425280988    -1.3095489898    -3.2072706301
   29      H       2.1880041814    -3.7796326793    -2.2509498726
   30      H       3.7156319523    -3.1164361588    -1.5940101519
   31      H       1.3930628326    -3.0800776912     0.0380984320
   32      O      -1.8068775848     2.1007800566     0.0301687774
   33      C      -3.1600602727     2.3101971866    -2.9479023020
   34      C      -3.6158018598    -1.4301677398     0.3165705498
   35      C      -3.0824377028    -2.9108092797     0.4354358538
   36      C      -1.7974339481    -2.6947599687     1.3173139727
   37      C      -1.8655152855    -1.1405397397     1.5907171667
   38      O      -3.3186746912    -0.8547977057     1.6498669087
   39      H      -2.3424013150    -1.2653674446    -1.5201935579
   40      H      -0.4730929784    -0.7918658348    -0.1734660690
   41      H      -3.0783807241     3.1404664798    -2.2165429280
   42      H      -4.6927274890    -1.3213627076     0.0831362039
   43      H      -3.8217455199    -3.5466125165     0.9483236747
   44      H      -2.8570165658    -3.3534398117    -0.5478839884
   45      H      -1.8541273286    -3.2557341822     2.2634501775
   46      H      -0.8677690699    -2.9737301976     0.7980473191
   47      H      -1.3558885801    -0.8068027419     2.5145941714
   48      H      -4.2277740038     2.1897480314    -3.2242802924
   49      H      -2.5699170916     2.5534379150    -3.8508758431
   50      H       2.5427681685     1.2569769213     3.9359239054
   51      H       2.0416681408    -0.4587939846     4.2186624307
   52      H       0.9655185875     0.6425099963     3.2700796722
   53      H       0.1322099870     3.5254085880    -0.6829627893
   54      H       1.8028582280     3.7423802762     0.0109638050
   55      H       1.1737363428     2.8262177642     2.1425358492
   56      H      -0.4568455288     3.4451847754     1.6474688584
 ----------------------------------------------------------------

    9   -1510.2979241323      4.12E-09 Convergence criterion met
 Total energy in the final basis set = -1510.29792413
 Final energy is   -1510.29792413231
 **  OPTIMIZATION CONVERGED  **

                    Orbital Energies (a.u.)
 --------------------------------------------------------------

 Alpha MOs
 -- Occupied --
-18.940 -18.939 -18.931 -18.911 -18.906 -18.882 -18.877 -18.876
-18.868 -18.846 -10.107 -10.103 -10.096 -10.077 -10.075 -10.073
-10.071 -10.071 -10.061 -10.048 -10.047 -10.046 -10.042 -10.041
-10.031 -10.029 -10.014 -10.009 -10.005 -10.003  -1.024  -1.015
 -1.007  -0.987  -0.985  -0.953  -0.944  -0.939  -0.933  -0.911
 -0.773  -0.745  -0.733  -0.722  -0.710  -0.700  -0.685  -0.665
 -0.644  -0.620  -0.599  -0.576  -0.554  -0.548  -0.530  -0.523
 -0.516  -0.497  -0.478  -0.477  -0.469  -0.455  -0.446  -0.445
 -0.433  -0.429  -0.422  -0.417  -0.414  -0.410  -0.397  -0.393
 -0.389  -0.379  -0.375  -0.367  -0.358  -0.353  -0.349  -0.346
 -0.345  -0.340  -0.333  -0.330  -0.322  -0.319  -0.317  -0.315
 -0.309  -0.304  -0.296  -0.292  -0.291  -0.288  -0.284  -0.269
 -0.262  -0.260  -0.252  -0.246  -0.242  -0.232  -0.216  -0.188
 -0.178  -0.175  -0.165  -0.160  -0.155  -0.153  -0.149  -0.128
 -0.127

          Ground-State Mulliken Net Atomic Charges

     Atom                 Charge (a.u.)
  ----------------------------------------
      1 O                    -0.221980
      2 C                     0.214314
      3 C                    -0.082926
      4 C                    -0.095749
      5 C                     0.217281
      6 O                    -0.177677
      7 C                    -0.053015
      8 C                    -0.054166
      9 O                    -0.171621
     10 C                     0.210556
     11 C                    -0.079579
     12 C                    -0.077641
     13 C                     0.210075
     14 O                    -0.214247
     15 O                    -0.177843
     16 O                    -0.165915
     17 O                    -0.207251
     18 C                    -0.132284
     19 C                     0.025702
     20 C                    -0.142225
     21 C                    -0.144513
     22 C                     0.025600
     23 O                    -0.186436
     24 H                     0.086800
     25 H                     0.087972
     26 H                     0.097905
     27 H                     0.081058
     28 H                     0.075855
     29 H                     0.080694
     30 H                     0.076025
     31 H                     0.091749
     32 O                    -0.211650
     33 C                    -0.128525
     34 C                     0.023774
     35 C                    -0.144231
     36 C                    -0.140972
     37 C                     0.025836
     38 O                    -0.194471
     39 H                     0.082140
     40 H                     0.116317
     41 H                     0.088485
     42 H                     0.084372
     43 H                     0.073786
     44 H                     0.070525
     45 H                     0.074398
     46 H                     0.075569
     47 H                     0.085211
     48 H                     0.084638
     49 H                     0.082066
     50 H                     0.089141
     51 H                     0.086766
     52 H                     0.101665
     53 H                     0.099017
     54 H                     0.094970
     55 H                     0.091770
     56 H                     0.092887
  ----------------------------------------
  Sum of atomic charges =     0.000000

                    Cartesian Multipole Moments
 -----------------------------------------------------------------
    Charge (ESU x 10^10)
                -0.0000
    Dipole Moment (Debye)
         X       4.2893      Y      -0.9648      Z      -1.4446
       Tot       4.6278
    Quadrupole Moments (Debye-Ang)
        XX    -172.0655     XY      -1.2178     YY    -150.0121
        XZ       0.9765     YZ       2.3909     ZZ    -152.5687

 Total job time:  157.60s(wall), 7430.66s(cpu)
        *  Thank you very much for using Q-Chem.  Have a nice day.  *
