 Q-Chem 5.0, Q-Chem, Inc., Pleasanton, CA (2017)
 Q-Chem 5.0.1 for Intel X86 EM64T Linux

User input:
--------------------------------------------------------------
$molecule
0  1
O -3.94934 -3.66094 2.70899
C -3.26408 -4.56952 2.26188
C -3.36658 -6.02376 2.66595
C -2.20469 -6.60889 3.48539
C -1.15457 -5.62958 3.96108
O -0.27783 -6.25943 4.79777
C 0.96282 -5.56023 4.94332
C 2.05207 -6.24663 4.12569
O 2.59239 -7.35463 4.86276
C 2.29017 -7.37856 6.18459
C 0.92519 -7.96039 6.46561
C -0.22869 -6.94747 6.43679
C 0.08189 -5.61014 5.79507
O -0.74501 -4.76868 5.47453
O -2.40536 -4.28999 1.24326
O 0.63055 -4.9385 7.03999
O 3.1704 -7.319 7.03074
C 0.80905 -3.58138 7.28072
C 0.46756 -9.2257 5.71306
C -0.02233 -10.212 6.75102
C -1.16099 -9.38362 7.31677
C -1.22502 -8.21865 6.26024
O -0.73625 -8.84216 5.11128
H 1.06959 -8.21701 7.54687
H -0.55005 -6.7045 7.48211
H 1.22129 -9.65401 5.01812
H -0.4209 -11.0886 6.19049
H 0.72045 -10.55472 7.50347
H -2.06157 -10.04161 7.32795
H -0.99462 -8.96627 8.33393
H -2.27544 -8.07878 6.40297
O -0.82032 -4.75154 3.15327
C -2.21156 -3.03215 0.71126
C -4.66129 -6.24208 3.40278
C -4.94969 -7.73199 3.59125
C -3.98386 -8.02275 4.70354
C -3.20741 -6.69418 4.73726
O -4.25953 -5.77348 4.61957
H -3.44343 -6.56916 1.69851
H -1.81637 -7.61043 3.20274
H -1.83736 -2.33929 1.49507
H -5.52225 -5.71776 2.93086
H -5.98453 -7.92566 3.95055
H -4.76008 -8.28632 2.64607
H -4.56177 -8.06544 5.65576
H -3.40718 -8.96467 4.58656
H -2.7425 -6.37582 5.67813
H -3.16305 -2.64393 0.28915
H -1.45848 -3.09296 -0.10088
H 1.87494 -3.39591 7.5265
H 0.18253 -3.27542 8.14292
H 0.54555 -2.96173 6.39733
H 1.5805 -6.65324 3.20239
H 2.91636 -5.63141 3.74688
H 2.00449 -4.98669 5.42508
H 1.06943 -4.64215 4.15516
$end

$opt
CONSTRAINT
tors           1           2           3           4    -109.906
tors           3           4           5           6    +173.027
tors           4           5           6           7    +160.722
tors           5           6           7           8    -103.537
tors           6           7           8           9     -82.447
tors           7           8           9          10     -14.905
tors           8           9          10          11     +82.062
tors           9          10          11          12     -88.167
tors          11          12          13          14    +166.966
ENDCONSTRAINT
$end

$rem
JOBTYPE                   OPT
METHOD                    B3LYP
DFT_D                     d3_op
BASIS                     STO-3G
GEOM_OPT_MAX_CYCLES       100
GEOM_OPT_TOL_GRADIENT     300
GEOM_OPT_TOL_DISPLACEMENT 1200
GEOM_OPT_TOL_ENERGY       100
SYMMETRY                  False
THRESH                    12
SCF_CONVERGENCE           8
MAX_SUB_FILE_NUM          128
MEM_STATIC                400
MEM_TOTAL                 4000
$end
--------------------------------------------------------------

   23   -1509.0724331027      9.62E-09 Convergence criterion met
 Total energy in the final basis set = -1509.07243310
   18   -1509.2501547833      3.94E-09 Convergence criterion met
 Total energy in the final basis set = -1509.25015478
   18   -1509.4087235869      9.77E-09 Convergence criterion met
 Total energy in the final basis set = -1509.40872359
   19   -1509.5335588174      6.88E-09 Convergence criterion met
 Total energy in the final basis set = -1509.53355882
   19   -1509.6300527604      9.45E-09 Convergence criterion met
 Total energy in the final basis set = -1509.63005276
   19   -1509.7053885728      8.57E-09 Convergence criterion met
 Total energy in the final basis set = -1509.70538857
   18   -1509.7646648470      7.78E-09 Convergence criterion met
 Total energy in the final basis set = -1509.76466485
   17   -1509.8117359041      7.78E-09 Convergence criterion met
   10   -1510.2440788916      6.84E-09 Convergence criterion met
 Total energy in the final basis set = -1510.24407889
   10   -1510.2440831029      5.84E-09 Convergence criterion met
 Total energy in the final basis set = -1510.24408310
    9   -1510.2440896305      9.34E-09 Convergence criterion met
 Total energy in the final basis set = -1510.24408963
    9   -1510.2440947301      8.36E-09 Convergence criterion met
 Total energy in the final basis set = -1510.24409473
    9   -1510.2440987041      8.05E-09 Convergence criterion met
 Total energy in the final basis set = -1510.24409870
    9   -1510.2441010977      8.00E-09 Convergence criterion met
 Total energy in the final basis set = -1510.24410110

             Standard Nuclear Orientation (Angstroms)
    I     Atom           X                Y                Z
 ----------------------------------------------------------------
    1      O      -4.7543493738     1.3919934250     0.1162114534
    2      C      -4.0689843068     0.7737342879    -0.7250317253
    3      C      -3.4128160179    -0.6482277978    -0.5694230407
    4      C      -1.8323333073    -0.6282460411    -0.4644372764
    5      C      -1.2340142856     0.8056434878    -0.3083067243
    6      O       0.1774057248     0.6893557163    -0.0591537790
    7      C       0.8498955447     1.9667421045    -0.3600628290
    8      C       1.6687068122     2.1082862824    -1.6863190583
    9      O       3.0561634605     1.6324652790    -1.8194000925
   10      C       3.8579602851     1.2953393667    -0.6705184086
   11      C       3.6390670322    -0.1638588579    -0.0495557592
   12      C       2.6261477416    -0.7104680016     1.0497288493
   13      C       1.6998610079     0.1827210292     1.9399555585
   14      O       0.7476874657    -0.2512579935     2.6296417077
   15      O      -3.8863854643     1.1884008075    -2.0881673348
   16      O       2.2384629856     1.5110976449     2.0749568948
   17      O       4.8744063309     1.9740812027    -0.4071717888
   18      C       1.4766903606     2.2685879774     3.1018816709
   19      C       3.2656303017    -1.1377017155    -1.2656924558
   20      C       3.8072802129    -2.5896561358    -0.9613651978
   21      C       2.7497726309    -3.0912156125     0.0885673095
   22      C       1.8309712693    -1.8143708713     0.2195910464
   23      O       1.7976210783    -1.2743175129    -1.1537791416
   24      H       4.6529422806    -0.4096284241     0.3170150772
   25      H       3.2534150483    -1.2290806424     1.8017877539
   26      H       3.5352250730    -0.7308352188    -2.2590116028
   27      H       3.7949021404    -3.2047466354    -1.8750056763
   28      H       4.8330462824    -2.5722113061    -0.5601926213
   29      H       2.1665977990    -3.9408326678    -0.3008594427
   30      H       3.2016601281    -3.3847118882     1.0492820085
   31      H       0.8125277961    -2.0148165529     0.5921094441
   32      O      -1.8383889217     1.8986625119    -0.3858415608
   33      C      -4.4448816410     2.5447174967    -2.2760037181
   34      C      -3.8198321393    -1.3524723469     0.7861415066
   35      C      -3.5219512365    -2.8978028987     0.6548907277
   36      C      -1.9492098535    -2.9119123035     0.7421657763
   37      C      -1.6419972756    -1.3764043695     0.9426915982
   38      O      -2.7882379970    -0.8843782263     1.7357629126
   39      H      -3.7211653725    -1.2493659802    -1.4444031529
   40      H      -1.3281438754    -1.1492159342    -1.2975652151
   41      H      -3.8928284200     3.2922272701    -1.6700657540
   42      H      -4.8313893657    -1.0844245266     1.1482094678
   43      H      -3.9757603273    -3.4482372376     1.4944884916
   44      H      -3.9007049558    -3.3190169587    -0.2900940424
   45      H      -1.5963918654    -3.4940561065     1.6082822656
   46      H      -1.4774398120    -3.3131263921    -0.1693194713
   47      H      -0.7012664842    -1.1219264295     1.4793750415
   48      H      -5.5181025877     2.5890885812    -1.9989089714
   49      H      -4.3285145826     2.7802437053    -3.3499817095
   50      H       0.9947746617     3.1438781786     2.6249578976
   51      H       2.1856175260     2.6134520083     3.8788103498
   52      H       0.7069282737     1.6040904677     3.5433736255
   53      H       1.1088183563     1.6340627481    -2.5237826216
   54      H       1.6917342781     3.2054654216    -1.8874497050
   55      H       1.5337987268     2.1521195027     0.4981259953
   56      H       0.0642615439     2.7531913020    -0.3826579562
 ----------------------------------------------------------------

    9   -1510.2441019190      7.83E-09 Convergence criterion met
 Total energy in the final basis set = -1510.24410192
 Final energy is   -1510.24410191898
 **  OPTIMIZATION CONVERGED  **

                    Orbital Energies (a.u.)
 --------------------------------------------------------------

 Alpha MOs
 -- Occupied --
-18.953 -18.938 -18.917 -18.904 -18.898 -18.893 -18.893 -18.891
-18.881 -18.859 -10.119 -10.111 -10.108 -10.088 -10.076 -10.067
-10.064 -10.060 -10.058 -10.053 -10.053 -10.049 -10.049 -10.037
-10.036 -10.030 -10.024 -10.022 -10.017 -10.016  -1.027  -1.019
 -1.005  -0.996  -0.976  -0.966  -0.951  -0.946  -0.935  -0.922
 -0.766  -0.759  -0.725  -0.723  -0.713  -0.709  -0.695  -0.669
 -0.653  -0.620  -0.604  -0.582  -0.551  -0.540  -0.538  -0.534
 -0.520  -0.509  -0.486  -0.477  -0.463  -0.458  -0.451  -0.445
 -0.436  -0.428  -0.425  -0.420  -0.416  -0.414  -0.405  -0.402
 -0.400  -0.386  -0.381  -0.368  -0.363  -0.359  -0.353  -0.352
 -0.345  -0.339  -0.338  -0.332  -0.330  -0.327  -0.319  -0.318
 -0.312  -0.309  -0.308  -0.298  -0.294  -0.291  -0.279  -0.273
 -0.270  -0.262  -0.251  -0.242  -0.241  -0.230  -0.228  -0.194
 -0.179  -0.172  -0.166  -0.163  -0.158  -0.155  -0.147  -0.141
 -0.139

          Ground-State Mulliken Net Atomic Charges

     Atom                 Charge (a.u.)
  ----------------------------------------
      1 O                    -0.216797
      2 C                     0.215221
      3 C                    -0.081383
      4 C                    -0.079208
      5 C                     0.221011
      6 O                    -0.175884
      7 C                    -0.076761
      8 C                    -0.041941
      9 O                    -0.200347
     10 C                     0.222305
     11 C                    -0.086032
     12 C                    -0.076902
     13 C                     0.225051
     14 O                    -0.213149
     15 O                    -0.176248
     16 O                    -0.168003
     17 O                    -0.181271
     18 C                    -0.138142
     19 C                     0.022800
     20 C                    -0.145524
     21 C                    -0.144123
     22 C                     0.026627
     23 O                    -0.189801
     24 H                     0.082342
     25 H                     0.087827
     26 H                     0.087768
     27 H                     0.078090
     28 H                     0.074215
     29 H                     0.077216
     30 H                     0.073520
     31 H                     0.089452
     32 O                    -0.203563
     33 C                    -0.128350
     34 C                     0.024710
     35 C                    -0.143561
     36 C                    -0.146451
     37 C                     0.015565
     38 O                    -0.190706
     39 H                     0.083086
     40 H                     0.092558
     41 H                     0.090692
     42 H                     0.088214
     43 H                     0.077299
     44 H                     0.072380
     45 H                     0.076801
     46 H                     0.071783
     47 H                     0.097917
     48 H                     0.086624
     49 H                     0.085458
     50 H                     0.089035
     51 H                     0.090649
     52 H                     0.108281
     53 H                     0.088517
     54 H                     0.084301
     55 H                     0.101422
     56 H                     0.095410
  ----------------------------------------
  Sum of atomic charges =    -0.000000

                    Cartesian Multipole Moments
 -----------------------------------------------------------------
    Charge (ESU x 10^10)
                -0.0000
    Dipole Moment (Debye)
         X       1.0448      Y      -2.1358      Z      -0.4720
       Tot       2.4240
    Quadrupole Moments (Debye-Ang)
        XX    -170.6830     XY      -4.6439     YY    -152.2151
        XZ      11.8840     YZ       1.0574     ZZ    -159.8057

 Total job time:  211.71s(wall), 10036.26s(cpu)
        *  Thank you very much for using Q-Chem.  Have a nice day.  *
