 Q-Chem 5.0, Q-Chem, Inc., Pleasanton, CA (2017)
 Q-Chem 5.0.1 for Intel X86 EM64T Linux

User input:
--------------------------------------------------------------
$molecule
0  1
O 4.3038578916 -0.8330487562 -2.2861369992
C 3.8041100329 0.1592962616 -1.7191822357
C 4.2956293626 0.8636679097 -0.4027449367
C 3.9890087814 0.1008135342 0.9521900033
C 2.7963395487 -0.9344814137 1.0779588087
O 1.9856399581 -1.2189637306 -0.089801868
C 1.0634907789 -0.0646266968 -0.3343662018
C -0.3356159521 -0.6694126724 -0.6988100593
O -1.3392970603 0.389258435 -0.4148670458
C -2.6419659188 -0.0588413319 -0.7898823788
C -3.7259648033 0.993856949 -0.3479129944
C -5.0320011797 0.3004740053 0.2361140947
C -5.0288994403 -1.2649529304 0.1250508848
O -4.5858469376 -2.0876927491 0.954835261
O 2.7753146492 0.9735397026 -2.3313227223
O -5.7087872216 -1.6211982508 -1.0856915235
O -2.8624293955 -1.1573412624 -1.3481015853
C -5.6445016248 -3.0869630317 -1.2823698661
C -3.2584468789 1.8422067564 0.9061418751
C -4.2663075632 3.0404541299 1.1202109885
C -5.4942111057 2.2991886787 1.7675980052
C -4.9897318957 0.8042251838 1.7415565198
O -3.5433526889 0.9282455054 2.0369920931
H -3.970482231 1.6333211623 -1.2165002861
H -5.9287058607 0.6727868649 -0.2898221431
H -2.1861349 2.1140624032 0.8872629274
H -3.8376119791 3.7885916532 1.8055933377
H -4.5238763893 3.5380597024 0.1715688373
H -5.6624698732 2.6292877575 2.8051367187
H -6.4265689316 2.4362560219 1.1967234576
H -5.4736055312 0.1209735851 2.46591592
O 2.6466575742 -1.6130529437 2.1171560311
C 2.3635090603 0.3747047632 -3.6237824939
C 5.8845491922 0.759294433 -0.4051454692
C 6.4884451062 1.5897040477 0.7977666233
C 6.2587521342 0.6033607277 2.0041544157
C 5.417301693 -0.5259647556 1.295283236
O 6.0902562537 -0.6556596529 -0.0153638273
H 3.9172322764 1.9006329791 -0.3852885479
H 3.7661412909 0.8679755213 1.7183832083
H 1.9180534002 -0.630901586 -3.4812714953
H 6.3472631113 0.9570988179 -1.3913081465
H 7.5586974462 1.7889344519 0.6310119821
H 5.9678794111 2.5516442084 0.9331416472
H 7.2125978505 0.1924668956 2.3725203861
H 5.72297783 1.0690676721 2.8467351472
H 5.3773240013 -1.500201292 1.8201544883
H 3.222102215 0.2853046474 -4.3189009497
H 1.6069896986 1.0589552384 -4.0499470029
H -6.2150312425 -3.2983427164 -2.2054518065
H -6.0965136155 -3.6356593705 -0.4307613415
H -4.596027639 -3.4267700073 -1.4071846447
H -0.3787306524 -0.9819096449 -1.7643023176
H -0.5341909387 -1.566325826 -0.071168138
H 1.4694943714 0.5716352175 -1.1553421317
H 0.9350638934 0.5548681266 0.577934652
$end

$rem
JOBTYPE                   OPT
METHOD                    B3LYP
DFT_D                     d3_op
BASIS                     STO-3G
GEOM_OPT_MAX_CYCLES       100
GEOM_OPT_TOL_GRADIENT     300
GEOM_OPT_TOL_DISPLACEMENT 1200
GEOM_OPT_TOL_ENERGY       100
SYMMETRY                  False
THRESH                    12
SCF_CONVERGENCE           8
MAX_SUB_FILE_NUM          128
MEM_STATIC                400
MEM_TOTAL                 4000
$end
--------------------------------------------------------------

   16   -1510.2541484717      5.57E-09 Convergence criterion met
 Total energy in the final basis set = -1510.25414847
   14   -1510.2550253628      3.00E-09 Convergence criterion met
 Total energy in the final basis set = -1510.25502536
   13   -1510.2582116343      8.89E-09 Convergence criterion met
 Total energy in the final basis set = -1510.25821163
   13   -1510.2606957516      5.36E-09 Convergence criterion met
 Total energy in the final basis set = -1510.26069575
   13   -1510.2622568726      5.86E-09 Convergence criterion met
 Total energy in the final basis set = -1510.26225687
   13   -1510.2638525770      5.16E-09 Convergence criterion met
 Total energy in the final basis set = -1510.26385258
   13   -1510.2654549342      3.77E-09 Convergence criterion met
 Total energy in the final basis set = -1510.26545493
   13   -1510.2670902591      4.12E-09 Convergence criterion met
   13   -1510.2768519409      3.88E-09 Convergence criterion met
 Total energy in the final basis set = -1510.27685194
   12   -1510.2768791528      6.39E-09 Convergence criterion met
 Total energy in the final basis set = -1510.27687915
   11   -1510.2768944738      9.31E-09 Convergence criterion met
 Total energy in the final basis set = -1510.27689447
   12   -1510.2769016855      3.93E-09 Convergence criterion met
 Total energy in the final basis set = -1510.27690169
   12   -1510.2769059762      2.75E-09 Convergence criterion met
 Total energy in the final basis set = -1510.27690598
   11   -1510.2769073082      7.37E-09 Convergence criterion met
 Total energy in the final basis set = -1510.27690731

             Standard Nuclear Orientation (Angstroms)
    I     Atom           X                Y                Z
 ----------------------------------------------------------------
    1      O       4.4369021058    -2.3718258268    -1.0267549284
    2      C       3.7504913494    -1.3381137219    -1.1519232450
    3      C       4.1356363495     0.1402997962    -0.8126492282
    4      C       3.9561482524     0.5121658893     0.7264792972
    5      C       3.4354969844    -0.6632025745     1.6507357894
    6      O       2.0273989853    -0.9471306784     1.7117182500
    7      C       1.1837155415    -0.2060213897     0.7419759697
    8      C      -0.2779987475    -0.6983620694     0.9937376105
    9      O      -1.1255140215     0.0167701664     0.0046857161
   10      C      -2.5079121508    -0.2277671870     0.2678107569
   11      C      -3.3573604813     0.5851783096    -0.7658962074
   12      C      -4.9113228569     0.3128304255    -0.6446279833
   13      C      -5.3051477124    -0.7814752183     0.4168473863
   14      O      -5.8497249755    -0.5987376557     1.5257115913
   15      O       2.4001984575    -1.3325175227    -1.6607868161
   16      O      -5.0649319596    -2.0693888765    -0.1715128122
   17      O      -2.9279515495    -0.9539537983     1.1962497535
   18      C      -5.3609693087    -3.1306554530     0.8157726509
   19      C      -3.3009413251     2.1403593742    -0.4325269880
   20      C      -3.8868792830     2.9418807814    -1.6616685033
   21      C      -5.4293726743     2.6785857084    -1.4900362951
   22      C      -5.4373758044     1.7457150581    -0.2165367423
   23      O      -4.3357209334     2.2896921254     0.6136554451
   24      H      -2.9755754962     0.3757688525    -1.7812197916
   25      H      -5.3234534187     0.0016118658    -1.6212622738
   26      H      -2.3158812601     2.4890126808    -0.0655880519
   27      H      -3.6455150998     4.0129667828    -1.5714128347
   28      H      -3.4950899069     2.5714946640    -2.6225297952
   29      H      -5.9769646091     3.6129355776    -1.2880484234
   30      H      -5.8780584540     2.1875000241    -2.3682347892
   31      H      -6.3802915558     1.7256942757     0.3633729725
   32      O       4.1802287651    -1.3455240531     2.3879215361
   33      C       1.9364761891    -2.7177785277    -1.9111039430
   34      C       5.6936288356     0.3835744568    -0.9965268811
   35      C       5.9536844478     1.9415209821    -1.0124679819
   36      C       5.7959172276     2.2914545789     0.5141069936
   37      C       5.4528654929     0.8722131947     1.1162646945
   38      O       6.2609929125    -0.0574926725     0.2958761045
   39      H       3.5297078779     0.8078743211    -1.4507545742
   40      H       3.2981027447     1.3914029820     0.8345867193
   41      H       1.9263559388    -3.3148924660    -0.9764834276
   42      H       6.1467046750    -0.1840648726    -1.8322613425
   43      H       6.9715315297     2.1566014413    -1.3744543139
   44      H       5.2318845446     2.4769875602    -1.6498666155
   45      H       6.7377455599     2.6723672000     0.9399190923
   46      H       4.9991277525     3.0285118844     0.7031080907
   47      H       5.6820503216     0.7340204494     2.1904127386
   48      H       2.5803851938    -3.2310478474    -2.6532015369
   49      H       0.9081036936    -2.6291577980    -2.3069150666
   50      H      -5.1990987630    -4.0916507137     0.2935369871
   51      H      -6.4083559067    -3.0755050604     1.1770860385
   52      H      -4.6817839100    -3.0640256698     1.6904545140
   53      H      -0.3453430547    -1.7984926083     0.8470705036
   54      H      -0.6024239756    -0.4705290589     2.0322010718
   55      H       1.4905537167    -0.4532666637    -0.3048483961
   56      H       1.2322475046     0.8918870063     0.9038241197
 ----------------------------------------------------------------

    9   -1510.2769071566      8.10E-09 Convergence criterion met
 Total energy in the final basis set = -1510.27690716
 Final energy is   -1510.27690715665
 **  OPTIMIZATION CONVERGED  **

                    Orbital Energies (a.u.)
 --------------------------------------------------------------

 Alpha MOs
 -- Occupied --
-18.953 -18.943 -18.932 -18.919 -18.897 -18.893 -18.889 -18.889
-18.876 -18.861 -10.113 -10.109 -10.101 -10.090 -10.079 -10.077
-10.068 -10.066 -10.064 -10.062 -10.058 -10.054 -10.049 -10.044
-10.043 -10.034 -10.026 -10.024 -10.023 -10.021  -1.026  -1.022
 -1.006  -0.998  -0.975  -0.972  -0.952  -0.947  -0.936  -0.924
 -0.770  -0.765  -0.729  -0.728  -0.716  -0.710  -0.701  -0.675
 -0.654  -0.611  -0.607  -0.583  -0.556  -0.547  -0.544  -0.539
 -0.519  -0.514  -0.489  -0.477  -0.468  -0.462  -0.457  -0.454
 -0.451  -0.435  -0.433  -0.426  -0.423  -0.410  -0.405  -0.402
 -0.398  -0.389  -0.376  -0.374  -0.366  -0.360  -0.355  -0.353
 -0.346  -0.342  -0.338  -0.336  -0.333  -0.327  -0.319  -0.314
 -0.314  -0.313  -0.307  -0.302  -0.302  -0.290  -0.284  -0.278
 -0.275  -0.270  -0.260  -0.246  -0.245  -0.238  -0.236  -0.196
 -0.188  -0.171  -0.168  -0.165  -0.162  -0.149  -0.148  -0.146
 -0.141

          Ground-State Mulliken Net Atomic Charges

     Atom                 Charge (a.u.)
  ----------------------------------------
      1 O                    -0.194355
      2 C                     0.208349
      3 C                    -0.081258
      4 C                    -0.084061
      5 C                     0.203196
      6 O                    -0.173823
      7 C                    -0.063570
      8 C                    -0.045498
      9 O                    -0.175523
     10 C                     0.214497
     11 C                    -0.077964
     12 C                    -0.081449
     13 C                     0.215777
     14 O                    -0.215574
     15 O                    -0.172209
     16 O                    -0.177240
     17 O                    -0.204406
     18 C                    -0.128631
     19 C                     0.025069
     20 C                    -0.143922
     21 C                    -0.143863
     22 C                     0.024844
     23 O                    -0.188953
     24 H                     0.085934
     25 H                     0.083451
     26 H                     0.083099
     27 H                     0.077894
     28 H                     0.073046
     29 H                     0.078280
     30 H                     0.073376
     31 H                     0.090059
     32 O                    -0.195532
     33 C                    -0.129641
     34 C                     0.026703
     35 C                    -0.144215
     36 C                    -0.144332
     37 C                     0.026702
     38 O                    -0.182372
     39 H                     0.085223
     40 H                     0.079527
     41 H                     0.094141
     42 H                     0.086268
     43 H                     0.079636
     44 H                     0.072698
     45 H                     0.080002
     46 H                     0.072440
     47 H                     0.092148
     48 H                     0.094114
     49 H                     0.093313
     50 H                     0.085471
     51 H                     0.086773
     52 H                     0.092462
     53 H                     0.088901
     54 H                     0.094431
     55 H                     0.104966
     56 H                     0.075600
  ----------------------------------------
  Sum of atomic charges =     0.000000

                    Cartesian Multipole Moments
 -----------------------------------------------------------------
    Charge (ESU x 10^10)
                 0.0000
    Dipole Moment (Debye)
         X      -0.7059      Y       2.6131      Z      -4.8722
       Tot       5.5736
    Quadrupole Moments (Debye-Ang)
        XX    -179.2867     XY      17.8652     YY    -155.6475
        XZ       2.9901     YZ       3.1088     ZZ    -163.7079

 Total job time:  77.30s(wall), 3635.99s(cpu)
        *  Thank you very much for using Q-Chem.  Have a nice day.  *
