 Q-Chem 5.0, Q-Chem, Inc., Pleasanton, CA (2017)
 Q-Chem 5.0.1 for Intel X86 EM64T Linux

User input:
--------------------------------------------------------------
$molecule
0  1
O -3.94934 -3.66094 2.70899
C -3.26408 -4.56952 2.26188
C -3.36658 -6.02376 2.66595
C -2.78731 -6.41502 4.03533
C -2.33019 -5.27925 4.92368
O -2.57237 -4.08354 4.30965
C -1.64887 -3.79507 3.25457
C -1.22246 -2.33196 3.31467
O 0.03042 -2.15898 2.63405
C 0.48371 -0.88284 2.56229
C 1.86878 -0.78294 1.96878
C 2.79657 0.22881 2.65714
C 2.34722 0.71673 4.01976
O 2.62297 0.18959 5.08777
O -2.76873 -4.41854 0.98847
O 1.51939 1.79427 4.01857
O -0.24429 0.09187 2.70342
C 0.98168 2.36271 5.15419
C 2.73159 -2.06428 2.0259
C 3.80918 -2.00988 0.94291
C 4.72906 -0.95186 1.51157
C 4.03547 -0.67582 2.84896
O 3.47825 -1.91806 3.2055
H 1.70846 -0.49336 0.90592
H 3.05918 1.11925 2.04385
H 2.16009 -3.01088 1.92154
H 4.34416 -2.98668 0.95523
H 3.43292 -1.81105 -0.08367
H 5.72731 -1.41208 1.68551
H 4.83656 -0.0321 0.89689
H 4.76318 -0.24435 3.57188
O -2.01772 -5.38209 6.09958
C -2.89155 -3.28434 0.21138
C -4.83611 -6.44812 2.86055
C -4.96964 -7.96466 2.72509
C -4.32498 -8.42043 4.01684
C -4.02782 -7.06771 4.6713
O -5.07709 -6.24112 4.23049
H -2.92124 -6.64069 1.8515
H -1.93027 -7.11878 3.95072
H -2.39216 -2.42112 0.69181
H -5.53244 -5.93937 2.1578
H -6.0556 -8.20765 2.76746
H -4.5332 -8.39373 1.79758
H -5.08457 -8.9752 4.6116
H -3.40887 -9.03893 3.89966
H -3.93163 -7.18827 5.77289
H -3.96448 -3.05188 0.04285
H -2.40811 -3.46498 -0.77034
H 0.34666 3.22456 4.86371
H 1.79274 2.7244 5.82185
H 0.35368 1.62095 5.69255
H -2.02067 -1.71755 2.84643
H -1.11504 -1.99695 4.37484
H -1.06182 -4.53723 2.62198
H -0.69333 -4.06789 3.7753
$end

$opt
CONSTRAINT
tors           1           2           3           4     -74.825
tors           3           4           5           6      +1.719
tors           4           5           6           7     -75.245
tors           5           6           7           8    -137.566
tors           6           7           8           9    +158.096
tors           7           8           9          10    +176.895
tors           8           9          10          11    +173.860
tors           9          10          11          12    -139.383
tors          11          12          13          14     +89.296
ENDCONSTRAINT
$end

$rem
JOBTYPE                   OPT
METHOD                    B3LYP
DFT_D                     d3_op
BASIS                     STO-3G
GEOM_OPT_MAX_CYCLES       100
GEOM_OPT_TOL_GRADIENT     300
GEOM_OPT_TOL_DISPLACEMENT 1200
GEOM_OPT_TOL_ENERGY       100
SYMMETRY                  False
THRESH                    12
SCF_CONVERGENCE           8
MAX_SUB_FILE_NUM          128
MEM_STATIC                400
MEM_TOTAL                 4000
$end
--------------------------------------------------------------

   15   -1509.9565675786      8.29E-09 Convergence criterion met
 Total energy in the final basis set = -1509.95656758
   14   -1510.0483626326      7.39E-09 Convergence criterion met
 Total energy in the final basis set = -1510.04836263
   14   -1510.1095172654      5.95E-09 Convergence criterion met
 Total energy in the final basis set = -1510.10951727
   14   -1510.1466361941      5.22E-09 Convergence criterion met
 Total energy in the final basis set = -1510.14663619
   14   -1510.1720763598      4.28E-09 Convergence criterion met
 Total energy in the final basis set = -1510.17207636
   14   -1510.1907795380      4.11E-09 Convergence criterion met
 Total energy in the final basis set = -1510.19077954
   13   -1510.2055314062      6.21E-09 Convergence criterion met
 Total energy in the final basis set = -1510.20553141
   13   -1510.2175764592      4.93E-09 Convergence criterion met
   11   -1510.2543781734      2.73E-09 Convergence criterion met
 Total energy in the final basis set = -1510.25437817
    9   -1510.2543825487      6.33E-09 Convergence criterion met
 Total energy in the final basis set = -1510.25438255
    9   -1510.2543858517      2.82E-09 Convergence criterion met
 Total energy in the final basis set = -1510.25438585
    9   -1510.2543887824      4.87E-09 Convergence criterion met
 Total energy in the final basis set = -1510.25438878
    9   -1510.2543902846      5.26E-09 Convergence criterion met
 Total energy in the final basis set = -1510.25439028
    9   -1510.2543916383      5.26E-09 Convergence criterion met
 Total energy in the final basis set = -1510.25439164

             Standard Nuclear Orientation (Angstroms)
    I     Atom           X                Y                Z
 ----------------------------------------------------------------
    1      O       4.3038578916    -0.8330487562    -2.2861369992
    2      C       3.8041100329     0.1592962616    -1.7191822357
    3      C       4.2956293626     0.8636679097    -0.4027449367
    4      C       3.9890087814     0.1008135342     0.9521900033
    5      C       2.7963395487    -0.9344814137     1.0779588087
    6      O       1.9856399581    -1.2189637306    -0.0898018680
    7      C       1.0634907789    -0.0646266968    -0.3343662018
    8      C      -0.3356159521    -0.6694126724    -0.6988100593
    9      O      -1.3392970603     0.3892584350    -0.4148670458
   10      C      -2.6419659188    -0.0588413319    -0.7898823788
   11      C      -3.7259648033     0.9938569490    -0.3479129944
   12      C      -5.0320011797     0.3004740053     0.2361140947
   13      C      -5.0288994403    -1.2649529304     0.1250508848
   14      O      -4.5858469376    -2.0876927491     0.9548352610
   15      O       2.7753146492     0.9735397026    -2.3313227223
   16      O      -5.7087872216    -1.6211982508    -1.0856915235
   17      O      -2.8624293955    -1.1573412624    -1.3481015853
   18      C      -5.6445016248    -3.0869630317    -1.2823698661
   19      C      -3.2584468789     1.8422067564     0.9061418751
   20      C      -4.2663075632     3.0404541299     1.1202109885
   21      C      -5.4942111057     2.2991886787     1.7675980052
   22      C      -4.9897318957     0.8042251838     1.7415565198
   23      O      -3.5433526889     0.9282455054     2.0369920931
   24      H      -3.9704822310     1.6333211623    -1.2165002861
   25      H      -5.9287058607     0.6727868649    -0.2898221431
   26      H      -2.1861349000     2.1140624032     0.8872629274
   27      H      -3.8376119791     3.7885916532     1.8055933377
   28      H      -4.5238763893     3.5380597024     0.1715688373
   29      H      -5.6624698732     2.6292877575     2.8051367187
   30      H      -6.4265689316     2.4362560219     1.1967234576
   31      H      -5.4736055312     0.1209735851     2.4659159200
   32      O       2.6466575742    -1.6130529437     2.1171560311
   33      C       2.3635090603     0.3747047632    -3.6237824939
   34      C       5.8845491922     0.7592944330    -0.4051454692
   35      C       6.4884451062     1.5897040477     0.7977666233
   36      C       6.2587521342     0.6033607277     2.0041544157
   37      C       5.4173016930    -0.5259647556     1.2952832360
   38      O       6.0902562537    -0.6556596529    -0.0153638273
   39      H       3.9172322764     1.9006329791    -0.3852885479
   40      H       3.7661412909     0.8679755213     1.7183832083
   41      H       1.9180534002    -0.6309015860    -3.4812714953
   42      H       6.3472631113     0.9570988179    -1.3913081465
   43      H       7.5586974462     1.7889344519     0.6310119821
   44      H       5.9678794111     2.5516442084     0.9331416472
   45      H       7.2125978505     0.1924668956     2.3725203861
   46      H       5.7229778300     1.0690676721     2.8467351472
   47      H       5.3773240013    -1.5002012920     1.8201544883
   48      H       3.2221022150     0.2853046474    -4.3189009497
   49      H       1.6069896986     1.0589552384    -4.0499470029
   50      H      -6.2150312425    -3.2983427164    -2.2054518065
   51      H      -6.0965136155    -3.6356593705    -0.4307613415
   52      H      -4.5960276390    -3.4267700073    -1.4071846447
   53      H      -0.3787306524    -0.9819096449    -1.7643023176
   54      H      -0.5341909387    -1.5663258260    -0.0711681380
   55      H       1.4694943714     0.5716352175    -1.1553421317
   56      H       0.9350638934     0.5548681266     0.5779346520
 ----------------------------------------------------------------

    9   -1510.2543920642      3.41E-09 Convergence criterion met
 Total energy in the final basis set = -1510.25439206
 Final energy is   -1510.25439206424
 **  OPTIMIZATION CONVERGED  **

                    Orbital Energies (a.u.)
 --------------------------------------------------------------

 Alpha MOs
 -- Occupied --
-18.946 -18.938 -18.922 -18.908 -18.899 -18.894 -18.887 -18.885
-18.878 -18.862 -10.109 -10.106 -10.103 -10.090 -10.072 -10.070
-10.066 -10.064 -10.058 -10.057 -10.056 -10.053 -10.046 -10.041
-10.039 -10.032 -10.025 -10.023 -10.020 -10.018  -1.020  -1.016
 -1.006  -0.999  -0.976  -0.968  -0.944  -0.941  -0.934  -0.925
 -0.767  -0.761  -0.727  -0.724  -0.712  -0.708  -0.695  -0.671
 -0.654  -0.607  -0.602  -0.578  -0.551  -0.544  -0.543  -0.536
 -0.519  -0.510  -0.487  -0.475  -0.462  -0.460  -0.454  -0.451
 -0.442  -0.433  -0.430  -0.418  -0.416  -0.406  -0.402  -0.399
 -0.397  -0.383  -0.375  -0.366  -0.361  -0.360  -0.353  -0.349
 -0.346  -0.340  -0.337  -0.333  -0.332  -0.329  -0.324  -0.314
 -0.310  -0.309  -0.305  -0.302  -0.295  -0.285  -0.279  -0.277
 -0.272  -0.264  -0.256  -0.244  -0.243  -0.236  -0.232  -0.194
 -0.180  -0.167  -0.166  -0.158  -0.156  -0.152  -0.147  -0.142
 -0.141

          Ground-State Mulliken Net Atomic Charges

     Atom                 Charge (a.u.)
  ----------------------------------------
      1 O                    -0.197864
      2 C                     0.212691
      3 C                    -0.081368
      4 C                    -0.084858
      5 C                     0.217587
      6 O                    -0.190031
      7 C                    -0.069441
      8 C                    -0.046187
      9 O                    -0.173150
     10 C                     0.211582
     11 C                    -0.077168
     12 C                    -0.080964
     13 C                     0.210999
     14 O                    -0.215816
     15 O                    -0.172360
     16 O                    -0.170454
     17 O                    -0.212223
     18 C                    -0.127971
     19 C                     0.022836
     20 C                    -0.144919
     21 C                    -0.143454
     22 C                     0.024750
     23 O                    -0.189195
     24 H                     0.084382
     25 H                     0.084122
     26 H                     0.089863
     27 H                     0.077149
     28 H                     0.072273
     29 H                     0.077627
     30 H                     0.073162
     31 H                     0.086707
     32 O                    -0.181583
     33 C                    -0.129867
     34 C                     0.027087
     35 C                    -0.145673
     36 C                    -0.141587
     37 C                     0.026154
     38 O                    -0.182921
     39 H                     0.085485
     40 H                     0.082660
     41 H                     0.092461
     42 H                     0.084439
     43 H                     0.079637
     44 H                     0.073412
     45 H                     0.079870
     46 H                     0.074943
     47 H                     0.090540
     48 H                     0.093187
     49 H                     0.091257
     50 H                     0.087065
     51 H                     0.086833
     52 H                     0.093336
     53 H                     0.086362
     54 H                     0.096530
     55 H                     0.103220
     56 H                     0.078848
  ----------------------------------------
  Sum of atomic charges =    -0.000000

                    Cartesian Multipole Moments
 -----------------------------------------------------------------
    Charge (ESU x 10^10)
                 0.0000
    Dipole Moment (Debye)
         X      -0.2958      Y       4.9753      Z      -1.5522
       Tot       5.2202
    Quadrupole Moments (Debye-Ang)
        XX    -150.3368     XY       8.3916     YY    -159.9405
        XZ       6.2137     YZ       2.4896     ZZ    -159.4382

 Total job time:  84.60s(wall), 4023.93s(cpu)
        *  Thank you very much for using Q-Chem.  Have a nice day.  *
