 Q-Chem 5.0, Q-Chem, Inc., Pleasanton, CA (2017)
 Q-Chem 5.0.1 for Intel X86 EM64T Linux

User input:
--------------------------------------------------------------
$molecule
0  1
O -4.4319448538 1.7575062708 1.6383407113
C -4.3803923988 1.6471687725 0.3947941379
C -4.5799660561 0.3491875622 -0.4645069128
C -3.3279926652 -0.628458047 -0.4405437679
C -2.1502213805 -0.0940045591 0.4502761464
O -1.4869607383 -1.1879668453 1.0960462378
C -0.1187082691 -0.7872532925 1.5082226968
C 0.9221385083 -1.5638145155 0.6329734967
O 2.2449029567 -0.9683083658 0.9347524579
C 3.2836682672 -1.6911437842 0.2553749723
C 4.576226963 -0.8015084129 0.2333865174
C 4.6627222457 0.2645969377 -0.9407389473
C 3.388931144 0.4771192959 -1.8373343227
O 3.0604602759 1.5471175113 -2.3939619416
O -4.1463563317 2.736884708 -0.5059019062
O 2.671914262 -0.7496277917 -2.0005540855
O 3.1673688267 -2.8578902461 -0.1766016412
C 1.5122745004 -0.5463619976 -2.9002008223
C 4.7218227089 0.1457492836 1.5032036037
C 6.2442732446 0.5420161936 1.6456846853
C 6.4024994013 1.5614407209 0.457399164
C 4.9317863782 1.5936050837 -0.1158418498
O 4.0789305684 1.4104167192 1.0813986693
H 5.4333568722 -1.4944703883 0.1582316278
H 5.5057067816 0.0262933974 -1.6165458099
H 4.2447096652 -0.2438030133 2.4228254275
H 6.423628623 1.0271319368 2.6184397792
H 6.9135038534 -0.3284149179 1.5563841343
H 6.6972126091 2.5600347099 0.8170479215
H 7.1333434635 1.2274067293 -0.2964534385
H 4.6453617773 2.5130960623 -0.6632250296
O -1.7787485458 1.0985472863 0.5344798325
C -3.8542933003 3.9688045191 0.2612305978
C -5.7023600794 -0.599340153 0.141522895
C -6.1356175544 -1.6270916598 -0.9767152071
C -4.8912323699 -2.5905331761 -1.0002833629
C -3.9883737077 -1.9531130171 0.1278667157
O -4.9661528446 -1.4389700802 1.1139873348
H -4.8179518822 0.6568654044 -1.4977708881
H -2.9225336178 -0.779206124 -1.4588747452
H -2.93789441 3.8504744557 0.874924089
H -6.531492804 -0.0649784428 0.6442925207
H -7.0514851951 -2.1593467537 -0.6742854606
H -6.3155407188 -1.1374848943 -1.9470481213
H -5.1726276637 -3.6210588192 -0.7314341161
H -4.3839613556 -2.606805701 -1.9781374173
H -3.2676466809 -2.6390010157 0.6124822811
H -4.6953703295 4.2448111986 0.9297617576
H -3.6985912388 4.7667770407 -0.4879053876
H 1.0258384484 -1.5346593218 -2.9956139105
H 1.83204517 -0.1918754586 -3.9011892282
H 0.7931346344 0.18714487 -2.4809893268
H 0.9039554076 -2.6510087506 0.8646927428
H 0.6816604505 -1.4380274818 -0.4444576849
H 0.0113297112 -1.0414248317 2.580149706
H -0.0046328049 0.3105839772 1.3744028016
$end

$rem
JOBTYPE                   OPT
METHOD                    B3LYP
DFT_D                     d3_op
BASIS                     STO-3G
GEOM_OPT_MAX_CYCLES       100
GEOM_OPT_TOL_GRADIENT     300
GEOM_OPT_TOL_DISPLACEMENT 1200
GEOM_OPT_TOL_ENERGY       100
SYMMETRY                  False
THRESH                    12
SCF_CONVERGENCE           8
MAX_SUB_FILE_NUM          128
MEM_STATIC                400
MEM_TOTAL                 4000
$end
--------------------------------------------------------------

   16   -1510.2769537358      5.47E-09 Convergence criterion met
 Total energy in the final basis set = -1510.27695374
   14   -1510.2805897177      4.53E-09 Convergence criterion met
 Total energy in the final basis set = -1510.28058972
   14   -1510.2827790141      5.17E-09 Convergence criterion met
 Total energy in the final basis set = -1510.28277901
   14   -1510.2850037473      5.21E-09 Convergence criterion met
 Total energy in the final basis set = -1510.28500375
   14   -1510.2869110571      6.93E-09 Convergence criterion met
 Total energy in the final basis set = -1510.28691106
   14   -1510.2882367951      6.64E-09 Convergence criterion met
 Total energy in the final basis set = -1510.28823680
   14   -1510.2892724654      2.97E-09 Convergence criterion met
 Total energy in the final basis set = -1510.28927247
   13   -1510.2909154430      9.34E-09 Convergence criterion met
   11   -1510.2957477060      9.90E-09 Convergence criterion met
 Total energy in the final basis set = -1510.29574771
   11   -1510.2957565063      8.15E-09 Convergence criterion met
 Total energy in the final basis set = -1510.29575651
   10   -1510.2957617666      8.12E-09 Convergence criterion met
 Total energy in the final basis set = -1510.29576177
   11   -1510.2957635539      3.07E-09 Convergence criterion met
 Total energy in the final basis set = -1510.29576355
   10   -1510.2957582463      7.53E-09 Convergence criterion met
 Total energy in the final basis set = -1510.29575825
   11   -1510.2957625952      5.11E-09 Convergence criterion met
 Total energy in the final basis set = -1510.29576260

             Standard Nuclear Orientation (Angstroms)
    I     Atom           X                Y                Z
 ----------------------------------------------------------------
    1      O      -2.8445674189     2.2291545006     0.5628478127
    2      C      -2.9253211527     1.4959234060    -0.4463680002
    3      C      -3.8546396931     0.2347453523    -0.6251546071
    4      C      -3.2164762943    -1.1312110334    -0.1343250489
    5      C      -1.7472208261    -0.9668330990     0.3763038450
    6      O      -1.3582467879    -2.1266309362     1.1098825876
    7      C       0.0502421423    -1.9964057546     1.5603630686
    8      C       1.0745897495    -2.3244018409     0.4070134954
    9      O       2.1048153008    -1.2604647359     0.4477763278
   10      C       3.1553467956    -1.5517687832    -0.4867768989
   11      C       4.2342587218    -0.4207216854    -0.3871456247
   12      C       3.6854188566     1.0353776962    -0.6930094511
   13      C       2.1650889217     1.0975371524    -1.0789822464
   14      O       1.3286730673     1.9216329012    -0.6449112050
   15      O      -2.2801662868     1.7501668660    -1.6980184608
   16      O       1.9018228329     0.0854343972    -2.0479328039
   17      O       3.1985407052    -2.5805662170    -1.1948166004
   18      C       0.4667997243     0.0707193982    -2.4247444633
   19      C       4.7381390528    -0.2283029262     1.1100184088
   20      C       6.0657323555     0.6287898459     1.0857210926
   21      C       5.4949904992     2.0683997235     0.8022655257
   22      C       3.9510209628     1.7642216540     0.6881959652
   23      O       3.7360182820     0.6931522447     1.6894301082
   24      H       5.0595969513    -0.6912617197    -1.0686200022
   25      H       4.2622167784     1.5011901888    -1.5138434169
   26      H       4.7917963192    -1.1641560879     1.6992892285
   27      H       6.5727508288     0.5797606079     2.0624548593
   28      H       6.7667177815     0.2872755327     0.3071888376
   29      H       5.6913561619     2.7525925406     1.6429938056
   30      H       5.9011745940     2.5146455085    -0.1194768139
   31      H       3.2692140032     2.6159972577     0.8789344022
   32      O      -0.9885254056     0.0111683945     0.1714918367
   33      C      -1.3558154278     2.9046920174    -1.5701959988
   34      C      -5.1154979318     0.3242729613     0.3326082710
   35      C      -6.1944025798    -0.7222726331    -0.1535663432
   36      C      -5.5572959403    -2.0713815683     0.3473128155
   37      C      -4.2278498261    -1.5486197089     1.0197982183
   38      O      -4.6226138969    -0.2497274867     1.6073444901
   39      H      -4.1442817561     0.1697504668    -1.6886370400
   40      H      -3.2070678595    -1.8840332808    -0.9451601433
   41      H      -0.3643874350     2.5647844568    -1.1851240543
   42      H      -5.4891854873     1.3532747360     0.4963877492
   43      H      -7.1648037625    -0.5304535266     0.3310958273
   44      H      -6.3331530465    -0.6967694442    -1.2461545055
   45      H      -6.1955586958    -2.5656254464     1.0969720781
   46      H      -5.3599249099    -2.7825836341    -0.4705625416
   47      H      -3.7858268450    -2.2128205653     1.7875271785
   48      H      -1.7750041952     3.6681259889    -0.8862221139
   49      H      -1.2426425618     3.3277400479    -2.5854595310
   50      H       0.3057776877    -0.8826292929    -2.9608322688
   51      H       0.2259651750     0.9140259321    -3.1022286718
   52      H      -0.1853269388     0.1278166792    -1.5230238811
   53      H       1.5343474441    -3.3260941491     0.5468818326
   54      H       0.5527085866    -2.3286086117    -0.5756455482
   55      H       0.1566479016    -2.7092640444     2.4010565415
   56      H       0.2526517655    -0.9632187887     1.9172531334
 ----------------------------------------------------------------

    9   -1510.2957606400      7.25E-09 Convergence criterion met
 Total energy in the final basis set = -1510.29576064
 Final energy is   -1510.29576064001
 **  OPTIMIZATION CONVERGED  **

                    Orbital Energies (a.u.)
 --------------------------------------------------------------

 Alpha MOs
 -- Occupied --
-18.950 -18.937 -18.932 -18.910 -18.894 -18.887 -18.886 -18.883
-18.872 -18.852 -10.114 -10.105 -10.099 -10.083 -10.080 -10.076
-10.061 -10.060 -10.057 -10.056 -10.050 -10.043 -10.039 -10.037
-10.030 -10.027 -10.020 -10.020 -10.019 -10.018  -1.028  -1.016
 -1.006  -0.990  -0.969  -0.969  -0.951  -0.939  -0.935  -0.915
 -0.764  -0.762  -0.730  -0.722  -0.713  -0.705  -0.696  -0.658
 -0.642  -0.618  -0.596  -0.581  -0.546  -0.544  -0.537  -0.535
 -0.519  -0.509  -0.489  -0.473  -0.463  -0.456  -0.451  -0.441
 -0.435  -0.431  -0.429  -0.418  -0.409  -0.405  -0.402  -0.397
 -0.394  -0.378  -0.371  -0.368  -0.357  -0.354  -0.349  -0.347
 -0.342  -0.339  -0.332  -0.330  -0.328  -0.323  -0.322  -0.313
 -0.310  -0.306  -0.304  -0.300  -0.292  -0.289  -0.278  -0.275
 -0.271  -0.260  -0.253  -0.249  -0.234  -0.233  -0.233  -0.192
 -0.177  -0.175  -0.166  -0.164  -0.151  -0.146  -0.143  -0.143
 -0.134

          Ground-State Mulliken Net Atomic Charges

     Atom                 Charge (a.u.)
  ----------------------------------------
      1 O                    -0.218425
      2 C                     0.211549
      3 C                    -0.081733
      4 C                    -0.078638
      5 C                     0.218153
      6 O                    -0.167925
      7 C                    -0.050342
      8 C                    -0.047711
      9 O                    -0.170706
     10 C                     0.212960
     11 C                    -0.078944
     12 C                    -0.077912
     13 C                     0.222541
     14 O                    -0.205978
     15 O                    -0.179939
     16 O                    -0.171160
     17 O                    -0.215468
     18 C                    -0.141967
     19 C                     0.025923
     20 C                    -0.144067
     21 C                    -0.143908
     22 C                     0.024472
     23 O                    -0.186360
     24 H                     0.085127
     25 H                     0.084933
     26 H                     0.081594
     27 H                     0.077945
     28 H                     0.073603
     29 H                     0.078571
     30 H                     0.073109
     31 H                     0.092299
     32 O                    -0.204647
     33 C                    -0.149204
     34 C                     0.025801
     35 C                    -0.144479
     36 C                    -0.143724
     37 C                     0.024597
     38 O                    -0.187305
     39 H                     0.083060
     40 H                     0.085366
     41 H                     0.111219
     42 H                     0.087326
     43 H                     0.078055
     44 H                     0.073240
     45 H                     0.078291
     46 H                     0.072645
     47 H                     0.088369
     48 H                     0.087175
     49 H                     0.073795
     50 H                     0.083578
     51 H                     0.084902
     52 H                     0.111739
     53 H                     0.089144
     54 H                     0.086182
     55 H                     0.093238
     56 H                     0.110041
  ----------------------------------------
  Sum of atomic charges =     0.000000

                    Cartesian Multipole Moments
 -----------------------------------------------------------------
    Charge (ESU x 10^10)
                 0.0000
    Dipole Moment (Debye)
         X       0.8607      Y      -1.8504      Z      -1.7160
       Tot       2.6664
    Quadrupole Moments (Debye-Ang)
        XX    -141.6381     XY      12.0461     YY    -159.6853
        XZ       8.4984     YZ      -8.3511     ZZ    -162.5013

 Total job time:  155.25s(wall), 7400.77s(cpu)
        *  Thank you very much for using Q-Chem.  Have a nice day.  *
