 Q-Chem 5.0, Q-Chem, Inc., Pleasanton, CA (2017)
 Q-Chem 5.0.1 for Intel X86 EM64T Linux

User input:
--------------------------------------------------------------
$molecule
0  1
O -3.94934 -3.66094 2.70899
C -3.26408 -4.56952 2.26188
C -3.36658 -6.02376 2.66595
C -2.7598 -6.42075 4.0217
C -2.27636 -5.28922 4.90148
O -2.5005 -5.59361 6.21393
C -1.67527 -4.84667 7.11412
C -0.66244 -5.76802 7.786
O 0.29166 -4.98991 8.52569
C 1.18923 -5.70299 9.25028
C 2.39117 -4.88795 9.66467
C 3.50299 -4.79177 8.60974
C 3.11668 -5.20303 7.2032
O 3.59093 -4.74281 6.17468
O -2.4303 -4.30105 1.22234
O 2.53781 -6.42973 7.08904
O 0.9716 -6.83042 9.6753
C 2.30348 -7.08252 5.8946
C 2.11078 -3.39745 9.93732
C 3.18207 -2.83402 10.86907
C 4.38183 -2.8197 9.94381
C 3.72494 -3.26469 8.63152
O 2.41249 -2.76214 8.71949
H 2.78066 -5.35911 10.5962
H 4.41073 -5.37387 8.88203
H 1.09743 -3.20991 10.35491
H 2.89498 -1.78194 11.09517
H 3.32527 -3.38658 11.82252
H 4.75005 -1.77263 9.86511
H 5.21461 -3.49667 10.23338
H 4.32581 -2.90666 7.76705
O -1.45143 -4.47759 4.49617
C -2.2373 -3.04597 0.6841
C -4.82171 -6.49109 2.82652
C -4.90754 -8.00098 2.62334
C -4.23662 -8.49067 3.88761
C -3.99378 -7.15982 4.61187
O -5.07122 -6.35249 4.20339
H -2.87364 -6.60706 1.85404
H -1.89071 -7.10512 3.89962
H -1.83605 -2.35642 1.45744
H -5.52768 -5.96929 2.14353
H -5.98577 -8.27705 2.66285
H -4.46668 -8.37708 1.67511
H -4.96799 -9.11274 4.45059
H -3.29318 -9.05881 3.73748
H -3.92687 -7.36569 5.70084
H -3.19511 -2.64804 0.28591
H -1.50602 -3.1151 -0.14712
H 1.80942 -8.05375 6.10203
H 3.26226 -7.27472 5.36763
H 1.63708 -6.4718 5.24819
H -1.21529 -6.47764 8.44147
H -0.12802 -6.34134 7.00162
H -2.31288 -4.36072 7.88265
H -1.09527 -4.01951 6.64921
$end

$opt
CONSTRAINT
tors           1           2           3           4     -76.134
tors           3           4           5           6    +144.887
tors           4           5           6           7    +158.888
tors           5           6           7           8    -111.293
tors           6           7           8           9    +171.143
tors           7           8           9          10    +175.356
tors           8           9          10          11    +162.930
tors           9          10          11          12     -84.158
tors          11          12          13          14    +149.162
ENDCONSTRAINT
$end

$rem
JOBTYPE                   OPT
METHOD                    B3LYP
DFT_D                     d3_op
BASIS                     STO-3G
GEOM_OPT_MAX_CYCLES       100
GEOM_OPT_TOL_GRADIENT     300
GEOM_OPT_TOL_DISPLACEMENT 1200
GEOM_OPT_TOL_ENERGY       100
SYMMETRY                  False
THRESH                    12
SCF_CONVERGENCE           8
MAX_SUB_FILE_NUM          128
MEM_STATIC                400
MEM_TOTAL                 4000
$end
--------------------------------------------------------------

   15   -1510.1430984578      6.53E-09 Convergence criterion met
 Total energy in the final basis set = -1510.14309846
   14   -1510.2131216722      7.57E-09 Convergence criterion met
 Total energy in the final basis set = -1510.21312167
   15   -1510.2510237384      1.14E-09 Convergence criterion met
 Total energy in the final basis set = -1510.25102374
   14   -1510.2681216172      8.95E-09 Convergence criterion met
 Total energy in the final basis set = -1510.26812162
   13   -1510.2741577767      9.01E-09 Convergence criterion met
 Total energy in the final basis set = -1510.27415778
    3   -1510.2741577767      4.35E-10 Convergence criterion met
 Total energy in the final basis set = -1510.27415778
   13   -1510.2759246152      4.47E-09 Convergence criterion met
 Total energy in the final basis set = -1510.27592462
   13   -1510.2759315017      4.79E-09 Convergence criterion met
   11   -1510.2770495830      9.74E-09 Convergence criterion met
 Total energy in the final basis set = -1510.27704958
   11   -1510.2771136096      8.11E-09 Convergence criterion met
 Total energy in the final basis set = -1510.27711361
    9   -1510.2771288160      9.82E-09 Convergence criterion met
 Total energy in the final basis set = -1510.27712882
    9   -1510.2771359602      9.26E-09 Convergence criterion met
 Total energy in the final basis set = -1510.27713596
    9   -1510.2771405184      5.67E-09 Convergence criterion met
 Total energy in the final basis set = -1510.27714052
    9   -1510.2771428577      3.33E-09 Convergence criterion met
 Total energy in the final basis set = -1510.27714286

             Standard Nuclear Orientation (Angstroms)
    I     Atom           X                Y                Z
 ----------------------------------------------------------------
    1      O      -4.4319448538     1.7575062708     1.6383407113
    2      C      -4.3803923988     1.6471687725     0.3947941379
    3      C      -4.5799660561     0.3491875622    -0.4645069128
    4      C      -3.3279926652    -0.6284580470    -0.4405437679
    5      C      -2.1502213805    -0.0940045591     0.4502761464
    6      O      -1.4869607383    -1.1879668453     1.0960462378
    7      C      -0.1187082691    -0.7872532925     1.5082226968
    8      C       0.9221385083    -1.5638145155     0.6329734967
    9      O       2.2449029567    -0.9683083658     0.9347524579
   10      C       3.2836682672    -1.6911437842     0.2553749723
   11      C       4.5762269630    -0.8015084129     0.2333865174
   12      C       4.6627222457     0.2645969377    -0.9407389473
   13      C       3.3889311440     0.4771192959    -1.8373343227
   14      O       3.0604602759     1.5471175113    -2.3939619416
   15      O      -4.1463563317     2.7368847080    -0.5059019062
   16      O       2.6719142620    -0.7496277917    -2.0005540855
   17      O       3.1673688267    -2.8578902461    -0.1766016412
   18      C       1.5122745004    -0.5463619976    -2.9002008223
   19      C       4.7218227089     0.1457492836     1.5032036037
   20      C       6.2442732446     0.5420161936     1.6456846853
   21      C       6.4024994013     1.5614407209     0.4573991640
   22      C       4.9317863782     1.5936050837    -0.1158418498
   23      O       4.0789305684     1.4104167192     1.0813986693
   24      H       5.4333568722    -1.4944703883     0.1582316278
   25      H       5.5057067816     0.0262933974    -1.6165458099
   26      H       4.2447096652    -0.2438030133     2.4228254275
   27      H       6.4236286230     1.0271319368     2.6184397792
   28      H       6.9135038534    -0.3284149179     1.5563841343
   29      H       6.6972126091     2.5600347099     0.8170479215
   30      H       7.1333434635     1.2274067293    -0.2964534385
   31      H       4.6453617773     2.5130960623    -0.6632250296
   32      O      -1.7787485458     1.0985472863     0.5344798325
   33      C      -3.8542933003     3.9688045191     0.2612305978
   34      C      -5.7023600794    -0.5993401530     0.1415228950
   35      C      -6.1356175544    -1.6270916598    -0.9767152071
   36      C      -4.8912323699    -2.5905331761    -1.0002833629
   37      C      -3.9883737077    -1.9531130171     0.1278667157
   38      O      -4.9661528446    -1.4389700802     1.1139873348
   39      H      -4.8179518822     0.6568654044    -1.4977708881
   40      H      -2.9225336178    -0.7792061240    -1.4588747452
   41      H      -2.9378944100     3.8504744557     0.8749240890
   42      H      -6.5314928040    -0.0649784428     0.6442925207
   43      H      -7.0514851951    -2.1593467537    -0.6742854606
   44      H      -6.3155407188    -1.1374848943    -1.9470481213
   45      H      -5.1726276637    -3.6210588192    -0.7314341161
   46      H      -4.3839613556    -2.6068057010    -1.9781374173
   47      H      -3.2676466809    -2.6390010157     0.6124822811
   48      H      -4.6953703295     4.2448111986     0.9297617576
   49      H      -3.6985912388     4.7667770407    -0.4879053876
   50      H       1.0258384484    -1.5346593218    -2.9956139105
   51      H       1.8320451700    -0.1918754586    -3.9011892282
   52      H       0.7931346344     0.1871448700    -2.4809893268
   53      H       0.9039554076    -2.6510087506     0.8646927428
   54      H       0.6816604505    -1.4380274818    -0.4444576849
   55      H       0.0113297112    -1.0414248317     2.5801497060
   56      H      -0.0046328049     0.3105839772     1.3744028016
 ----------------------------------------------------------------

    9   -1510.2771435834      4.50E-09 Convergence criterion met
 Total energy in the final basis set = -1510.27714358
 Final energy is   -1510.27714358342
 **  OPTIMIZATION CONVERGED  **

                    Orbital Energies (a.u.)
 --------------------------------------------------------------

 Alpha MOs
 -- Occupied --
-18.946 -18.938 -18.927 -18.924 -18.887 -18.886 -18.885 -18.881
-18.871 -18.863 -10.106 -10.106 -10.099 -10.091 -10.073 -10.072
-10.071 -10.059 -10.058 -10.058 -10.058 -10.055 -10.042 -10.042
-10.037 -10.033 -10.021 -10.020 -10.019 -10.019  -1.021  -1.018
 -1.006  -1.000  -0.970  -0.969  -0.944  -0.943  -0.933  -0.926
 -0.764  -0.762  -0.728  -0.723  -0.715  -0.705  -0.694  -0.670
 -0.656  -0.615  -0.598  -0.579  -0.546  -0.545  -0.538  -0.537
 -0.519  -0.510  -0.487  -0.477  -0.464  -0.461  -0.454  -0.440
 -0.437  -0.432  -0.431  -0.420  -0.413  -0.407  -0.404  -0.402
 -0.394  -0.389  -0.377  -0.367  -0.361  -0.355  -0.354  -0.349
 -0.343  -0.338  -0.333  -0.331  -0.330  -0.330  -0.321  -0.313
 -0.310  -0.307  -0.306  -0.298  -0.294  -0.291  -0.282  -0.279
 -0.273  -0.258  -0.253  -0.246  -0.245  -0.234  -0.233  -0.186
 -0.180  -0.173  -0.167  -0.163  -0.161  -0.149  -0.143  -0.143
 -0.142

          Ground-State Mulliken Net Atomic Charges

     Atom                 Charge (a.u.)
  ----------------------------------------
      1 O                    -0.214401
      2 C                     0.210729
      3 C                    -0.080795
      4 C                    -0.076903
      5 C                     0.214228
      6 O                    -0.173071
      7 C                    -0.053065
      8 C                    -0.047608
      9 O                    -0.175643
     10 C                     0.215972
     11 C                    -0.080774
     12 C                    -0.077735
     13 C                     0.212043
     14 O                    -0.211232
     15 O                    -0.170614
     16 O                    -0.168629
     17 O                    -0.212576
     18 C                    -0.128447
     19 C                     0.026110
     20 C                    -0.143749
     21 C                    -0.144615
     22 C                     0.023978
     23 O                    -0.188195
     24 H                     0.083200
     25 H                     0.086016
     26 H                     0.086236
     27 H                     0.078069
     28 H                     0.073355
     29 H                     0.078649
     30 H                     0.073111
     31 H                     0.090557
     32 O                    -0.208848
     33 C                    -0.128286
     34 C                     0.025580
     35 C                    -0.143854
     36 C                    -0.144437
     37 C                     0.023124
     38 O                    -0.187290
     39 H                     0.084467
     40 H                     0.083921
     41 H                     0.093576
     42 H                     0.085145
     43 H                     0.078017
     44 H                     0.073263
     45 H                     0.078232
     46 H                     0.071847
     47 H                     0.092204
     48 H                     0.086882
     49 H                     0.087927
     50 H                     0.092048
     51 H                     0.092412
     52 H                     0.090778
     53 H                     0.090500
     54 H                     0.081643
     55 H                     0.090410
     56 H                     0.106537
  ----------------------------------------
  Sum of atomic charges =     0.000000

                    Cartesian Multipole Moments
 -----------------------------------------------------------------
    Charge (ESU x 10^10)
                 0.0000
    Dipole Moment (Debye)
         X       1.1645      Y      -0.8088      Z      -2.4441
       Tot       2.8256
    Quadrupole Moments (Debye-Ang)
        XX    -143.5583     XY       2.2180     YY    -164.0666
        XZ      12.8479     YZ       1.6512     ZZ    -160.2474

 Total job time:  53.26s(wall), 2375.29s(cpu)
        *  Thank you very much for using Q-Chem.  Have a nice day.  *
