 Q-Chem 5.0, Q-Chem, Inc., Pleasanton, CA (2017)
 Q-Chem 5.0.1 for Intel X86 EM64T Linux

User input:
--------------------------------------------------------------
$molecule
0  1
O -5.2688687839 1.5173245222 1.1365201713
C -5.1882876934 0.9602107745 0.0213161131
C -4.7279165033 -0.5114803929 -0.2868254011
C -3.1602378293 -0.723585729 -0.1978098368
C -2.3654009397 0.606844312 0.036395384
O -1.0329884425 0.283768912 0.4441968311
C -0.1185180746 1.4257072157 0.1927547992
C 1.2867495946 0.8223616023 -0.1435404415
O 2.128520626 1.986716005 -0.5148725953
C 3.5290426887 1.7136295025 -0.6956694258
C 4.0908166723 0.3448649818 -1.2798983784
C 4.7862661191 -0.5795787424 -0.1842222583
C 4.35577663 -0.2168928712 1.2818903683
O 3.5676829739 -0.8515262838 2.0176397566
O -5.5674336869 1.5712941867 -1.2199009807
O 5.0220640597 0.9866146413 1.6666123976
O 4.3013543463 2.6859966063 -0.535504594
C 4.5818509186 1.4050768473 3.0179725746
C 3.199544193 -0.7161783942 -2.0514983632
C 4.1655495529 -1.5521556633 -2.9840585429
C 4.8977342854 -2.4632100961 -1.9302011464
C 4.2041915791 -1.9972728432 -0.5911578393
O 2.8125287392 -1.691846376 -1.0058191911
H 4.88011005 0.69861035 -1.9688266232
H 5.886408084 -0.527971362 -0.2625191818
H 2.3143703191 -0.3087549561 -2.5743966625
H 3.5784559092 -2.1523729599 -3.6974861698
H 4.8590892236 -0.9089835882 -3.548622133
H 4.7039205528 -3.5317770615 -2.1146267957
H 5.9871575996 -2.2996993944 -1.9109742713
H 4.1999694238 -2.7374317816 0.232387363
O -2.7625976824 1.7686005762 -0.2053501931
C -5.931208645 2.9869783211 -0.9883251252
C -5.2150830635 -1.4959518866 0.8610097743
C -5.0440952806 -2.9852298903 0.3617505037
C -3.4864658342 -3.1735021646 0.4892286865
C -3.0516432688 -1.748577982 1.0120921883
O -4.1675256131 -1.3501562792 1.8984430156
H -5.1157872748 -0.7985990183 -1.279665197
H -2.7673553036 -1.1732981227 -1.1289715023
H -5.0699195145 3.5612633763 -0.5898749602
H -6.2086345532 -1.2487744646 1.2820760834
H -5.5904016531 -3.6783011051 1.0210025617
H -5.405968168 -3.1198267345 -0.6701173622
H -3.232917 -3.9472239953 1.2313142422
H -3.0054340777 -3.4303558801 -0.4678570027
H -2.0849237426 -1.7107343926 1.550666547
H -6.7780442404 3.0820982472 -0.278167699
H -6.2258579903 3.3940480063 -1.9730749931
H 5.1420387539 2.330288295 3.2460413168
H 4.8095845863 0.631537894 3.7794627212
H 3.4931256812 1.6156456573 3.0418125058
H 1.7029170606 0.2794782249 0.7329199276
H 1.1699211745 0.0943125814 -0.968898179
H -0.0536433177 2.0769812949 1.0918018178
H -0.4881135868 2.0460190967 -0.6514022098
$end

$rem
JOBTYPE                   OPT
METHOD                    B3LYP
DFT_D                     d3_op
BASIS                     STO-3G
GEOM_OPT_MAX_CYCLES       100
GEOM_OPT_TOL_GRADIENT     300
GEOM_OPT_TOL_DISPLACEMENT 1200
GEOM_OPT_TOL_ENERGY       100
SYMMETRY                  False
THRESH                    12
SCF_CONVERGENCE           8
MAX_SUB_FILE_NUM          128
MEM_STATIC                400
MEM_TOTAL                 4000
$end
--------------------------------------------------------------

   16   -1510.2600193033      7.87E-09 Convergence criterion met
 Total energy in the final basis set = -1510.26001930
   14   -1510.2636970821      3.09E-09 Convergence criterion met
 Total energy in the final basis set = -1510.26369708
   14   -1510.2655439197      1.71E-09 Convergence criterion met
 Total energy in the final basis set = -1510.26554392
   13   -1510.2669322823      8.62E-09 Convergence criterion met
 Total energy in the final basis set = -1510.26693228
   13   -1510.2680940895      7.34E-09 Convergence criterion met
 Total energy in the final basis set = -1510.26809409
   14   -1510.2689823653      2.92E-09 Convergence criterion met
 Total energy in the final basis set = -1510.26898237
   13   -1510.2695218696      4.50E-09 Convergence criterion met
 Total energy in the final basis set = -1510.26952187
   13   -1510.2702551691      3.01E-09 Convergence criterion met
   11   -1510.2810387609      9.70E-09 Convergence criterion met
 Total energy in the final basis set = -1510.28103876
   12   -1510.2810412796      7.61E-09 Convergence criterion met
 Total energy in the final basis set = -1510.28104128
   12   -1510.2811304085      5.55E-09 Convergence criterion met
 Total energy in the final basis set = -1510.28113041
   11   -1510.2811502945      6.26E-09 Convergence criterion met
 Total energy in the final basis set = -1510.28115029
   10   -1510.2811758848      9.13E-09 Convergence criterion met
 Total energy in the final basis set = -1510.28117588
   11   -1510.2811868992      5.64E-09 Convergence criterion met
 Total energy in the final basis set = -1510.28118690

             Standard Nuclear Orientation (Angstroms)
    I     Atom           X                Y                Z
 ----------------------------------------------------------------
    1      O      -4.4464326548     0.7559285928     2.2986789740
    2      C      -4.4629260685     0.6861141458     1.0519468990
    3      C      -4.3892959541    -0.6140341142     0.1653872517
    4      C      -3.0347451726    -0.7883523665    -0.6345173025
    5      C      -1.9936111244     0.3347437520    -0.3119861185
    6      O      -0.9092497865     0.2276716242    -1.2308208828
    7      C       0.1332538313     1.2358792447    -0.9033514007
    8      C       1.4110417140     0.8242431084    -1.7036286058
    9      O       2.4090489337     1.9039957772    -1.4908398369
   10      C       3.7909647610     1.5228465605    -1.5332423005
   11      C       4.3064935193     0.1056393931    -1.0195311422
   12      C       3.8789448241    -0.2735232348     0.4655370213
   13      C       2.8724905518     0.7447594425     1.1083222389
   14      O       1.7071818558     0.5161639355     1.5032897248
   15      O      -4.7151293020     1.7974920516     0.1767064125
   16      O       3.5250631540     2.0114922542     1.1751768923
   17      O       4.6117737732     2.4071202316    -1.8706600992
   18      C       2.5715149931     3.0634305781     1.6002966293
   19      C       3.8554381997    -1.2029972990    -1.7986652841
   20      C       4.8636362321    -2.3639595306    -1.4472302521
   21      C       4.4144408435    -2.7378261659     0.0172847005
   22      C       3.2466358293    -1.7079158459     0.2533431031
   23      O       2.6172189366    -1.6256859919    -1.0924758985
   24      H       5.4051570504     0.2026370061    -1.0756684597
   25      H       4.7724024185    -0.3249057340     1.1136571441
   26      H       3.6527249317    -1.0613522215    -2.8779828182
   27      H       4.7287366549    -3.2112848819    -2.1382113149
   28      H       5.9118547583    -2.0287743945    -1.4979968148
   29      H       4.0348026014    -3.7706329111     0.0698664891
   30      H       5.2252567053    -2.6198588103     0.7536402797
   31      H       2.4881079314    -1.9892114522     1.0098781830
   32      O      -2.0581485155     1.1812090114     0.6085877486
   33      C      -4.7356437782     3.0513787793     0.9605078739
   34      C      -4.3837815385    -1.9222217411     1.0592938841
   35      C      -4.7649846852    -3.1515820000     0.1451850568
   36      C      -3.4410943415    -3.3308025388    -0.6876194397
   37      C      -2.5353854365    -2.1919218846    -0.0723647572
   38      O      -2.9461464399    -2.1431781303     1.3478272618
   39      H      -5.2475363053    -0.5978285617    -0.5303944055
   40      H      -3.1953025625    -0.8253328037    -1.7266586660
   41      H      -3.7502575564     3.2447620328     1.4321104210
   42      H      -4.9533468490    -1.8266589177     2.0040076913
   43      H      -4.9762324382    -4.0399324806     0.7616205882
   44      H      -5.6418610534    -2.9445236094    -0.4889128446
   45      H      -2.9849346252    -4.3188146377    -0.5164282683
   46      H      -3.5962402174    -3.1968831822    -1.7702889807
   47      H      -1.4434538586    -2.3544715718    -0.1622439014
   48      H      -5.5084726739     3.0265876940     1.7561575809
   49      H      -4.9682879212     3.8598812898     0.2431368769
   50      H       3.1826000254     3.9294804951     1.9133720008
   51      H       1.9342560106     2.7200002370     2.4395368348
   52      H       1.9235556948     3.3547839624     0.7480318948
   53      H       1.7699524478    -0.1853716639    -1.3633133814
   54      H       1.1711368496     0.7752088548    -2.7887085024
   55      H       0.3587671699     1.2201332748     0.1870357749
   56      H      -0.2081960270     2.2550257643    -1.1890921742
 ----------------------------------------------------------------

   10   -1510.2811869874      7.26E-09 Convergence criterion met
 Total energy in the final basis set = -1510.28118699
 Final energy is   -1510.28118698738
 **  OPTIMIZATION CONVERGED  **

                    Orbital Energies (a.u.)
 --------------------------------------------------------------

 Alpha MOs
 -- Occupied --
-18.945 -18.931 -18.924 -18.921 -18.913 -18.889 -18.882 -18.875
-18.872 -18.855 -10.112 -10.100 -10.097 -10.084 -10.080 -10.078
-10.066 -10.057 -10.056 -10.051 -10.051 -10.049 -10.046 -10.046
-10.036 -10.035 -10.033 -10.027 -10.017 -10.015  -1.023  -1.010
 -1.001  -0.995  -0.991  -0.965  -0.947  -0.935  -0.929  -0.918
 -0.779  -0.757  -0.735  -0.720  -0.719  -0.706  -0.691  -0.668
 -0.649  -0.609  -0.600  -0.572  -0.564  -0.553  -0.539  -0.532
 -0.523  -0.506  -0.489  -0.475  -0.468  -0.453  -0.450  -0.447
 -0.443  -0.437  -0.426  -0.417  -0.414  -0.411  -0.402  -0.397
 -0.391  -0.380  -0.369  -0.368  -0.363  -0.360  -0.354  -0.353
 -0.345  -0.341  -0.336  -0.334  -0.327  -0.327  -0.322  -0.319
 -0.313  -0.307  -0.306  -0.298  -0.295  -0.288  -0.285  -0.270
 -0.267  -0.263  -0.260  -0.248  -0.239  -0.234  -0.229  -0.187
 -0.178  -0.173  -0.166  -0.159  -0.158  -0.151  -0.145  -0.139
 -0.135

          Ground-State Mulliken Net Atomic Charges

     Atom                 Charge (a.u.)
  ----------------------------------------
      1 O                    -0.216940
      2 C                     0.216350
      3 C                    -0.081249
      4 C                    -0.077930
      5 C                     0.215221
      6 O                    -0.173583
      7 C                    -0.056025
      8 C                    -0.076833
      9 O                    -0.182681
     10 C                     0.207183
     11 C                    -0.085264
     12 C                    -0.082456
     13 C                     0.212430
     14 O                    -0.211343
     15 O                    -0.177705
     16 O                    -0.165813
     17 O                    -0.200150
     18 C                    -0.130080
     19 C                     0.022816
     20 C                    -0.142122
     21 C                    -0.142264
     22 C                     0.024788
     23 O                    -0.182290
     24 H                     0.090824
     25 H                     0.090678
     26 H                     0.088774
     27 H                     0.082299
     28 H                     0.079166
     29 H                     0.082658
     30 H                     0.078309
     31 H                     0.096704
     32 O                    -0.207458
     33 C                    -0.128477
     34 C                     0.024663
     35 C                    -0.144067
     36 C                    -0.143834
     37 C                     0.025121
     38 O                    -0.189090
     39 H                     0.082357
     40 H                     0.085595
     41 H                     0.091746
     42 H                     0.088858
     43 H                     0.076930
     44 H                     0.072590
     45 H                     0.076780
     46 H                     0.072955
     47 H                     0.084786
     48 H                     0.085541
     49 H                     0.084814
     50 H                     0.094213
     51 H                     0.096220
     52 H                     0.095666
     53 H                     0.114129
     54 H                     0.073158
     55 H                     0.101882
     56 H                     0.081445
  ----------------------------------------
  Sum of atomic charges =     0.000000

                    Cartesian Multipole Moments
 -----------------------------------------------------------------
    Charge (ESU x 10^10)
                 0.0000
    Dipole Moment (Debye)
         X       1.6432      Y      -2.6722      Z      -1.4705
       Tot       3.4645
    Quadrupole Moments (Debye-Ang)
        XX    -149.2031     XY     -11.4197     YY    -155.2951
        XZ      12.0719     YZ       8.3243     ZZ    -165.0625

 Total job time:  96.64s(wall), 4602.84s(cpu)
        *  Thank you very much for using Q-Chem.  Have a nice day.  *
