 Q-Chem 5.0, Q-Chem, Inc., Pleasanton, CA (2017)
 Q-Chem 5.0.1 for Intel X86 EM64T Linux

User input:
--------------------------------------------------------------
$molecule
0  1
O -3.94934 -3.66094 2.70899
C -3.26408 -4.56952 2.26188
C -3.36658 -6.02376 2.66595
C -2.7598 -6.42075 4.0217
C -2.27636 -5.28922 4.90148
O -2.07618 -5.7437 6.1738
C -1.19265 -4.91409 6.93563
C -0.40305 -5.76022 7.92898
O 0.56882 -4.94484 8.60241
C 1.21806 -5.54221 9.63236
C 1.44271 -7.0188 9.40904
C 0.56215 -7.94379 10.26185
C -0.63174 -7.29001 10.9281
O -1.79509 -7.40778 10.57128
O -2.43416 -4.30224 1.21897
O -0.34837 -6.43757 11.94846
O 1.9053 -4.88155 10.39714
C -1.29461 -5.71276 12.64191
C 1.56161 -7.88648 8.12323
C 2.43205 -9.13341 8.35585
C 1.47878 -10.004 9.15353
C 0.26651 -9.0768 9.25501
O 0.27397 -8.45553 7.99785
H 2.47643 -7.09526 9.81792
H 1.11368 -8.38627 11.12298
H 1.97732 -7.32243 7.25962
H 2.62217 -9.63109 7.37836
H 3.40392 -8.91629 8.84881
H 1.19387 -10.88022 8.52832
H 1.86625 -10.36189 10.13169
H -0.64562 -9.65627 9.51494
O -2.05855 -4.13593 4.55175
C -2.24715 -3.04858 0.6753
C -4.82726 -6.46441 2.82962
C -4.93667 -7.98267 2.69854
C -4.32591 -8.41972 4.01142
C -4.02899 -7.05905 4.64967
O -5.08037 -6.24333 4.19261
H -2.87736 -6.61103 1.85544
H -1.93975 -7.17002 3.95471
H -1.84637 -2.35444 1.44473
H -5.51497 -5.96384 2.11276
H -6.01722 -8.25127 2.70299
H -4.45466 -8.39861 1.78763
H -5.11002 -8.94313 4.60341
H -3.42406 -9.06397 3.92907
H -3.96639 -7.18562 5.75188
H -3.20758 -2.65582 0.27822
H -1.51813 -3.11837 -0.15784
H -0.78848 -5.10257 13.41774
H -2.01394 -6.39871 13.13827
H -1.83788 -5.03351 11.95057
H -1.12816 -6.244 8.60067
H 0.06452 -6.38296 7.16985
H -1.78647 -4.15815 7.49385
H -0.44806 -4.37842 6.29635
$end

$opt
CONSTRAINT
tors           1           2           3           4     -76.134
tors           3           4           5           6    +165.147
tors           4           5           6           7    +158.888
tors           5           6           7           8    -147.966
tors           6           7           8           9    +174.658
tors           7           8           9          10    +171.902
tors           8           9          10          11     +33.763
tors           9          10          11          12    -107.299
tors          11          12          13          14    +104.921
ENDCONSTRAINT
$end

$rem
JOBTYPE                   OPT
METHOD                    B3LYP
DFT_D                     d3_op
BASIS                     STO-3G
GEOM_OPT_MAX_CYCLES       100
GEOM_OPT_TOL_GRADIENT     300
GEOM_OPT_TOL_DISPLACEMENT 1200
GEOM_OPT_TOL_ENERGY       100
SYMMETRY                  False
THRESH                    12
SCF_CONVERGENCE           8
MAX_SUB_FILE_NUM          128
MEM_STATIC                400
MEM_TOTAL                 4000
$end
--------------------------------------------------------------

   15   -1510.1048023084      8.62E-09 Convergence criterion met
 Total energy in the final basis set = -1510.10480231
   14   -1510.1794130168      2.85E-09 Convergence criterion met
 Total energy in the final basis set = -1510.17941302
   14   -1510.2202747524      2.78E-09 Convergence criterion met
 Total energy in the final basis set = -1510.22027475
   14   -1510.2438377568      3.08E-09 Convergence criterion met
 Total energy in the final basis set = -1510.24383776
   13   -1510.2535118697      9.06E-09 Convergence criterion met
 Total energy in the final basis set = -1510.25351187
   13   -1510.2576899899      4.71E-09 Convergence criterion met
 Total energy in the final basis set = -1510.25768999
   13   -1510.2594452789      3.00E-09 Convergence criterion met
 Total energy in the final basis set = -1510.25944528
   12   -1510.2597997008      7.77E-09 Convergence criterion met
   12   -1510.2601635661      3.42E-09 Convergence criterion met
 Total energy in the final basis set = -1510.26016357
   11   -1510.2601866280      9.14E-09 Convergence criterion met
 Total energy in the final basis set = -1510.26018663
   10   -1510.2601972600      7.49E-09 Convergence criterion met
 Total energy in the final basis set = -1510.26019726
    9   -1510.2602022640      7.41E-09 Convergence criterion met
 Total energy in the final basis set = -1510.26020226
    9   -1510.2602080913      5.58E-09 Convergence criterion met
 Total energy in the final basis set = -1510.26020809
    9   -1510.2602109606      5.50E-09 Convergence criterion met
 Total energy in the final basis set = -1510.26021096

             Standard Nuclear Orientation (Angstroms)
    I     Atom           X                Y                Z
 ----------------------------------------------------------------
    1      O      -5.2688687839     1.5173245222     1.1365201713
    2      C      -5.1882876934     0.9602107745     0.0213161131
    3      C      -4.7279165033    -0.5114803929    -0.2868254011
    4      C      -3.1602378293    -0.7235857290    -0.1978098368
    5      C      -2.3654009397     0.6068443120     0.0363953840
    6      O      -1.0329884425     0.2837689120     0.4441968311
    7      C      -0.1185180746     1.4257072157     0.1927547992
    8      C       1.2867495946     0.8223616023    -0.1435404415
    9      O       2.1285206260     1.9867160050    -0.5148725953
   10      C       3.5290426887     1.7136295025    -0.6956694258
   11      C       4.0908166723     0.3448649818    -1.2798983784
   12      C       4.7862661191    -0.5795787424    -0.1842222583
   13      C       4.3557766300    -0.2168928712     1.2818903683
   14      O       3.5676829739    -0.8515262838     2.0176397566
   15      O      -5.5674336869     1.5712941867    -1.2199009807
   16      O       5.0220640597     0.9866146413     1.6666123976
   17      O       4.3013543463     2.6859966063    -0.5355045940
   18      C       4.5818509186     1.4050768473     3.0179725746
   19      C       3.1995441930    -0.7161783942    -2.0514983632
   20      C       4.1655495529    -1.5521556633    -2.9840585429
   21      C       4.8977342854    -2.4632100961    -1.9302011464
   22      C       4.2041915791    -1.9972728432    -0.5911578393
   23      O       2.8125287392    -1.6918463760    -1.0058191911
   24      H       4.8801100500     0.6986103500    -1.9688266232
   25      H       5.8864080840    -0.5279713620    -0.2625191818
   26      H       2.3143703191    -0.3087549561    -2.5743966625
   27      H       3.5784559092    -2.1523729599    -3.6974861698
   28      H       4.8590892236    -0.9089835882    -3.5486221330
   29      H       4.7039205528    -3.5317770615    -2.1146267957
   30      H       5.9871575996    -2.2996993944    -1.9109742713
   31      H       4.1999694238    -2.7374317816     0.2323873630
   32      O      -2.7625976824     1.7686005762    -0.2053501931
   33      C      -5.9312086450     2.9869783211    -0.9883251252
   34      C      -5.2150830635    -1.4959518866     0.8610097743
   35      C      -5.0440952806    -2.9852298903     0.3617505037
   36      C      -3.4864658342    -3.1735021646     0.4892286865
   37      C      -3.0516432688    -1.7485779820     1.0120921883
   38      O      -4.1675256131    -1.3501562792     1.8984430156
   39      H      -5.1157872748    -0.7985990183    -1.2796651970
   40      H      -2.7673553036    -1.1732981227    -1.1289715023
   41      H      -5.0699195145     3.5612633763    -0.5898749602
   42      H      -6.2086345532    -1.2487744646     1.2820760834
   43      H      -5.5904016531    -3.6783011051     1.0210025617
   44      H      -5.4059681680    -3.1198267345    -0.6701173622
   45      H      -3.2329170000    -3.9472239953     1.2313142422
   46      H      -3.0054340777    -3.4303558801    -0.4678570027
   47      H      -2.0849237426    -1.7107343926     1.5506665470
   48      H      -6.7780442404     3.0820982472    -0.2781676990
   49      H      -6.2258579903     3.3940480063    -1.9730749931
   50      H       5.1420387539     2.3302882950     3.2460413168
   51      H       4.8095845863     0.6315378940     3.7794627212
   52      H       3.4931256812     1.6156456573     3.0418125058
   53      H       1.7029170606     0.2794782249     0.7329199276
   54      H       1.1699211745     0.0943125814    -0.9688981790
   55      H      -0.0536433177     2.0769812949     1.0918018178
   56      H      -0.4881135868     2.0460190967    -0.6514022098
 ----------------------------------------------------------------

    9   -1510.2602121145      4.17E-09 Convergence criterion met
 Total energy in the final basis set = -1510.26021211
 Final energy is   -1510.26021211447
 **  OPTIMIZATION CONVERGED  **

                    Orbital Energies (a.u.)
 --------------------------------------------------------------

 Alpha MOs
 -- Occupied --
-18.942 -18.937 -18.931 -18.920 -18.896 -18.885 -18.884 -18.881
-18.879 -18.858 -10.105 -10.105 -10.104 -10.087 -10.076 -10.074
-10.070 -10.067 -10.067 -10.057 -10.056 -10.052 -10.045 -10.043
-10.039 -10.031 -10.028 -10.027 -10.018 -10.017  -1.019  -1.017
 -1.006  -0.996  -0.979  -0.967  -0.944  -0.942  -0.936  -0.922
 -0.770  -0.761  -0.729  -0.724  -0.713  -0.712  -0.698  -0.667
 -0.653  -0.609  -0.603  -0.581  -0.557  -0.546  -0.543  -0.536
 -0.524  -0.510  -0.488  -0.475  -0.466  -0.456  -0.454  -0.450
 -0.443  -0.439  -0.430  -0.418  -0.413  -0.408  -0.406  -0.400
 -0.397  -0.380  -0.377  -0.372  -0.360  -0.356  -0.353  -0.350
 -0.346  -0.341  -0.339  -0.334  -0.328  -0.324  -0.319  -0.317
 -0.315  -0.309  -0.304  -0.301  -0.295  -0.287  -0.285  -0.277
 -0.271  -0.258  -0.254  -0.246  -0.243  -0.242  -0.231  -0.183
 -0.182  -0.174  -0.164  -0.162  -0.159  -0.155  -0.148  -0.142
 -0.138

          Ground-State Mulliken Net Atomic Charges

     Atom                 Charge (a.u.)
  ----------------------------------------
      1 O                    -0.215562
      2 C                     0.212757
      3 C                    -0.081235
      4 C                    -0.077425
      5 C                     0.215167
      6 O                    -0.174396
      7 C                    -0.045407
      8 C                    -0.050803
      9 O                    -0.174666
     10 C                     0.205191
     11 C                    -0.085673
     12 C                    -0.079488
     13 C                     0.203763
     14 O                    -0.213614
     15 O                    -0.172771
     16 O                    -0.164853
     17 O                    -0.193414
     18 C                    -0.127686
     19 C                     0.019785
     20 C                    -0.142459
     21 C                    -0.144321
     22 C                     0.024684
     23 O                    -0.192261
     24 H                     0.088390
     25 H                     0.089454
     26 H                     0.081695
     27 H                     0.078819
     28 H                     0.075534
     29 H                     0.079417
     30 H                     0.075264
     31 H                     0.089783
     32 O                    -0.206565
     33 C                    -0.128388
     34 C                     0.025912
     35 C                    -0.144620
     36 C                    -0.143514
     37 C                     0.024630
     38 O                    -0.186895
     39 H                     0.083995
     40 H                     0.085086
     41 H                     0.092832
     42 H                     0.084520
     43 H                     0.077723
     44 H                     0.072941
     45 H                     0.078323
     46 H                     0.072772
     47 H                     0.090690
     48 H                     0.086218
     49 H                     0.086315
     50 H                     0.095524
     51 H                     0.090072
     52 H                     0.089598
     53 H                     0.093270
     54 H                     0.089992
     55 H                     0.089914
     56 H                     0.095986
  ----------------------------------------
  Sum of atomic charges =    -0.000000

                    Cartesian Multipole Moments
 -----------------------------------------------------------------
    Charge (ESU x 10^10)
                 0.0000
    Dipole Moment (Debye)
         X       1.8027      Y      -2.8215      Z      -2.7185
       Tot       4.3129
    Quadrupole Moments (Debye-Ang)
        XX    -151.7638     XY      -4.2569     YY    -163.1392
        XZ       7.2620     YZ       4.2238     ZZ    -157.3296

 Total job time:  49.02s(wall), 2329.96s(cpu)
        *  Thank you very much for using Q-Chem.  Have a nice day.  *
