 Q-Chem 5.0, Q-Chem, Inc., Pleasanton, CA (2017)
 Q-Chem 5.0.1 for Intel X86 EM64T Linux

User input:
--------------------------------------------------------------
$molecule
0  1
O -4.8310858069 0.6674164508 1.7299027784
C -4.8865976198 0.8514494244 0.4970813247
C -3.837993102 0.4796467861 -0.6172842553
C -2.6109515605 -0.3709793653 -0.1066612936
C -2.1782450657 -0.2133132654 1.3956577639
O -1.4738714651 -1.4145740624 1.7932312634
C -0.2879073433 -1.0565727999 2.6037093637
C 0.9628835997 -0.9500093544 1.6540142892
O 2.022711288 -0.2573059877 2.4166123967
C 3.259801108 -0.214631778 1.6417553278
C 3.3920198506 0.9868533061 0.612665147
C 4.6679998417 0.8950163004 -0.3124392119
C 5.0090834943 -0.5490868207 -0.8495422957
O 5.9415454291 -0.8304444964 -1.6341477222
O -5.9896455991 1.4889589298 -0.1626484938
O 3.9467074151 -1.4577846246 -0.5398981202
O 4.2401538571 -0.8869295663 2.0228224479
C 4.1987561878 -2.7719561358 -1.1709843473
C 2.273302503 1.4191065668 -0.4435695702
C 2.3560830148 2.991965626 -0.547380486
C 3.7559142918 3.1586756596 -1.2480224542
C 4.1150073294 1.6590083363 -1.5942242762
O 2.7971089915 0.9930243255 -1.7611367192
H 3.5365672947 1.8519879293 1.2907495755
H 5.5655237115 1.3587087864 0.1328612246
H 1.2571427176 1.0183669289 -0.2839906617
H 1.5416851481 3.3727591249 -1.1847706668
H 2.3008208022 3.48803245 0.434670048
H 3.6852474326 3.7627262654 -2.1662038036
H 4.508732857 3.6138276162 -0.5845399044
H 4.7370364622 1.5197020014 -2.4998877424
O -2.1929748034 0.8324336693 2.0780799399
C -7.0333839659 1.8428131009 0.8258444825
C -4.5316432415 -0.5999862654 -1.55797777
C -3.5872123906 -0.9618875663 -2.7736014156
C -2.5734558636 -1.9588695678 -2.0971660299
C -3.0143803666 -1.8353749076 -0.5881828758
O -4.4917996279 -1.8028698208 -0.6892356625
H -3.5302927553 1.3929818172 -1.1571270233
H -1.7094182821 -0.0557123625 -0.6679287328
H -6.646380696 2.5371656533 1.5994674062
H -5.5750874358 -0.3458265054 -1.8275136374
H -4.1603756287 -1.445739476 -3.5800242649
H -3.0903596934 -0.0675248335 -3.1828938405
H -2.7251812462 -2.989750253 -2.455464379
H -1.5203936684 -1.6777279333 -2.2574357706
H -2.6769947407 -2.6461151932 0.0856459738
H -7.4374746379 0.9426720062 1.332788872
H -7.8400257329 2.3377586859 0.2542435316
H 3.3062822714 -3.3883219006 -0.9564637819
H 5.0976035953 -3.2624073397 -0.7444700907
H 4.3341698623 -2.677507111 -2.2676987587
H 1.2873793711 -1.9659209724 1.3356904161
H 0.6626671956 -0.3931374109 0.7407948155
H -0.1369722475 -1.8541485891 3.3583231129
H -0.4516367589 -0.0863428996 3.1208864018
$end

$rem
JOBTYPE                   OPT
METHOD                    B3LYP
DFT_D                     d3_op
BASIS                     STO-3G
GEOM_OPT_MAX_CYCLES       100
GEOM_OPT_TOL_GRADIENT     300
GEOM_OPT_TOL_DISPLACEMENT 1200
GEOM_OPT_TOL_ENERGY       100
SYMMETRY                  False
THRESH                    12
SCF_CONVERGENCE           8
MAX_SUB_FILE_NUM          128
MEM_STATIC                400
MEM_TOTAL                 4000
$end
--------------------------------------------------------------

   16   -1510.2338212990      3.30E-09 Convergence criterion met
 Total energy in the final basis set = -1510.23382130
   14   -1510.2391694246      7.64E-09 Convergence criterion met
 Total energy in the final basis set = -1510.23916942
   14   -1510.2439361318      8.33E-09 Convergence criterion met
 Total energy in the final basis set = -1510.24393613
   13   -1510.2481255990      9.81E-09 Convergence criterion met
 Total energy in the final basis set = -1510.24812560
   13   -1510.2519265675      9.38E-09 Convergence criterion met
 Total energy in the final basis set = -1510.25192657
   14   -1510.2551476855      7.91E-09 Convergence criterion met
 Total energy in the final basis set = -1510.25514769
   13   -1510.2576462935      9.64E-09 Convergence criterion met
 Total energy in the final basis set = -1510.25764629
   13   -1510.2595176865      8.37E-09 Convergence criterion met
   12   -1510.3041203129      4.31E-09 Convergence criterion met
 Total energy in the final basis set = -1510.30412031
   12   -1510.3041324887      5.55E-09 Convergence criterion met
 Total energy in the final basis set = -1510.30413249
   11   -1510.3041718620      7.10E-09 Convergence criterion met
 Total energy in the final basis set = -1510.30417186
   11   -1510.3041740136      8.65E-09 Convergence criterion met
 Total energy in the final basis set = -1510.30417401
   11   -1510.3041796606      4.78E-09 Convergence criterion met
 Total energy in the final basis set = -1510.30417966
   11   -1510.3041894288      3.89E-09 Convergence criterion met
 Total energy in the final basis set = -1510.30418943

             Standard Nuclear Orientation (Angstroms)
    I     Atom           X                Y                Z
 ----------------------------------------------------------------
    1      O      -3.5100886431     1.3476263539     0.8024971891
    2      C      -3.6594833293     0.7037518929    -0.2625600061
    3      C      -2.6244708097    -0.2739418601    -0.9056010424
    4      C      -1.2451987342    -0.2374877122    -0.1403108049
    5      C      -1.1051614635     0.9566004617     0.8698024955
    6      O      -1.1308323759     0.4778163201     2.2217336662
    7      C      -0.5909044302     1.5108031943     3.1325282709
    8      C       0.9714726913     1.3489090922     3.2645387046
    9      O       1.6615690562     1.7744096638     2.0205324205
   10      C       1.9205229627     0.6595414907     1.1637481565
   11      C       2.5415382985     1.1951119664    -0.1702445990
   12      C       3.2441796005     0.0582677921    -1.0221393122
   13      C       3.3225369408    -1.3355048167    -0.2954570084
   14      O       4.1872803215    -1.6708012062     0.5435840172
   15      O      -4.8418982569     0.7396348168    -1.0613755479
   16      O       2.3372078211    -2.2343587543    -0.8267934461
   17      O       1.6792698461    -0.5355321186     1.4524334775
   18      C       2.4505177232    -3.5419832037    -0.1405631069
   19      C       1.4099393348     1.6834410275    -1.1812175610
   20      C       2.0991668790     2.4991688874    -2.3394693569
   21      C       2.7628888984     1.3444390270    -3.1822473549
   22      C       2.3588768363     0.0732759671    -2.3376158520
   23      O       1.0034116445     0.4251665939    -1.8515620456
   24      H       3.2351194212     2.0195340325     0.0718546694
   25      H       4.2852017381     0.3520470783    -1.2474323831
   26      H       0.5232066390     2.1401743234    -0.6740501560
   27      H       1.3445779516     3.0457191249    -2.9273450203
   28      H       2.8361153491     3.2214410961    -1.9536450609
   29      H       2.3321591609     1.2856844126    -4.1946166302
   30      H       3.8556584146     1.4541015888    -3.2688632903
   31      H       2.3378233313    -0.8849400526    -2.8908715982
   32      O      -0.8158134611     2.1423464127     0.5655600378
   33      C      -5.8490704534     1.6319065923    -0.4401949671
   34      C      -3.0597783653    -1.7816170486    -0.6491418014
   35      C      -2.0990558088    -2.7203731232    -1.4840698889
   36      C      -0.8033786256    -2.7026975179    -0.5930019227
   37      C      -1.2241161370    -1.6753766671     0.5263522358
   38      O      -2.6539897313    -1.9981050881     0.7575586870
   39      H      -2.5253567400    -0.0513099146    -1.9831678832
   40      H      -0.3969933349    -0.1309712965    -0.8589120569
   41      H      -5.4576959179     2.6616920983    -0.3130279233
   42      H      -4.1430543732    -1.9709524967    -0.7813536445
   43      H      -2.5230874200    -3.7335961129    -1.5679781319
   44      H      -1.9239324060    -2.3253046306    -2.4974728565
   45      H      -0.6160882958    -3.6925745791    -0.1478968752
   46      H       0.1051917066    -2.3718596698    -1.1234803027
   47      H      -0.6441551242    -1.7282279339     1.4670184586
   48      H      -6.1723799005     1.2525467151     0.5508343214
   49      H      -6.7120430008     1.6444753585    -1.1310420051
   50      H       1.8433134056    -4.2556855096    -0.7260739361
   51      H       2.0554654168    -3.4802802672     0.8940425900
   52      H       3.5031213292    -3.8867018298    -0.0970917931
   53      H       1.3481425875     2.0080520508     4.0734450514
   54      H       1.2180218976     0.2887734094     3.4877698370
   55      H      -1.0642752990     1.3482191875     4.1218544040
   56      H      -0.8310122366     2.5258034823     2.7503274985
 ----------------------------------------------------------------

    9   -1510.3041890219      6.88E-09 Convergence criterion met
 Total energy in the final basis set = -1510.30418902
 Final energy is   -1510.30418902187
 **  OPTIMIZATION CONVERGED  **

                    Orbital Energies (a.u.)
 --------------------------------------------------------------

 Alpha MOs
 -- Occupied --
-18.939 -18.939 -18.927 -18.924 -18.896 -18.882 -18.880 -18.872
-18.861 -18.857 -10.104 -10.099 -10.093 -10.091 -10.071 -10.066
-10.065 -10.062 -10.056 -10.050 -10.047 -10.039 -10.037 -10.035
-10.029 -10.021 -10.018 -10.008 -10.008 -10.000  -1.019  -1.014
 -1.002  -0.998  -0.974  -0.957  -0.942  -0.938  -0.926  -0.925
 -0.763  -0.750  -0.724  -0.714  -0.709  -0.701  -0.688  -0.661
 -0.654  -0.614  -0.591  -0.574  -0.545  -0.538  -0.534  -0.523
 -0.511  -0.503  -0.487  -0.472  -0.464  -0.455  -0.444  -0.441
 -0.432  -0.427  -0.421  -0.413  -0.410  -0.404  -0.402  -0.399
 -0.392  -0.377  -0.370  -0.367  -0.358  -0.356  -0.353  -0.345
 -0.341  -0.336  -0.334  -0.327  -0.324  -0.319  -0.314  -0.308
 -0.303  -0.301  -0.299  -0.291  -0.289  -0.280  -0.276  -0.274
 -0.264  -0.255  -0.252  -0.245  -0.236  -0.234  -0.217  -0.190
 -0.180  -0.168  -0.163  -0.154  -0.153  -0.151  -0.142  -0.142
 -0.131

          Ground-State Mulliken Net Atomic Charges

     Atom                 Charge (a.u.)
  ----------------------------------------
      1 O                    -0.206337
      2 C                     0.214676
      3 C                    -0.078599
      4 C                    -0.099925
      5 C                     0.217279
      6 O                    -0.168466
      7 C                    -0.051736
      8 C                    -0.053917
      9 O                    -0.168392
     10 C                     0.210899
     11 C                    -0.079799
     12 C                    -0.082058
     13 C                     0.213495
     14 O                    -0.220963
     15 O                    -0.167984
     16 O                    -0.171637
     17 O                    -0.211335
     18 C                    -0.127917
     19 C                     0.010150
     20 C                    -0.144277
     21 C                    -0.143478
     22 C                     0.026488
     23 O                    -0.194712
     24 H                     0.088143
     25 H                     0.084293
     26 H                     0.113281
     27 H                     0.078824
     28 H                     0.074416
     29 H                     0.077282
     30 H                     0.073612
     31 H                     0.089145
     32 O                    -0.233825
     33 C                    -0.128128
     34 C                     0.024518
     35 C                    -0.144743
     36 C                    -0.147693
     37 C                     0.023303
     38 O                    -0.194680
     39 H                     0.086610
     40 H                     0.114325
     41 H                     0.091265
     42 H                     0.080740
     43 H                     0.073655
     44 H                     0.072488
     45 H                     0.069809
     46 H                     0.087560
     47 H                     0.092447
     48 H                     0.090439
     49 H                     0.091290
     50 H                     0.087668
     51 H                     0.091524
     52 H                     0.090268
     53 H                     0.089361
     54 H                     0.099180
     55 H                     0.090131
     56 H                     0.102039
  ----------------------------------------
  Sum of atomic charges =    -0.000000

                    Cartesian Multipole Moments
 -----------------------------------------------------------------
    Charge (ESU x 10^10)
                 0.0000
    Dipole Moment (Debye)
         X       0.0992      Y       0.8485      Z      -1.5039
       Tot       1.7296
    Quadrupole Moments (Debye-Ang)
        XX    -153.8363     XY       0.1094     YY    -156.7474
        XZ      -1.7262     YZ       4.0358     ZZ    -151.6686

 Total job time:  189.52s(wall), 9035.83s(cpu)
        *  Thank you very much for using Q-Chem.  Have a nice day.  *
