 Q-Chem 5.0, Q-Chem, Inc., Pleasanton, CA (2017)
 Q-Chem 5.0.1 for Intel X86 EM64T Linux

User input:
--------------------------------------------------------------
$molecule
0  1
O -3.94934 -3.66094 2.70899
C -3.26408 -4.56952 2.26188
C -3.36658 -6.02376 2.66595
C -4.51896 -6.41205 3.60675
C -5.54409 -5.33815 3.89646
O -6.72561 -5.913 4.26924
C -7.35297 -5.24738 5.37044
C -6.94973 -5.90968 6.68379
O -7.29128 -5.05625 7.78736
C -7.0707 -5.57927 9.019
C -5.65152 -5.38236 9.4963
C -5.30718 -6.09259 10.8136
C -6.28488 -7.15915 11.26444
O -6.15695 -7.86515 12.25427
O -2.28962 -4.26909 1.36306
O -7.21577 -7.64411 10.39533
O -7.96575 -5.37304 9.82875
C -8.08887 -8.68708 10.63887
C -4.37002 -5.76329 8.69782
C -3.15198 -4.97823 9.22094
C -2.85408 -5.71092 10.50278
C -3.96237 -6.75218 10.47529
O -4.09024 -7.07602 9.10986
H -5.59074 -4.2794 9.64135
H -5.24384 -5.37748 11.66415
H -4.33975 -5.53956 7.62757
H -2.2904 -5.13539 8.53171
H -3.33274 -3.88667 9.32727
H -1.87572 -6.23212 10.39858
H -2.85185 -5.08525 11.42154
H -3.7066 -7.59535 11.15462
O -5.14596 -4.3569 4.51884
C -2.03476 -2.99983 0.88768
C -3.66423 -6.91585 1.4455
C -3.20351 -8.34438 1.72201
C -4.24702 -8.78228 2.72316
C -5.14819 -7.54187 2.74547
O -5.06242 -7.03506 1.43859
H -2.37489 -6.29481 3.09282
H -4.17248 -6.81321 4.58578
H -1.75697 -2.3255 1.72582
H -3.2036 -6.54825 0.5024
H -3.34596 -8.92653 0.78326
H -2.14915 -8.44199 2.05929
H -4.79628 -9.6513 2.29649
H -3.86189 -9.03724 3.73414
H -6.16254 -7.85358 3.07268
H -2.92999 -2.60052 0.36468
H -1.19083 -3.04321 0.16909
H -8.72781 -8.84092 9.74533
H -8.73915 -8.44511 11.50651
H -7.5244 -9.62275 10.83891
H -7.46524 -6.89324 6.75921
H -5.89427 -6.13071 6.61512
H -8.45647 -5.31099 5.26265
H -7.16801 -4.14959 5.40385
$end

$opt
CONSTRAINT
tors           1           2           3           4      +6.595
tors           3           4           5           6    +156.193
tors           4           5           6           7    +137.823
tors           5           6           7           8     -93.555
tors           6           7           8           9    +165.418
tors           7           8           9          10    +175.356
tors           8           9          10          11     +85.124
tors           9          10          11          12    -173.417
tors          11          12          13          14    +177.066
ENDCONSTRAINT
$end

$rem
JOBTYPE                   OPT
METHOD                    B3LYP
DFT_D                     d3_op
BASIS                     STO-3G
GEOM_OPT_MAX_CYCLES       100
GEOM_OPT_TOL_GRADIENT     300
GEOM_OPT_TOL_DISPLACEMENT 1200
GEOM_OPT_TOL_ENERGY       100
SYMMETRY                  False
THRESH                    12
SCF_CONVERGENCE           8
MAX_SUB_FILE_NUM          128
MEM_STATIC                400
MEM_TOTAL                 4000
$end
--------------------------------------------------------------

   16   -1510.0488729332      3.59E-09 Convergence criterion met
 Total energy in the final basis set = -1510.04887293
   13   -1510.1286705983      9.78E-09 Convergence criterion met
 Total energy in the final basis set = -1510.12867060
   15   -1510.1728749658      1.91E-09 Convergence criterion met
 Total energy in the final basis set = -1510.17287497
   14   -1510.1998569123      8.88E-09 Convergence criterion met
 Total energy in the final basis set = -1510.19985691
   13   -1510.2133458206      8.15E-09 Convergence criterion met
 Total energy in the final basis set = -1510.21334582
   13   -1510.2206750735      8.30E-09 Convergence criterion met
 Total energy in the final basis set = -1510.22067507
   13   -1510.2250537204      7.07E-09 Convergence criterion met
 Total energy in the final basis set = -1510.22505372
   13   -1510.2274970616      5.97E-09 Convergence criterion met
   11   -1510.2338560918      3.56E-09 Convergence criterion met
 Total energy in the final basis set = -1510.23385609
   10   -1510.2338746291      9.27E-09 Convergence criterion met
 Total energy in the final basis set = -1510.23387463
   10   -1510.2338793944      6.58E-09 Convergence criterion met
 Total energy in the final basis set = -1510.23387939
   11   -1510.2338804817      2.51E-09 Convergence criterion met
 Total energy in the final basis set = -1510.23388048
    9   -1510.2338815911      9.31E-09 Convergence criterion met
 Total energy in the final basis set = -1510.23388159
    9   -1510.2338827093      4.23E-09 Convergence criterion met
 Total energy in the final basis set = -1510.23388271

             Standard Nuclear Orientation (Angstroms)
    I     Atom           X                Y                Z
 ----------------------------------------------------------------
    1      O      -4.8310858069     0.6674164508     1.7299027784
    2      C      -4.8865976198     0.8514494244     0.4970813247
    3      C      -3.8379931020     0.4796467861    -0.6172842553
    4      C      -2.6109515605    -0.3709793653    -0.1066612936
    5      C      -2.1782450657    -0.2133132654     1.3956577639
    6      O      -1.4738714651    -1.4145740624     1.7932312634
    7      C      -0.2879073433    -1.0565727999     2.6037093637
    8      C       0.9628835997    -0.9500093544     1.6540142892
    9      O       2.0227112880    -0.2573059877     2.4166123967
   10      C       3.2598011080    -0.2146317780     1.6417553278
   11      C       3.3920198506     0.9868533061     0.6126651470
   12      C       4.6679998417     0.8950163004    -0.3124392119
   13      C       5.0090834943    -0.5490868207    -0.8495422957
   14      O       5.9415454291    -0.8304444964    -1.6341477222
   15      O      -5.9896455991     1.4889589298    -0.1626484938
   16      O       3.9467074151    -1.4577846246    -0.5398981202
   17      O       4.2401538571    -0.8869295663     2.0228224479
   18      C       4.1987561878    -2.7719561358    -1.1709843473
   19      C       2.2733025030     1.4191065668    -0.4435695702
   20      C       2.3560830148     2.9919656260    -0.5473804860
   21      C       3.7559142918     3.1586756596    -1.2480224542
   22      C       4.1150073294     1.6590083363    -1.5942242762
   23      O       2.7971089915     0.9930243255    -1.7611367192
   24      H       3.5365672947     1.8519879293     1.2907495755
   25      H       5.5655237115     1.3587087864     0.1328612246
   26      H       1.2571427176     1.0183669289    -0.2839906617
   27      H       1.5416851481     3.3727591249    -1.1847706668
   28      H       2.3008208022     3.4880324500     0.4346700480
   29      H       3.6852474326     3.7627262654    -2.1662038036
   30      H       4.5087328570     3.6138276162    -0.5845399044
   31      H       4.7370364622     1.5197020014    -2.4998877424
   32      O      -2.1929748034     0.8324336693     2.0780799399
   33      C      -7.0333839659     1.8428131009     0.8258444825
   34      C      -4.5316432415    -0.5999862654    -1.5579777700
   35      C      -3.5872123906    -0.9618875663    -2.7736014156
   36      C      -2.5734558636    -1.9588695678    -2.0971660299
   37      C      -3.0143803666    -1.8353749076    -0.5881828758
   38      O      -4.4917996279    -1.8028698208    -0.6892356625
   39      H      -3.5302927553     1.3929818172    -1.1571270233
   40      H      -1.7094182821    -0.0557123625    -0.6679287328
   41      H      -6.6463806960     2.5371656533     1.5994674062
   42      H      -5.5750874358    -0.3458265054    -1.8275136374
   43      H      -4.1603756287    -1.4457394760    -3.5800242649
   44      H      -3.0903596934    -0.0675248335    -3.1828938405
   45      H      -2.7251812462    -2.9897502530    -2.4554643790
   46      H      -1.5203936684    -1.6777279333    -2.2574357706
   47      H      -2.6769947407    -2.6461151932     0.0856459738
   48      H      -7.4374746379     0.9426720062     1.3327888720
   49      H      -7.8400257329     2.3377586859     0.2542435316
   50      H       3.3062822714    -3.3883219006    -0.9564637819
   51      H       5.0976035953    -3.2624073397    -0.7444700907
   52      H       4.3341698623    -2.6775071110    -2.2676987587
   53      H       1.2873793711    -1.9659209724     1.3356904161
   54      H       0.6626671956    -0.3931374109     0.7407948155
   55      H      -0.1369722475    -1.8541485891     3.3583231129
   56      H      -0.4516367589    -0.0863428996     3.1208864018
 ----------------------------------------------------------------

    9   -1510.2338831376      2.96E-09 Convergence criterion met
 Total energy in the final basis set = -1510.23388314
 Final energy is   -1510.23388313758
 **  OPTIMIZATION CONVERGED  **

                    Orbital Energies (a.u.)
 --------------------------------------------------------------

 Alpha MOs
 -- Occupied --
-18.936 -18.931 -18.922 -18.907 -18.900 -18.894 -18.888 -18.886
-18.877 -18.872 -10.111 -10.104 -10.100 -10.098 -10.074 -10.070
-10.069 -10.066 -10.065 -10.063 -10.061 -10.060 -10.043 -10.041
-10.040 -10.040 -10.027 -10.026 -10.023 -10.021  -1.015  -1.012
 -1.008  -1.004  -0.978  -0.972  -0.942  -0.937  -0.934  -0.932
 -0.768  -0.765  -0.729  -0.725  -0.715  -0.708  -0.697  -0.663
 -0.661  -0.614  -0.603  -0.583  -0.552  -0.546  -0.543  -0.539
 -0.522  -0.512  -0.489  -0.478  -0.469  -0.456  -0.452  -0.444
 -0.442  -0.439  -0.434  -0.416  -0.412  -0.412  -0.407  -0.401
 -0.398  -0.383  -0.375  -0.371  -0.369  -0.361  -0.354  -0.346
 -0.342  -0.341  -0.340  -0.333  -0.331  -0.326  -0.323  -0.319
 -0.313  -0.312  -0.310  -0.304  -0.299  -0.295  -0.285  -0.278
 -0.276  -0.260  -0.255  -0.245  -0.242  -0.236  -0.235  -0.177
 -0.176  -0.174  -0.165  -0.164  -0.159  -0.153  -0.148  -0.146
 -0.144

          Ground-State Mulliken Net Atomic Charges

     Atom                 Charge (a.u.)
  ----------------------------------------
      1 O                    -0.204280
      2 C                     0.213205
      3 C                    -0.076976
      4 C                    -0.079069
      5 C                     0.216080
      6 O                    -0.183791
      7 C                    -0.050649
      8 C                    -0.045714
      9 O                    -0.193199
     10 C                     0.225676
     11 C                    -0.084036
     12 C                    -0.076019
     13 C                     0.214151
     14 O                    -0.216315
     15 O                    -0.174637
     16 O                    -0.169959
     17 O                    -0.180335
     18 C                    -0.126582
     19 C                     0.024541
     20 C                    -0.141135
     21 C                    -0.145791
     22 C                     0.023226
     23 O                    -0.192723
     24 H                     0.084694
     25 H                     0.088487
     26 H                     0.078876
     27 H                     0.077874
     28 H                     0.076011
     29 H                     0.079683
     30 H                     0.075806
     31 H                     0.087393
     32 O                    -0.197337
     33 C                    -0.128558
     34 C                     0.023736
     35 C                    -0.145727
     36 C                    -0.142199
     37 C                     0.023502
     38 O                    -0.191924
     39 H                     0.086270
     40 H                     0.080340
     41 H                     0.089980
     42 H                     0.088151
     43 H                     0.078683
     44 H                     0.073493
     45 H                     0.078347
     46 H                     0.072836
     47 H                     0.092789
     48 H                     0.089560
     49 H                     0.089336
     50 H                     0.088856
     51 H                     0.090764
     52 H                     0.091537
     53 H                     0.081580
     54 H                     0.070007
     55 H                     0.090808
     56 H                     0.100679
  ----------------------------------------
  Sum of atomic charges =    -0.000000

                    Cartesian Multipole Moments
 -----------------------------------------------------------------
    Charge (ESU x 10^10)
                -0.0000
    Dipole Moment (Debye)
         X      -0.6169      Y       1.6017      Z      -2.4495
       Tot       2.9910
    Quadrupole Moments (Debye-Ang)
        XX    -168.5057     XY       1.2955     YY    -152.1677
        XZ       5.8194     YZ       0.9983     ZZ    -167.5979

 Total job time:  76.43s(wall), 3641.99s(cpu)
        *  Thank you very much for using Q-Chem.  Have a nice day.  *
