 Q-Chem 5.0, Q-Chem, Inc., Pleasanton, CA (2017)
 Q-Chem 5.0.1 for Intel X86 EM64T Linux

User input:
--------------------------------------------------------------
$molecule
0  1
O -3.94934 -3.66094 2.70899
C -3.26408 -4.56952 2.26188
C -3.36658 -6.02376 2.66595
C -2.45248 -6.50241 3.80576
C -1.66632 -5.43447 4.53346
O -1.05902 -5.97285 5.63199
C 0.05443 -5.20126 6.09472
C 1.33081 -6.03422 6.03842
O 2.27963 -5.41666 5.15453
C 3.49607 -6.01331 5.09594
C 3.7103 -6.78832 3.81761
C 5.02354 -7.58183 3.75405
C 5.74265 -7.77624 5.07382
O 5.20341 -7.98821 6.15032
O -2.23837 -4.26461 1.42397
O 7.0868 -7.57822 5.04783
O 4.43106 -5.44429 5.64008
C 7.90622 -7.66064 6.15413
C 2.68817 -7.9049 3.52248
C 2.68765 -8.23035 2.02695
C 4.00495 -8.96005 1.89368
C 4.46384 -8.96161 3.35299
O 3.26517 -9.05346 4.08584
H 3.66015 -6.03525 2.99878
H 5.75089 -7.20945 2.99813
H 1.65017 -7.6684 3.81867
H 1.8633 -8.95523 1.8382
H 2.56125 -7.35072 1.35958
H 3.79789 -10.00216 1.56221
H 4.74717 -8.48636 1.21537
H 5.19859 -9.78084 3.52078
O -1.57492 -4.25655 4.21286
C -1.949 -2.99102 0.98097
C -4.74953 -6.32654 3.28837
C -5.06178 -7.81821 3.17963
C -4.10801 -8.37761 4.21002
C -3.51453 -7.08012 4.76807
O -4.56318 -6.15185 4.66886
H -3.2873 -6.62736 1.73401
H -1.72458 -7.27647 3.47549
H -1.71387 -2.32983 1.84229
H -5.5755 -5.73908 2.82964
H -6.1034 -7.96426 3.54601
H -4.96846 -8.24966 2.15984
H -4.70341 -8.90008 4.99176
H -3.3222 -9.05656 3.81365
H -3.12922 -7.26275 5.79451
H -2.81099 -2.57822 0.41446
H -1.06639 -3.03106 0.31027
H 8.95265 -7.45656 5.84785
H 7.854 -8.67976 6.59355
H 7.6022 -6.90802 6.91279
H 1.78063 -6.013 7.05776
H 1.12387 -7.10125 5.82132
H -0.16554 -4.97732 7.16131
H 0.22602 -4.20352 5.63093
$end

$opt
CONSTRAINT
tors           1           2           3           4     -92.291
tors           3           4           5           6    +171.165
tors           4           5           6           7    +158.888
tors           5           6           7           8    -119.282
tors           6           7           8           9    +119.100
tors           7           8           9          10    +175.356
tors           8           9          10          11    +105.804
tors           9          10          11          12    -174.973
tors          11          12          13          14     +38.121
ENDCONSTRAINT
$end

$rem
JOBTYPE                   OPT
METHOD                    B3LYP
DFT_D                     d3_op
BASIS                     STO-3G
GEOM_OPT_MAX_CYCLES       100
GEOM_OPT_TOL_GRADIENT     300
GEOM_OPT_TOL_DISPLACEMENT 1200
GEOM_OPT_TOL_ENERGY       100
SYMMETRY                  False
THRESH                    12
SCF_CONVERGENCE           8
MAX_SUB_FILE_NUM          128
MEM_STATIC                400
MEM_TOTAL                 4000
$end
--------------------------------------------------------------

   16   -1510.1157517225      2.14E-09 Convergence criterion met
 Total energy in the final basis set = -1510.11575172
   13   -1510.1873325859      6.78E-09 Convergence criterion met
 Total energy in the final basis set = -1510.18733259
   14   -1510.2257638756      2.73E-09 Convergence criterion met
 Total energy in the final basis set = -1510.22576388
   13   -1510.2433275903      8.90E-09 Convergence criterion met
 Total energy in the final basis set = -1510.24332759
   13   -1510.2503831870      5.68E-09 Convergence criterion met
 Total energy in the final basis set = -1510.25038319
   13   -1510.2536888333      3.49E-09 Convergence criterion met
 Total energy in the final basis set = -1510.25368883
   13   -1510.2552922501      2.34E-09 Convergence criterion met
 Total energy in the final basis set = -1510.25529225
   12   -1510.2557665624      8.78E-09 Convergence criterion met
   11   -1510.2561915249      8.27E-09 Convergence criterion met
 Total energy in the final basis set = -1510.25619152
   11   -1510.2562057095      4.59E-09 Convergence criterion met
 Total energy in the final basis set = -1510.25620571
    9   -1510.2562135891      9.33E-09 Convergence criterion met
 Total energy in the final basis set = -1510.25621359
   10   -1510.2562216355      8.32E-09 Convergence criterion met
 Total energy in the final basis set = -1510.25622164
    9   -1510.2562268777      6.58E-09 Convergence criterion met
 Total energy in the final basis set = -1510.25622688
    9   -1510.2562295989      7.94E-09 Convergence criterion met
 Total energy in the final basis set = -1510.25622960

             Standard Nuclear Orientation (Angstroms)
    I     Atom           X                Y                Z
 ----------------------------------------------------------------
    1      O       5.4404982985    -1.6507319690    -0.8214991603
    2      C       4.6113840446    -0.8056995494    -1.2200434242
    3      C       4.2819509715     0.5905027611    -0.5748503359
    4      C       3.0874297823     0.5633922525     0.4646023983
    5      C       2.4674761906    -0.8610428815     0.6597841611
    6      O       1.5477657851    -0.8190347373     1.7567818017
    7      C       0.5847918245    -1.9447988364     1.6722246910
    8      C      -0.8757695457    -1.3695330404     1.5519839147
    9      O      -1.4195763573    -1.8504291123     0.2625716155
   10      C      -2.8172289900    -1.4361467984     0.1494288369
   11      C      -3.0086922862    -0.2477257443    -0.8681411632
   12      C      -4.4746927914     0.3365843632    -0.9504796390
   13      C      -5.3435808950     0.1003481856     0.3372368876
   14      O      -4.9810715244     0.1430800674     1.5316957296
   15      O       3.8576683800    -0.9143437665    -2.4370217137
   16      O      -6.6927787744    -0.1353534527    -0.0861360700
   17      O      -3.7367563761    -2.0833573851     0.6897840896
   18      C      -7.5661895652    -0.3246177170     1.0949240552
   19      C      -2.1503630218     1.0757224633    -0.6445458073
   20      C      -1.9493996057     1.7399605331    -2.0629607965
   21      C      -3.4106818901     2.2434082493    -2.3608647645
   22      C      -4.1421169488     1.8930889970    -1.0043182135
   23      O      -3.0803948260     2.0121582876     0.0245246342
   24      H      -2.7335180666    -0.6728580356    -1.8529615797
   25      H      -5.0283005970    -0.0184864505    -1.8364718106
   26      H      -1.2237444432     0.9499175741    -0.0550831980
   27      H      -1.2428140913     2.5824707380    -1.9909469134
   28      H      -1.5764585632     1.0266186221    -2.8152169858
   29      H      -3.4380155505     3.3285587867    -2.5473419599
   30      H      -3.8710944115     1.7263290139    -3.2181658001
   31      H      -4.9986235527     2.5481697547    -0.7518107945
   32      O       2.6567370619    -1.8699473526    -0.0568373195
   33      C       4.0644842559    -2.2526373703    -3.0330916304
   34      C       5.4689595648     1.0891329585     0.3540203014
   35      C       5.2847770143     2.6366262193     0.6072042073
   36      C       4.0794082937     2.6357093162     1.6197065649
   37      C       3.8126318881     1.0865496312     1.7772189770
   38      O       5.1603344851     0.4844062512     1.6710289094
   39      H       4.0687537396     1.3035815359    -1.3904395260
   40      H       2.2676978671     1.2404773138     0.1602468792
   41      H       3.6870295383    -3.0509347989    -2.3615586736
   42      H       6.4748002985     0.7748460825     0.0145080013
   43      H       6.1927682125     3.0646304978     1.0609602903
   44      H       5.0607101659     3.1847697152    -0.3218576332
   45      H       4.3637093927     3.0764254091     2.5884164111
   46      H       3.1972232091     3.1712940405     1.2340264002
   47      H       3.3157406580     0.7812264422     2.7185721691
   48      H       5.1356725984    -2.4470159810    -3.2462233153
   49      H       3.4909390910    -2.2614778747    -3.9782464855
   50      H      -8.5818552622    -0.5066356493     0.6980741289
   51      H      -7.5775275107     0.5747385197     1.7441969305
   52      H      -7.2437706449    -1.1934427062     1.7042981606
   53      H      -1.4998618351    -1.7178343468     2.4057235915
   54      H      -0.8288696281    -0.2575578799     1.5983219775
   55      H       0.6873165956    -2.5585499287     2.5912045374
   56      H       0.8268097172    -2.5752114518     0.7886638098
 ----------------------------------------------------------------

    9   -1510.2562306500      6.38E-09 Convergence criterion met
 Total energy in the final basis set = -1510.25623065
 Final energy is   -1510.25623064999
 **  OPTIMIZATION CONVERGED  **

                    Orbital Energies (a.u.)
 --------------------------------------------------------------

 Alpha MOs
 -- Occupied --
-18.938 -18.931 -18.919 -18.909 -18.904 -18.895 -18.890 -18.887
-18.870 -18.859 -10.113 -10.109 -10.096 -10.089 -10.075 -10.073
-10.068 -10.066 -10.061 -10.061 -10.057 -10.053 -10.042 -10.042
-10.040 -10.033 -10.026 -10.025 -10.021 -10.019  -1.020  -1.013
 -1.005  -0.996  -0.977  -0.970  -0.947  -0.939  -0.931  -0.923
 -0.767  -0.763  -0.728  -0.725  -0.715  -0.709  -0.697  -0.662
 -0.653  -0.614  -0.600  -0.580  -0.551  -0.545  -0.543  -0.537
 -0.523  -0.511  -0.483  -0.471  -0.466  -0.456  -0.454  -0.451
 -0.440  -0.433  -0.430  -0.412  -0.410  -0.409  -0.403  -0.401
 -0.397  -0.385  -0.375  -0.367  -0.363  -0.359  -0.352  -0.348
 -0.344  -0.341  -0.337  -0.333  -0.330  -0.329  -0.326  -0.319
 -0.314  -0.312  -0.308  -0.303  -0.299  -0.286  -0.278  -0.276
 -0.273  -0.255  -0.253  -0.249  -0.243  -0.239  -0.234  -0.184
 -0.175  -0.165  -0.164  -0.163  -0.160  -0.151  -0.146  -0.144
 -0.140

          Ground-State Mulliken Net Atomic Charges

     Atom                 Charge (a.u.)
  ----------------------------------------
      1 O                    -0.216195
      2 C                     0.214360
      3 C                    -0.081842
      4 C                    -0.077082
      5 C                     0.216845
      6 O                    -0.176274
      7 C                    -0.053393
      8 C                    -0.047915
      9 O                    -0.198117
     10 C                     0.222547
     11 C                    -0.082307
     12 C                    -0.079803
     13 C                     0.212701
     14 O                    -0.212041
     15 O                    -0.175036
     16 O                    -0.171660
     17 O                    -0.175375
     18 C                    -0.128791
     19 C                     0.024850
     20 C                    -0.141930
     21 C                    -0.145094
     22 C                     0.025324
     23 O                    -0.188034
     24 H                     0.087088
     25 H                     0.087827
     26 H                     0.081910
     27 H                     0.077506
     28 H                     0.075403
     29 H                     0.078999
     30 H                     0.075291
     31 H                     0.083427
     32 O                    -0.203832
     33 C                    -0.128328
     34 C                     0.025583
     35 C                    -0.144085
     36 C                    -0.143908
     37 C                     0.024660
     38 O                    -0.187873
     39 H                     0.083377
     40 H                     0.084943
     41 H                     0.092798
     42 H                     0.087384
     43 H                     0.078160
     44 H                     0.072961
     45 H                     0.078562
     46 H                     0.072765
     47 H                     0.088504
     48 H                     0.086376
     49 H                     0.085340
     50 H                     0.089121
     51 H                     0.087405
     52 H                     0.091853
     53 H                     0.085846
     54 H                     0.081931
     55 H                     0.088842
     56 H                     0.108429
  ----------------------------------------
  Sum of atomic charges =    -0.000000

                    Cartesian Multipole Moments
 -----------------------------------------------------------------
    Charge (ESU x 10^10)
                 0.0000
    Dipole Moment (Debye)
         X      -1.9924      Y       2.6379      Z      -2.1750
       Tot       3.9571
    Quadrupole Moments (Debye-Ang)
        XX    -165.3880     XY       7.4839     YY    -160.2891
        XZ       0.0966     YZ      -1.1540     ZZ    -155.5253

 Total job time:  50.95s(wall), 2424.37s(cpu)
        *  Thank you very much for using Q-Chem.  Have a nice day.  *
