 Q-Chem 5.0, Q-Chem, Inc., Pleasanton, CA (2017)
 Q-Chem 5.0.1 for Intel X86 EM64T Linux

User input:
--------------------------------------------------------------
$molecule
0  1
O 5.4404982985 -1.650731969 -0.8214991603
C 4.6113840446 -0.8056995494 -1.2200434242
C 4.2819509715 0.5905027611 -0.5748503359
C 3.0874297823 0.5633922525 0.4646023983
C 2.4674761906 -0.8610428815 0.6597841611
O 1.5477657851 -0.8190347373 1.7567818017
C 0.5847918245 -1.9447988364 1.672224691
C -0.8757695457 -1.3695330404 1.5519839147
O -1.4195763573 -1.8504291123 0.2625716155
C -2.81722899 -1.4361467984 0.1494288369
C -3.0086922862 -0.2477257443 -0.8681411632
C -4.4746927914 0.3365843632 -0.950479639
C -5.343580895 0.1003481856 0.3372368876
O -4.9810715244 0.1430800674 1.5316957296
O 3.85766838 -0.9143437665 -2.4370217137
O -6.6927787744 -0.1353534527 -0.08613607
O -3.7367563761 -2.0833573851 0.6897840896
C -7.5661895652 -0.324617717 1.0949240552
C -2.1503630218 1.0757224633 -0.6445458073
C -1.9493996057 1.7399605331 -2.0629607965
C -3.4106818901 2.2434082493 -2.3608647645
C -4.1421169488 1.893088997 -1.0043182135
O -3.080394826 2.0121582876 0.0245246342
H -2.7335180666 -0.6728580356 -1.8529615797
H -5.028300597 -0.0184864505 -1.8364718106
H -1.2237444432 0.9499175741 -0.055083198
H -1.2428140913 2.582470738 -1.9909469134
H -1.5764585632 1.0266186221 -2.8152169858
H -3.4380155505 3.3285587867 -2.5473419599
H -3.8710944115 1.7263290139 -3.2181658001
H -4.9986235527 2.5481697547 -0.7518107945
O 2.6567370619 -1.8699473526 -0.0568373195
C 4.0644842559 -2.2526373703 -3.0330916304
C 5.4689595648 1.0891329585 0.3540203014
C 5.2847770143 2.6366262193 0.6072042073
C 4.0794082937 2.6357093162 1.6197065649
C 3.8126318881 1.0865496312 1.777218977
O 5.1603344851 0.4844062512 1.6710289094
H 4.0687537396 1.3035815359 -1.390439526
H 2.2676978671 1.2404773138 0.1602468792
H 3.6870295383 -3.0509347989 -2.3615586736
H 6.4748002985 0.7748460825 0.0145080013
H 6.1927682125 3.0646304978 1.0609602903
H 5.0607101659 3.1847697152 -0.3218576332
H 4.3637093927 3.0764254091 2.5884164111
H 3.1972232091 3.1712940405 1.2340264002
H 3.315740658 0.7812264422 2.7185721691
H 5.1356725984 -2.447015981 -3.2462233153
H 3.490939091 -2.2614778747 -3.9782464855
H -8.5818552622 -0.5066356493 0.6980741289
H -7.5775275107 0.5747385197 1.7441969305
H -7.2437706449 -1.1934427062 1.7042981606
H -1.4998618351 -1.7178343468 2.4057235915
H -0.8288696281 -0.2575578799 1.5983219775
H 0.6873165956 -2.5585499287 2.5912045374
H 0.8268097172 -2.5752114518 0.7886638098
$end

$rem
JOBTYPE                   OPT
METHOD                    B3LYP
DFT_D                     d3_op
BASIS                     STO-3G
GEOM_OPT_MAX_CYCLES       100
GEOM_OPT_TOL_GRADIENT     300
GEOM_OPT_TOL_DISPLACEMENT 1200
GEOM_OPT_TOL_ENERGY       100
SYMMETRY                  False
THRESH                    12
SCF_CONVERGENCE           8
MAX_SUB_FILE_NUM          128
MEM_STATIC                400
MEM_TOTAL                 4000
$end
--------------------------------------------------------------

   16   -1510.2562552963      6.18E-09 Convergence criterion met
 Total energy in the final basis set = -1510.25625530
   14   -1510.2601133666      5.29E-09 Convergence criterion met
 Total energy in the final basis set = -1510.26011337
   14   -1510.2639787262      3.89E-09 Convergence criterion met
 Total energy in the final basis set = -1510.26397873
   14   -1510.2677002044      4.12E-09 Convergence criterion met
 Total energy in the final basis set = -1510.26770020
   14   -1510.2715694235      2.23E-09 Convergence criterion met
 Total energy in the final basis set = -1510.27156942
   14   -1510.2748659309      2.40E-09 Convergence criterion met
 Total energy in the final basis set = -1510.27486593
   14   -1510.2776226998      1.68E-09 Convergence criterion met
 Total energy in the final basis set = -1510.27762270
   14   -1510.2802086308      2.55E-09 Convergence criterion met
   12   -1510.2957400331      2.72E-09 Convergence criterion met
 Total energy in the final basis set = -1510.29574003
   11   -1510.2957476394      8.07E-09 Convergence criterion met
 Total energy in the final basis set = -1510.29574764
   10   -1510.2957458790      5.71E-09 Convergence criterion met
 Total energy in the final basis set = -1510.29574588
    9   -1510.2957458121      5.76E-09 Convergence criterion met
 Total energy in the final basis set = -1510.29574581
    9   -1510.2957456195      9.11E-09 Convergence criterion met
 Total energy in the final basis set = -1510.29574562
    9   -1510.2957467202      4.83E-09 Convergence criterion met
 Total energy in the final basis set = -1510.29574672

             Standard Nuclear Orientation (Angstroms)
    I     Atom           X                Y                Z
 ----------------------------------------------------------------
    1      O       2.8906948651    -0.1209869745    -1.8979861826
    2      C       2.5829862581     0.9118726811    -1.2619908357
    3      C       3.1856181186     1.4225550236     0.0956648155
    4      C       2.5672251565     0.7948434034     1.4132010367
    5      C       1.5128283013    -0.3424954326     1.1651525317
    6      O       1.3776541984    -1.0731954489     2.3890675557
    7      C       0.4917408068    -2.2494958117     2.2371742236
    8      C      -1.0442337858    -1.8978360607     2.3248626337
    9      O      -1.6640296015    -2.0450825771     0.9887909283
   10      C      -2.1565815241    -0.7863055773     0.5171604873
   11      C      -2.6189236846    -0.9875005848    -0.9600177563
   12      C      -3.7250301888     0.0374291470    -1.4441951866
   13      C      -4.1683670680     1.0552485099    -0.3303084404
   14      O      -3.9715285855     2.2877313309    -0.3043167837
   15      O       1.6790707274     1.9177666811    -1.7183889929
   16      O      -4.9266976856     0.3304820246     0.6478739780
   17      O      -2.1540717773     0.2702682615     1.1876207707
   18      C      -5.2879845635     1.2291529754     1.7664491274
   19      C      -1.4164200932    -0.6210663977    -1.9335796708
   20      C      -1.7368127547    -1.1899564096    -3.3679925239
   21      C      -2.8508710444    -0.1883404174    -3.8558710492
   22      C      -2.9623868358     0.7795957227    -2.6147480456
   23      O      -1.5735962811     0.8429606291    -2.0989110775
   24      H      -2.9368488245    -2.0364987839    -1.0906251222
   25      H      -4.6209548671    -0.4995511637    -1.8050220812
   26      H      -0.4137592958    -0.8485510450    -1.5157810645
   27      H      -0.8409201263    -1.1400876203    -4.0071025762
   28      H      -2.0882689894    -2.2331764544    -3.3304460166
   29      H      -2.5288657824     0.3679379035    -4.7505180980
   30      H      -3.8066284128    -0.6897690597    -4.0772193242
   31      H      -3.3395050208     1.7991487006    -2.8249580651
   32      O       0.8846613430    -0.6048209155     0.1167291679
   33      C       1.0642433358     1.5403451895    -3.0162230093
   34      C       4.7110205184     1.0031797993     0.2553922959
   35      C       5.3761361947     1.9627788219     1.3178022343
   36      C       4.7380597666     1.4209220091     2.6506620140
   37      C       3.8723071596     0.2154964722     2.1091373181
   38      O       4.6520798020    -0.2979134197     0.9606403302
   39      H       3.0681113989     2.5200639541     0.1118976739
   40      H       2.0866837738     1.5712802194     2.0373151997
   41      H       1.5486354582     0.6200829080    -3.3989296716
   42      H       5.2572679476     0.8967363207    -0.7016536426
   43      H       6.4708384640     1.8386996346     1.3157735063
   44      H       5.1395442190     3.0222799736     1.1301883471
   45      H       5.5073434425     1.0599569324     3.3516108872
   46      H       4.1185777118     2.1744096375     3.1626109479
   47      H       3.6659456634    -0.5910506625     2.8384824717
   48      H       1.2232984539     2.3753680999    -3.7251394756
   49      H      -0.0279014591     1.3694455100    -2.8457872192
   50      H      -5.8984900221     0.6243649595     2.4620406097
   51      H      -5.8759030106     2.1027353818     1.4180671797
   52      H      -4.3821426710     1.5981023465     2.2900690864
   53      H      -1.5546625511    -2.6010151626     3.0150165154
   54      H      -1.1935978801    -0.8528113495     2.6770658571
   55      H       0.7713055926    -2.9230098983     3.0719992467
   56      H       0.6806034519    -2.7654510160     1.2702741131
 ----------------------------------------------------------------

    9   -1510.2957467358      2.50E-09 Convergence criterion met
 Total energy in the final basis set = -1510.29574674
 Final energy is   -1510.29574673580
 **  OPTIMIZATION CONVERGED  **

                    Orbital Energies (a.u.)
 --------------------------------------------------------------

 Alpha MOs
 -- Occupied --
-18.940 -18.937 -18.924 -18.909 -18.899 -18.888 -18.883 -18.881
-18.868 -18.851 -10.109 -10.104 -10.093 -10.081 -10.079 -10.073
-10.061 -10.057 -10.056 -10.056 -10.054 -10.039 -10.038 -10.036
-10.027 -10.021 -10.020 -10.019 -10.017 -10.016  -1.022  -1.014
 -1.002  -0.988  -0.976  -0.966  -0.946  -0.940  -0.929  -0.913
 -0.765  -0.758  -0.729  -0.721  -0.713  -0.704  -0.695  -0.657
 -0.639  -0.620  -0.595  -0.577  -0.546  -0.540  -0.537  -0.532
 -0.513  -0.508  -0.483  -0.467  -0.459  -0.454  -0.451  -0.445
 -0.438  -0.430  -0.428  -0.414  -0.406  -0.404  -0.400  -0.395
 -0.387  -0.380  -0.374  -0.361  -0.357  -0.356  -0.354  -0.345
 -0.341  -0.339  -0.331  -0.328  -0.325  -0.323  -0.320  -0.312
 -0.308  -0.305  -0.302  -0.300  -0.295  -0.281  -0.276  -0.271
 -0.269  -0.259  -0.250  -0.247  -0.235  -0.231  -0.226  -0.193
 -0.173  -0.169  -0.163  -0.162  -0.158  -0.146  -0.141  -0.141
 -0.136

          Ground-State Mulliken Net Atomic Charges

     Atom                 Charge (a.u.)
  ----------------------------------------
      1 O                    -0.223308
      2 C                     0.210755
      3 C                    -0.081498
      4 C                    -0.076580
      5 C                     0.219728
      6 O                    -0.173307
      7 C                    -0.050690
      8 C                    -0.057624
      9 O                    -0.171897
     10 C                     0.219904
     11 C                    -0.077495
     12 C                    -0.079255
     13 C                     0.215577
     14 O                    -0.210459
     15 O                    -0.173609
     16 O                    -0.176094
     17 O                    -0.212738
     18 C                    -0.128723
     19 C                     0.020206
     20 C                    -0.144458
     21 C                    -0.144905
     22 C                     0.026524
     23 O                    -0.183911
     24 H                     0.088138
     25 H                     0.084715
     26 H                     0.109433
     27 H                     0.080835
     28 H                     0.075332
     29 H                     0.078550
     30 H                     0.074363
     31 H                     0.091584
     32 O                    -0.210635
     33 C                    -0.156324
     34 C                     0.025313
     35 C                    -0.143747
     36 C                    -0.144445
     37 C                     0.023573
     38 O                    -0.190252
     39 H                     0.086010
     40 H                     0.088243
     41 H                     0.086384
     42 H                     0.085728
     43 H                     0.077109
     44 H                     0.073895
     45 H                     0.077214
     46 H                     0.073302
     47 H                     0.088542
     48 H                     0.072163
     49 H                     0.110765
     50 H                     0.086816
     51 H                     0.087708
     52 H                     0.092535
     53 H                     0.086555
     54 H                     0.104237
     55 H                     0.090992
     56 H                     0.099223
  ----------------------------------------
  Sum of atomic charges =    -0.000000

                    Cartesian Multipole Moments
 -----------------------------------------------------------------
    Charge (ESU x 10^10)
                -0.0000
    Dipole Moment (Debye)
         X      -1.5830      Y      -1.1437      Z       1.4484
       Tot       2.4314
    Quadrupole Moments (Debye-Ang)
        XX    -154.3181     XY      11.6722     YY    -160.2858
        XZ       7.0830     YZ      -0.6585     ZZ    -146.7181

 Total job time:  143.01s(wall), 6819.82s(cpu)
        *  Thank you very much for using Q-Chem.  Have a nice day.  *
