 Q-Chem 5.0, Q-Chem, Inc., Pleasanton, CA (2017)
 Q-Chem 5.0.1 for Intel X86 EM64T Linux

User input:
--------------------------------------------------------------
$molecule
0  1
O -3.94934 -3.66094 2.70899
C -3.26408 -4.56952 2.26188
C -3.36658 -6.02376 2.66595
C -2.7598 -6.42075 4.0217
C -2.27636 -5.28922 4.90148
O -3.34274 -4.66941 5.48808
C -2.99004 -3.93669 6.6662
C -3.57979 -4.61077 7.90068
O -3.05713 -3.99774 9.08976
C -3.80831 -4.15882 10.20732
C -3.07447 -3.77433 11.46997
C -2.1438 -2.56043 11.33365
C -2.34625 -1.70816 10.09698
O -2.29425 -0.48727 10.06126
O -2.43111 -4.30113 1.22174
O -1.663 -2.20538 9.01915
O -5.00181 -4.43367 10.18793
C -1.1969 -1.46109 7.94209
C -3.98204 -3.33702 12.63442
C -3.24592 -3.5315 13.95848
C -2.21435 -2.42726 13.87138
C -2.63851 -1.7564 12.55945
O -4.03341 -1.93831 12.51883
H -2.49431 -4.67854 11.7611
H -1.06021 -2.7995 11.4209
H -4.95978 -3.8647 12.66368
H -3.96358 -3.28376 14.77334
H -2.83679 -4.55084 14.12749
H -2.36889 -1.73635 14.72995
H -1.15575 -2.76473 13.83996
H -2.28698 -0.70136 12.5522
O -1.09922 -5.16071 5.21784
C -2.24014 -3.04639 0.68188
C -4.81427 -6.51646 2.84661
C -4.87586 -8.03257 2.65998
C -4.19811 -8.50431 3.93194
C -3.96336 -7.16449 4.63801
O -5.05771 -6.37713 4.22639
H -2.87668 -6.60713 1.85225
H -1.88641 -7.09631 3.87613
H -1.8397 -2.35518 1.45416
H -5.53381 -6.0118 2.16534
H -5.94889 -8.32758 2.70141
H -4.42873 -8.4095 1.71506
H -4.92392 -9.11989 4.50859
H -3.25304 -9.07066 3.78557
H -3.84712 -7.31438 5.73396
H -3.19869 -2.65039 0.28353
H -1.50908 -3.11545 -0.14956
H -0.63642 -2.11214 7.24369
H -0.49275 -0.67661 8.29293
H -2.04619 -0.98531 7.40714
H -4.68641 -4.52455 7.8144
H -3.29733 -5.68617 7.91261
H -3.3604 -2.89412 6.57961
H -1.90222 -3.88213 6.85705
$end

$opt
CONSTRAINT
tors           1           2           3           4     -76.134
tors           3           4           5           6     +76.393
tors           4           5           6           7    +158.888
tors           5           6           7           8    -111.293
tors           6           7           8           9    +171.143
tors           7           8           9          10    +158.030
tors           8           9          10          11    +166.995
tors           9          10          11          12     +37.004
tors          11          12          13          14    +140.402
ENDCONSTRAINT
$end

$rem
JOBTYPE                   OPT
METHOD                    B3LYP
DFT_D                     d3_op
BASIS                     STO-3G
GEOM_OPT_MAX_CYCLES       100
GEOM_OPT_TOL_GRADIENT     300
GEOM_OPT_TOL_DISPLACEMENT 1200
GEOM_OPT_TOL_ENERGY       100
SYMMETRY                  False
THRESH                    12
SCF_CONVERGENCE           8
MAX_SUB_FILE_NUM          128
MEM_STATIC                400
MEM_TOTAL                 4000
$end
--------------------------------------------------------------

   15   -1510.1094582490      8.81E-09 Convergence criterion met
 Total energy in the final basis set = -1510.10945825
   15   -1510.1817544706      2.07E-09 Convergence criterion met
 Total energy in the final basis set = -1510.18175447
   15   -1510.2199056445      2.27E-09 Convergence criterion met
 Total energy in the final basis set = -1510.21990564
   15   -1510.2440518976      1.74E-09 Convergence criterion met
 Total energy in the final basis set = -1510.24405190
   14   -1510.2543110204      4.52E-09 Convergence criterion met
 Total energy in the final basis set = -1510.25431102
   14   -1510.2598782265      3.03E-09 Convergence criterion met
 Total energy in the final basis set = -1510.25987823
   13   -1510.2628592963      5.37E-09 Convergence criterion met
 Total energy in the final basis set = -1510.26285930
   13   -1510.2638632009      7.23E-09 Convergence criterion met
   11   -1510.2673971054      8.65E-09 Convergence criterion met
 Total energy in the final basis set = -1510.26739711
    9   -1510.2674008339      6.24E-09 Convergence criterion met
 Total energy in the final basis set = -1510.26740083
   10   -1510.2674075430      7.86E-09 Convergence criterion met
 Total energy in the final basis set = -1510.26740754
    9   -1510.2674098982      3.84E-09 Convergence criterion met
 Total energy in the final basis set = -1510.26740990
    9   -1510.2674121655      6.24E-09 Convergence criterion met
 Total energy in the final basis set = -1510.26741217
    9   -1510.2674136185      6.05E-09 Convergence criterion met
 Total energy in the final basis set = -1510.26741362

             Standard Nuclear Orientation (Angstroms)
    I     Atom           X                Y                Z
 ----------------------------------------------------------------
    1      O      -3.9765556527     1.0338983655     1.9877128718
    2      C      -4.7099384307     1.0285780457     0.9762516852
    3      C      -5.0495829902    -0.1770744252     0.0344262243
    4      C      -3.8661270343    -0.5546939751    -0.9644916492
    5      C      -2.5926617931     0.3479997898    -0.8246273772
    6      O      -1.8579644699    -0.0419655441     0.3436310567
    7      C      -0.4492382429     0.4066704252     0.2403228174
    8      C       0.4737968328    -0.8480101623     0.0773669680
    9      O       1.8316578247    -0.3363695837    -0.2378418849
   10      C       2.8248315973    -1.3096292501     0.0868187278
   11      C       4.2334563209    -0.9427118742    -0.5306874983
   12      C       4.6414190787     0.5859551381    -0.5676676271
   13      C       3.5335925296     1.6857043465    -0.7248079182
   14      O       3.4894068538     2.7903060241    -0.1403458136
   15      O      -5.3852147956     2.1883715615     0.4704507658
   16      O       2.7405585113     1.3662781844    -1.8754753799
   17      O       2.5855745109    -2.3553506187     0.7311352108
   18      C       1.7808332959     2.4607146737    -2.1452120726
   19      C       5.2873105368    -1.4577227701     0.5395743803
   20      C       6.7693384186    -1.2705334474     0.0240799572
   21      C       7.0065805443     0.2628649827     0.2966985794
   22      C       5.5553908596     0.7021328192     0.7279666798
   23      O       5.1281261564    -0.4220973081     1.5933412254
   24      H       4.3229567872    -1.4193454000    -1.5243401208
   25      H       5.2804934135     0.7268929658    -1.4610888512
   26      H       5.0397221703    -2.4586668078     0.9435983298
   27      H       7.4636594336    -1.9008191071     0.6016512453
   28      H       6.8653618920    -1.5292589138    -1.0429220105
   29      H       7.7159305636     0.4166003295     1.1258129205
   30      H       7.3707022324     0.8073327484    -0.5889721266
   31      H       5.4717476458     1.6692989373     1.2613607492
   32      O      -2.2095338277     1.2224547052    -1.6346850162
   33      C      -5.0602557531     3.3665708928     1.3074237142
   34      C      -5.1973443294    -1.5370093867     0.8429494127
   35      C      -5.9249861949    -2.5864401589    -0.0868611541
   36      C      -4.7701088174    -2.9522154970    -1.0910297383
   37      C      -3.5893329574    -2.0593461786    -0.5385206764
   38      O      -3.8109395556    -2.0482285376     0.9240796971
   39      H      -5.9675639643     0.0718868731    -0.5266215899
   40      H      -4.2050327554    -0.4747214257    -2.0129118583
   41      H      -3.9719935162     3.5807853000     1.3044478338
   42      H      -5.6250193941    -1.4228795723     1.8576781897
   43      H      -6.2424044520    -3.4630798835     0.4997752529
   44      H      -6.8070883306    -2.1576533205    -0.5887761463
   45      H      -4.5049792078    -4.0197728355    -1.0317684112
   46      H      -5.0212148791    -2.7087819508    -2.1358121219
   47      H      -2.5708049045    -2.4242415766    -0.7729169360
   48      H      -5.3866141976     3.2239612511     2.3579047754
   49      H      -5.6063192163     4.2183203104     0.8620415289
   50      H       1.1300657288     2.1038469411    -2.9646250156
   51      H       2.3003296045     3.3887733322    -2.4619914602
   52      H       1.1619157490     2.6939800578    -1.2557254785
   53      H       0.4878368649    -1.4664044381     0.9998178888
   54      H       0.1091726980    -1.4807165705    -0.7621591471
   55      H      -0.1869141602     0.9595035469     1.1658001164
   56      H      -0.3470826676     1.0821042278    -0.6357875700
 ----------------------------------------------------------------

    9   -1510.2674141411      4.04E-09 Convergence criterion met
 Total energy in the final basis set = -1510.26741414
 Final energy is   -1510.26741414112
 **  OPTIMIZATION CONVERGED  **

                    Orbital Energies (a.u.)
 --------------------------------------------------------------

 Alpha MOs
 -- Occupied --
-18.935 -18.934 -18.933 -18.929 -18.890 -18.882 -18.881 -18.875
-18.873 -18.870 -10.103 -10.100 -10.097 -10.097 -10.071 -10.069
-10.063 -10.063 -10.061 -10.060 -10.055 -10.055 -10.042 -10.039
-10.039 -10.035 -10.022 -10.021 -10.019 -10.017  -1.016  -1.013
 -1.009  -1.004  -0.972  -0.967  -0.941  -0.936  -0.934  -0.930
 -0.765  -0.761  -0.728  -0.722  -0.712  -0.702  -0.697  -0.663
 -0.659  -0.613  -0.597  -0.582  -0.549  -0.542  -0.539  -0.536
 -0.515  -0.508  -0.490  -0.471  -0.462  -0.458  -0.453  -0.441
 -0.436  -0.433  -0.428  -0.412  -0.411  -0.408  -0.405  -0.403
 -0.393  -0.386  -0.370  -0.369  -0.364  -0.357  -0.352  -0.350
 -0.345  -0.339  -0.336  -0.333  -0.328  -0.326  -0.320  -0.310
 -0.309  -0.308  -0.305  -0.302  -0.296  -0.289  -0.280  -0.279
 -0.269  -0.255  -0.250  -0.248  -0.241  -0.236  -0.231  -0.181
 -0.178  -0.174  -0.167  -0.161  -0.155  -0.150  -0.147  -0.145
 -0.141

          Ground-State Mulliken Net Atomic Charges

     Atom                 Charge (a.u.)
  ----------------------------------------
      1 O                    -0.205180
      2 C                     0.203889
      3 C                    -0.078602
      4 C                    -0.078088
      5 C                     0.205741
      6 O                    -0.164692
      7 C                    -0.052726
      8 C                    -0.048615
      9 O                    -0.169804
     10 C                     0.212314
     11 C                    -0.074588
     12 C                    -0.080794
     13 C                     0.213885
     14 O                    -0.216149
     15 O                    -0.170416
     16 O                    -0.166693
     17 O                    -0.213976
     18 C                    -0.127866
     19 C                     0.022990
     20 C                    -0.146251
     21 C                    -0.141447
     22 C                     0.022122
     23 O                    -0.192214
     24 H                     0.086199
     25 H                     0.083229
     26 H                     0.090642
     27 H                     0.078510
     28 H                     0.072608
     29 H                     0.077951
     30 H                     0.072654
     31 H                     0.090032
     32 O                    -0.213574
     33 C                    -0.129102
     34 C                     0.026545
     35 C                    -0.143885
     36 C                    -0.144250
     37 C                     0.027674
     38 O                    -0.181545
     39 H                     0.086512
     40 H                     0.085911
     41 H                     0.089608
     42 H                     0.085816
     43 H                     0.078733
     44 H                     0.073850
     45 H                     0.078549
     46 H                     0.073555
     47 H                     0.082368
     48 H                     0.088792
     49 H                     0.090469
     50 H                     0.090942
     51 H                     0.085897
     52 H                     0.089537
     53 H                     0.101622
     54 H                     0.080218
     55 H                     0.091792
     56 H                     0.099303
  ----------------------------------------
  Sum of atomic charges =     0.000000

                    Cartesian Multipole Moments
 -----------------------------------------------------------------
    Charge (ESU x 10^10)
                 0.0000
    Dipole Moment (Debye)
         X      -1.1917      Y      -0.2630      Z      -3.1163
       Tot       3.3467
    Quadrupole Moments (Debye-Ang)
        XX    -134.8097     XY      -0.5980     YY    -159.2070
        XZ      -5.9691     YZ       6.1524     ZZ    -164.2288

 Total job time:  90.91s(wall), 4324.91s(cpu)
        *  Thank you very much for using Q-Chem.  Have a nice day.  *
