 Q-Chem 5.0, Q-Chem, Inc., Pleasanton, CA (2017)
 Q-Chem 5.0.1 for Intel X86 EM64T Linux

User input:
--------------------------------------------------------------
$molecule
0  1
O -3.9765556527 1.0338983655 1.9877128718
C -4.7099384307 1.0285780457 0.9762516852
C -5.0495829902 -0.1770744252 0.0344262243
C -3.8661270343 -0.5546939751 -0.9644916492
C -2.5926617931 0.3479997898 -0.8246273772
O -1.8579644699 -0.0419655441 0.3436310567
C -0.4492382429 0.4066704252 0.2403228174
C 0.4737968328 -0.8480101623 0.077366968
O 1.8316578247 -0.3363695837 -0.2378418849
C 2.8248315973 -1.3096292501 0.0868187278
C 4.2334563209 -0.9427118742 -0.5306874983
C 4.6414190787 0.5859551381 -0.5676676271
C 3.5335925296 1.6857043465 -0.7248079182
O 3.4894068538 2.7903060241 -0.1403458136
O -5.3852147956 2.1883715615 0.4704507658
O 2.7405585113 1.3662781844 -1.8754753799
O 2.5855745109 -2.3553506187 0.7311352108
C 1.7808332959 2.4607146737 -2.1452120726
C 5.2873105368 -1.4577227701 0.5395743803
C 6.7693384186 -1.2705334474 0.0240799572
C 7.0065805443 0.2628649827 0.2966985794
C 5.5553908596 0.7021328192 0.7279666798
O 5.1281261564 -0.4220973081 1.5933412254
H 4.3229567872 -1.4193454 -1.5243401208
H 5.2804934135 0.7268929658 -1.4610888512
H 5.0397221703 -2.4586668078 0.9435983298
H 7.4636594336 -1.9008191071 0.6016512453
H 6.865361892 -1.5292589138 -1.0429220105
H 7.7159305636 0.4166003295 1.1258129205
H 7.3707022324 0.8073327484 -0.5889721266
H 5.4717476458 1.6692989373 1.2613607492
O -2.2095338277 1.2224547052 -1.6346850162
C -5.0602557531 3.3665708928 1.3074237142
C -5.1973443294 -1.5370093867 0.8429494127
C -5.9249861949 -2.5864401589 -0.0868611541
C -4.7701088174 -2.952215497 -1.0910297383
C -3.5893329574 -2.0593461786 -0.5385206764
O -3.8109395556 -2.0482285376 0.9240796971
H -5.9675639643 0.0718868731 -0.5266215899
H -4.2050327554 -0.4747214257 -2.0129118583
H -3.9719935162 3.5807853 1.3044478338
H -5.6250193941 -1.4228795723 1.8576781897
H -6.242404452 -3.4630798835 0.4997752529
H -6.8070883306 -2.1576533205 -0.5887761463
H -4.5049792078 -4.0197728355 -1.0317684112
H -5.0212148791 -2.7087819508 -2.1358121219
H -2.5708049045 -2.4242415766 -0.772916936
H -5.3866141976 3.2239612511 2.3579047754
H -5.6063192163 4.2183203104 0.8620415289
H 1.1300657288 2.1038469411 -2.9646250156
H 2.3003296045 3.3887733322 -2.4619914602
H 1.161915749 2.6939800578 -1.2557254785
H 0.4878368649 -1.4664044381 0.9998178888
H 0.109172698 -1.4807165705 -0.7621591471
H -0.1869141602 0.9595035469 1.1658001164
H -0.3470826676 1.0821042278 -0.63578757
$end

$rem
JOBTYPE                   OPT
METHOD                    B3LYP
DFT_D                     d3_op
BASIS                     STO-3G
GEOM_OPT_MAX_CYCLES       100
GEOM_OPT_TOL_GRADIENT     300
GEOM_OPT_TOL_DISPLACEMENT 1200
GEOM_OPT_TOL_ENERGY       100
SYMMETRY                  False
THRESH                    12
SCF_CONVERGENCE           8
MAX_SUB_FILE_NUM          128
MEM_STATIC                400
MEM_TOTAL                 4000
$end
--------------------------------------------------------------

   16   -1510.2672161380      3.84E-09 Convergence criterion met
 Total energy in the final basis set = -1510.26721614
   15   -1510.2712158079      2.73E-09 Convergence criterion met
 Total energy in the final basis set = -1510.27121581
   14   -1510.2739102851      8.45E-09 Convergence criterion met
 Total energy in the final basis set = -1510.27391029
   14   -1510.2759414800      3.72E-09 Convergence criterion met
 Total energy in the final basis set = -1510.27594148
   14   -1510.2776832703      4.53E-09 Convergence criterion met
 Total energy in the final basis set = -1510.27768327
   14   -1510.2790036058      5.83E-09 Convergence criterion met
 Total energy in the final basis set = -1510.27900361
   14   -1510.2798750224      6.55E-09 Convergence criterion met
 Total energy in the final basis set = -1510.27987502
   13   -1510.2809112800      9.76E-09 Convergence criterion met
   13   -1510.3008343108      2.31E-09 Convergence criterion met
 Total energy in the final basis set = -1510.30083431
   12   -1510.3008715018      4.48E-09 Convergence criterion met
 Total energy in the final basis set = -1510.30087150
   12   -1510.3008705401      6.55E-09 Convergence criterion met
 Total energy in the final basis set = -1510.30087054
   12   -1510.3008930707      5.54E-09 Convergence criterion met
 Total energy in the final basis set = -1510.30089307
   11   -1510.3009015689      4.27E-09 Convergence criterion met
 Total energy in the final basis set = -1510.30090157
   10   -1510.3009018755      4.04E-09 Convergence criterion met
 Total energy in the final basis set = -1510.30090188

             Standard Nuclear Orientation (Angstroms)
    I     Atom           X                Y                Z
 ----------------------------------------------------------------
    1      O      -3.4524668968     0.1679127723     2.3886340991
    2      C      -3.2615575864     0.5248561737     1.2072389864
    3      C      -4.1395913135     0.1936884326    -0.0523663428
    4      C      -3.3057427352    -0.4247055763    -1.2540293807
    5      C      -1.7890320171    -0.6056912084    -0.9068560256
    6      O      -1.6817965283    -1.4771166930     0.2183019116
    7      C      -0.2793975833    -1.5586600887     0.6933159699
    8      C       0.6468624905    -2.4668440002    -0.2156755253
    9      O       1.8432122161    -1.7255679921    -0.6893282889
   10      C       2.7148872175    -1.4451535811     0.4149344596
   11      C       3.9439375003    -0.6267746339    -0.1210648776
   12      C       3.6100539758     0.8507551071    -0.5902188225
   13      C       2.1192335629     1.2727270401    -0.3723425771
   14      O       1.3654173603     0.9069699127     0.5641399889
   15      O      -2.1766817144     1.3460254549     0.7621458923
   16      O       1.7659158416     2.1954112614    -1.3897080123
   17      O       2.5291636445    -1.8557978796     1.5802106115
   18      C       0.3318667090     2.5742438604    -1.2896299659
   19      C       4.9924850972    -0.3520867276     1.0354420025
   20      C       6.3708755008     0.0400381616     0.3757871816
   21      C       6.0586972184     1.4963333062    -0.1319353358
   22      C       4.5718446148     1.6838472878     0.3693440212
   23      O       4.5242570339     0.9204646389     1.6347749435
   24      H       4.3939789939    -1.1960970913    -0.9548819413
   25      H       3.8613602115     1.0108355196    -1.6530275035
   26      H       5.0306208423    -1.1470643174     1.8054099690
   27      H       7.1731120458     0.0392452510     1.1309277381
   28      H       6.6528387099    -0.6442225866    -0.4404970775
   29      H       6.7198671537     2.2409391616     0.3390529769
   30      H       6.1405150990     1.5931107251    -1.2263526499
   31      H       4.2581524824     2.7332314116     0.5330782556
   32      O      -0.8098258327    -0.1053955240    -1.5079694582
   33      C      -1.2571762218     1.6798384236     1.8773526729
   34      C      -5.1739561589    -0.9695904795     0.2367552388
   35      C      -6.2697759843    -0.9480739916    -0.8992713252
   36      C      -5.4584335355    -1.5400230802    -2.1117991549
   37      C      -4.0555757254    -1.8160963130    -1.4376161719
   38      O      -4.4033991649    -2.2019087233    -0.0525494955
   39      H      -4.6488728816     1.1219113863    -0.3710441157
   40      H      -3.3711162304     0.2024075024    -2.1602274900
   41      H      -0.2214407022     1.5323544185     1.4997033565
   42      H      -5.5516030530    -0.9858089211     1.2777241794
   43      H      -7.1189061044    -1.5954697249    -0.6282171322
   44      H      -6.6477877479     0.0680901276    -1.0944253206
   45      H      -5.9011677220    -2.4814010894    -2.4742869835
   46      H      -5.3820041873    -0.8380601060    -2.9575010175
   47      H      -3.4482846885    -2.6063802461    -1.9200439411
   48      H      -1.4611207666     1.0235072637     2.7456679884
   49      H      -1.4094153400     2.7362732190     2.1765326034
   50      H       0.1428925915     3.2478079471    -2.1448212915
   51      H       0.1208440587     3.1100512700    -0.3431471830
   52      H      -0.3055452416     1.6610556495    -1.3642662188
   53      H       0.9508858824    -3.3791148806     0.3400361978
   54      H       0.1068137331    -2.7672984396    -1.1359520322
   55      H      -0.3469909698    -1.9788148535     1.7149832459
   56      H       0.1849797404    -0.5456573513     0.7334903509
 ----------------------------------------------------------------

    9   -1510.3009027661      6.31E-09 Convergence criterion met
 Total energy in the final basis set = -1510.30090277
 Final energy is   -1510.30090276606
 **  OPTIMIZATION CONVERGED  **

                    Orbital Energies (a.u.)
 --------------------------------------------------------------

 Alpha MOs
 -- Occupied --
-18.943 -18.933 -18.927 -18.925 -18.889 -18.887 -18.884 -18.875
-18.873 -18.871 -10.110 -10.102 -10.096 -10.096 -10.066 -10.063
-10.061 -10.058 -10.056 -10.054 -10.049 -10.040 -10.040 -10.037
-10.037 -10.036 -10.022 -10.020 -10.020 -10.019  -1.018  -1.014
 -1.006  -1.001  -0.971  -0.969  -0.941  -0.936  -0.931  -0.931
 -0.764  -0.762  -0.726  -0.723  -0.710  -0.705  -0.690  -0.660
 -0.650  -0.615  -0.596  -0.582  -0.545  -0.545  -0.537  -0.536
 -0.514  -0.509  -0.478  -0.470  -0.463  -0.460  -0.454  -0.438
 -0.434  -0.431  -0.430  -0.419  -0.413  -0.406  -0.404  -0.399
 -0.383  -0.375  -0.368  -0.365  -0.364  -0.360  -0.353  -0.348
 -0.342  -0.339  -0.332  -0.331  -0.329  -0.325  -0.321  -0.311
 -0.308  -0.305  -0.304  -0.303  -0.291  -0.287  -0.281  -0.279
 -0.270  -0.258  -0.249  -0.243  -0.236  -0.235  -0.233  -0.191
 -0.178  -0.171  -0.161  -0.159  -0.156  -0.150  -0.148  -0.145
 -0.142

          Ground-State Mulliken Net Atomic Charges

     Atom                 Charge (a.u.)
  ----------------------------------------
      1 O                    -0.211122
      2 C                     0.214263
      3 C                    -0.077941
      4 C                    -0.079019
      5 C                     0.218241
      6 O                    -0.168324
      7 C                    -0.064008
      8 C                    -0.049918
      9 O                    -0.173040
     10 C                     0.211485
     11 C                    -0.079403
     12 C                    -0.077827
     13 C                     0.226206
     14 O                    -0.220793
     15 O                    -0.179905
     16 O                    -0.163965
     17 O                    -0.212362
     18 C                    -0.141988
     19 C                     0.024888
     20 C                    -0.143861
     21 C                    -0.143721
     22 C                     0.025585
     23 O                    -0.187316
     24 H                     0.085089
     25 H                     0.089116
     26 H                     0.090588
     27 H                     0.078527
     28 H                     0.073521
     29 H                     0.078441
     30 H                     0.074321
     31 H                     0.082765
     32 O                    -0.221588
     33 C                    -0.149269
     34 C                     0.024653
     35 C                    -0.143918
     36 C                    -0.143993
     37 C                     0.026070
     38 O                    -0.185020
     39 H                     0.083702
     40 H                     0.083589
     41 H                     0.109070
     42 H                     0.090891
     43 H                     0.078173
     44 H                     0.072859
     45 H                     0.077892
     46 H                     0.073161
     47 H                     0.081680
     48 H                     0.095872
     49 H                     0.076315
     50 H                     0.086053
     51 H                     0.082775
     52 H                     0.116886
     53 H                     0.088099
     54 H                     0.089528
     55 H                     0.094242
     56 H                     0.113758
  ----------------------------------------
  Sum of atomic charges =    -0.000000

                    Cartesian Multipole Moments
 -----------------------------------------------------------------
    Charge (ESU x 10^10)
                -0.0000
    Dipole Moment (Debye)
         X       0.3927      Y       1.2613      Z      -3.3470
       Tot       3.5982
    Quadrupole Moments (Debye-Ang)
        XX    -140.8008     XY      -3.8414     YY    -155.7092
        XZ       3.2969     YZ       3.7854     ZZ    -167.2092

 Total job time:  173.05s(wall), 8259.92s(cpu)
        *  Thank you very much for using Q-Chem.  Have a nice day.  *
