 Q-Chem 5.0, Q-Chem, Inc., Pleasanton, CA (2017)
 Q-Chem 5.0.1 for Intel X86 EM64T Linux

User input:
--------------------------------------------------------------
$molecule
0  1
O -3.94934 -3.66094 2.70899
C -3.26408 -4.56952 2.26188
C -3.36658 -6.02376 2.66595
C -2.69729 -6.43459 3.98774
C -2.15364 -5.31345 4.84539
O -2.31499 -5.61985 6.16657
C -1.18965 -6.30414 6.72746
C -1.63202 -7.16522 7.906
O -0.54741 -8.0041 8.33355
C -0.78006 -8.73239 9.45364
C 0.29889 -9.75325 9.72634
C 0.98959 -10.31508 8.47512
C 0.76689 -9.53891 7.19267
O 1.4908 -9.57396 6.20814
O -2.43576 -4.30292 1.2176
O -0.54219 -9.75674 6.82809
O -1.8637 -8.76547 10.02385
C -1.10232 -9.67855 5.56394
C 1.50405 -9.1323 10.46145
C 2.26588 -10.22688 11.2065
C 2.87809 -10.98016 10.04448
C 2.45891 -10.07199 8.88122
O 2.40809 -8.78558 9.44502
H -0.13436 -10.53801 10.3877
H 0.78391 -11.39179 8.28265
H 1.21943 -8.31645 11.16182
H 3.08103 -9.72175 11.7729
H 1.66501 -10.84523 11.9076
H 3.98323 -10.9845 10.17353
H 2.50474 -12.01722 9.89945
H 3.16434 -10.19827 8.03035
O -1.26227 -4.57009 4.46071
C -2.24131 -3.04787 0.67981
C -4.82544 -6.44907 2.89266
C -4.96895 -7.95228 2.68974
C -4.24843 -8.46372 3.91421
C -3.92951 -7.14144 4.63025
O -5.00271 -6.30416 4.27817
H -2.93006 -6.61228 1.82608
H -1.85967 -7.14782 3.8242
H -1.83294 -2.36094 1.45178
H -5.5485 -5.90514 2.24543
H -6.05156 -8.19617 2.78387
H -4.58736 -8.33605 1.71907
H -4.96589 -9.06837 4.51284
H -3.33714 -9.06038 3.69966
H -3.82666 -7.35153 5.71282
H -3.19983 -2.64572 0.28772
H -1.51491 -3.11858 -0.15556
H -1.95684 -8.98242 5.59699
H -1.48378 -10.67796 5.27304
H -0.38863 -9.32423 4.79065
H -1.96391 -6.48791 8.72477
H -2.48599 -7.80838 7.60345
H -0.41012 -5.57825 7.04508
H -0.73115 -6.98462 5.97702
$end

$opt
CONSTRAINT
tors           1           2           3           4     -79.170
tors           3           4           5           6    +144.887
tors           4           5           6           7     +91.110
tors           5           6           7           8    -153.568
tors           6           7           8           9    +171.143
tors           7           8           9          10    +174.340
tors           8           9          10          11    +170.700
tors           9          10          11          12     -30.734
tors          11          12          13          14    +158.069
ENDCONSTRAINT
$end

$rem
JOBTYPE                   OPT
METHOD                    B3LYP
DFT_D                     d3_op
BASIS                     STO-3G
GEOM_OPT_MAX_CYCLES       100
GEOM_OPT_TOL_GRADIENT     300
GEOM_OPT_TOL_DISPLACEMENT 1200
GEOM_OPT_TOL_ENERGY       100
SYMMETRY                  False
THRESH                    12
SCF_CONVERGENCE           8
MAX_SUB_FILE_NUM          128
MEM_STATIC                400
MEM_TOTAL                 4000
$end
--------------------------------------------------------------

   16   -1510.0770473581      3.40E-09 Convergence criterion met
 Total energy in the final basis set = -1510.07704736
   15   -1510.1515403820      1.78E-09 Convergence criterion met
 Total energy in the final basis set = -1510.15154038
   15   -1510.1918615767      2.87E-09 Convergence criterion met
 Total energy in the final basis set = -1510.19186158
   15   -1510.2191767198      2.30E-09 Convergence criterion met
 Total energy in the final basis set = -1510.21917672
   13   -1510.2331409677      8.31E-09 Convergence criterion met
 Total energy in the final basis set = -1510.23314097
   14   -1510.2416990358      3.61E-09 Convergence criterion met
 Total energy in the final basis set = -1510.24169904
   13   -1510.2474010652      7.81E-09 Convergence criterion met
 Total energy in the final basis set = -1510.24740107
   12   -1510.2512498792      9.60E-09 Convergence criterion met
   11   -1510.2597478108      8.69E-09 Convergence criterion met
 Total energy in the final basis set = -1510.25974781
   11   -1510.2597956883      4.66E-09 Convergence criterion met
 Total energy in the final basis set = -1510.25979569
   10   -1510.2598292667      9.86E-09 Convergence criterion met
 Total energy in the final basis set = -1510.25982927
   11   -1510.2598444790      4.41E-09 Convergence criterion met
 Total energy in the final basis set = -1510.25984448
   10   -1510.2598506445      8.80E-09 Convergence criterion met
 Total energy in the final basis set = -1510.25985064
    9   -1510.2598526256      5.92E-09 Convergence criterion met
 Total energy in the final basis set = -1510.25985263

             Standard Nuclear Orientation (Angstroms)
    I     Atom           X                Y                Z
 ----------------------------------------------------------------
    1      O      -5.5979226373     0.9726792526     1.0704614126
    2      C      -5.1189017337     1.0512534287    -0.0809061490
    3      C      -4.2736700340    -0.0306973784    -0.8440213637
    4      C      -2.7504879990    -0.0833720136    -0.4060019240
    5      C      -2.3596505188     0.9852937680     0.6903993279
    6      O      -1.3615993118     0.5034089674     1.6406936754
    7      C      -0.0175461785     0.8529973187     1.1247273439
    8      C       0.9934060587    -0.1886021299     1.7123629143
    9      O       2.2713673849     0.0589421940     1.0078923248
   10      C       3.3222781539    -0.7528891604     1.5550168149
   11      C       4.5728975937    -0.6184999480     0.6155582822
   12      C       4.1843359362    -0.3679283680    -0.8940501316
   13      C       2.7522615346    -0.8405275276    -1.3213708524
   14      O       2.0938505097    -0.4260481352    -2.3010549800
   15      O      -5.3040412763     2.1678314487    -0.9603363795
   16      O       2.4207156420    -2.0402301744    -0.5943405524
   17      O       3.2171162748    -1.4259382607     2.6012331357
   18      C       1.1486550009    -2.6072624212    -1.0968776423
   19      C       5.2707263703     0.7785217423     0.9393512781
   20      C       6.5980972793     0.9255848939     0.0916917654
   21      C       6.0256934529     1.3311693379    -1.3188236304
   22      C       4.4773918041     1.1840369328    -1.0560396031
   23      O       4.3311612996     1.7371861021     0.3108001331
   24      H       5.2376395812    -1.4867028545     0.7617902939
   25      H       4.8789861371    -0.9351824624    -1.5437085729
   26      H       5.3784968499     0.9929035681     2.0205408084
   27      H       7.2406788438     1.7146368366     0.5130113749
   28      H       7.1704127121    -0.0156207316     0.0628630910
   29      H       6.2735877168     2.3757345231    -1.5668689714
   30      H       6.3814483319     0.6781807050    -2.1317266790
   31      H       3.8098292028     1.7067180924    -1.7684975584
   32      O      -2.9197773713     2.0916304405     0.8301606152
   33      C      -6.0269119229     3.2474509953    -0.2503953870
   34      C      -4.7351794926    -1.5029474984    -0.4646848490
   35      C      -4.1445262314    -2.5046870023    -1.5344356852
   36      C      -2.6305749459    -2.5493973214    -1.1060056258
   37      C      -2.6369505156    -1.5696830212     0.1333097891
   38      O      -3.9573461922    -1.8053409317     0.7588727248
   39      H      -4.3639355615     0.1646418787    -1.9268672850
   40      H      -2.0860830364     0.0746830222    -1.2764223984
   41      H      -5.4606020056     3.5906291258     0.6393110744
   42      H      -5.8196243748    -1.6050963639    -0.2662138368
   43      H      -4.6204589736    -3.4935415627    -1.4390773438
   44      H      -4.2847700975    -2.1424264115    -2.5655450855
   45      H      -2.3277984807    -3.5622613653    -0.7958199898
   46      H      -1.9524621003    -2.2065437197    -1.9037537058
   47      H      -1.8246184041    -1.7099286754     0.8719890534
   48      H      -7.0349394225     2.9190961539     0.0766218064
   49      H      -6.1241571936     4.0784502984    -0.9729175697
   50      H       0.3966345696    -2.6076056368    -0.2839198354
   51      H       1.3268866115    -3.6494331451    -1.4262814756
   52      H       0.7892288359    -1.9931699013    -1.9475556018
   53      H       1.1042546974    -0.0624132758     2.8108234373
   54      H       0.6335044187    -1.2223099248     1.5198491626
   55      H       0.2744852730     1.8841759311     1.4274282249
   56      H       0.0345233501     0.7940580773     0.0145614278
 ----------------------------------------------------------------

    9   -1510.2598533321      2.90E-09 Convergence criterion met
 Total energy in the final basis set = -1510.25985333
 Final energy is   -1510.25985333207
 **  OPTIMIZATION CONVERGED  **

                    Orbital Energies (a.u.)
 --------------------------------------------------------------

 Alpha MOs
 -- Occupied --
-18.936 -18.935 -18.925 -18.915 -18.909 -18.892 -18.889 -18.881
-18.879 -18.864 -10.115 -10.108 -10.104 -10.091 -10.078 -10.076
-10.065 -10.064 -10.064 -10.062 -10.060 -10.055 -10.044 -10.042
-10.041 -10.036 -10.025 -10.024 -10.024 -10.022  -1.021  -1.015
 -1.010  -1.000  -0.975  -0.972  -0.947  -0.942  -0.938  -0.927
 -0.770  -0.764  -0.732  -0.724  -0.713  -0.708  -0.701  -0.666
 -0.656  -0.611  -0.601  -0.586  -0.551  -0.548  -0.542  -0.540
 -0.520  -0.513  -0.493  -0.472  -0.468  -0.459  -0.455  -0.449
 -0.439  -0.436  -0.435  -0.417  -0.416  -0.411  -0.407  -0.404
 -0.401  -0.383  -0.375  -0.370  -0.362  -0.359  -0.356  -0.353
 -0.350  -0.343  -0.341  -0.336  -0.332  -0.330  -0.327  -0.317
 -0.312  -0.310  -0.309  -0.303  -0.296  -0.294  -0.284  -0.280
 -0.277  -0.255  -0.252  -0.250  -0.247  -0.238  -0.235  -0.185
 -0.174  -0.168  -0.168  -0.166  -0.164  -0.153  -0.148  -0.146
 -0.143

          Ground-State Mulliken Net Atomic Charges

     Atom                 Charge (a.u.)
  ----------------------------------------
      1 O                    -0.213711
      2 C                     0.210446
      3 C                    -0.080914
      4 C                    -0.082722
      5 C                     0.226837
      6 O                    -0.192876
      7 C                    -0.045832
      8 C                    -0.043933
      9 O                    -0.173110
     10 C                     0.218171
     11 C                    -0.077042
     12 C                    -0.076899
     13 C                     0.217601
     14 O                    -0.220552
     15 O                    -0.171058
     16 O                    -0.175181
     17 O                    -0.210182
     18 C                    -0.137440
     19 C                     0.024521
     20 C                    -0.144998
     21 C                    -0.141892
     22 C                     0.025432
     23 O                    -0.187995
     24 H                     0.088662
     25 H                     0.084818
     26 H                     0.083844
     27 H                     0.079242
     28 H                     0.074386
     29 H                     0.078994
     30 H                     0.073842
     31 H                     0.089581
     32 O                    -0.172139
     33 C                    -0.128309
     34 C                     0.025986
     35 C                    -0.143931
     36 C                    -0.145149
     37 C                     0.022489
     38 O                    -0.185873
     39 H                     0.085319
     40 H                     0.083530
     41 H                     0.093827
     42 H                     0.086290
     43 H                     0.078665
     44 H                     0.074021
     45 H                     0.077023
     46 H                     0.071652
     47 H                     0.086703
     48 H                     0.086662
     49 H                     0.087808
     50 H                     0.081244
     51 H                     0.086733
     52 H                     0.099614
     53 H                     0.095224
     54 H                     0.084016
     55 H                     0.087810
     56 H                     0.080745
  ----------------------------------------
  Sum of atomic charges =    -0.000000

                    Cartesian Multipole Moments
 -----------------------------------------------------------------
    Charge (ESU x 10^10)
                 0.0000
    Dipole Moment (Debye)
         X       2.5055      Y      -0.9623      Z      -3.6047
       Tot       4.4941
    Quadrupole Moments (Debye-Ang)
        XX    -148.8251     XY       0.2104     YY    -158.5536
        XZ       7.4367     YZ       5.4388     ZZ    -168.6488

 Total job time:  65.67s(wall), 3120.83s(cpu)
        *  Thank you very much for using Q-Chem.  Have a nice day.  *
