 Q-Chem 5.0, Q-Chem, Inc., Pleasanton, CA (2017)
 Q-Chem 5.0.1 for Intel X86 EM64T Linux

User input:
--------------------------------------------------------------
$molecule
0  1
O -5.5979226373 0.9726792526 1.0704614126
C -5.1189017337 1.0512534287 -0.080906149
C -4.273670034 -0.0306973784 -0.8440213637
C -2.750487999 -0.0833720136 -0.406001924
C -2.3596505188 0.985293768 0.6903993279
O -1.3615993118 0.5034089674 1.6406936754
C -0.0175461785 0.8529973187 1.1247273439
C 0.9934060587 -0.1886021299 1.7123629143
O 2.2713673849 0.058942194 1.0078923248
C 3.3222781539 -0.7528891604 1.5550168149
C 4.5728975937 -0.618499948 0.6155582822
C 4.1843359362 -0.367928368 -0.8940501316
C 2.7522615346 -0.8405275276 -1.3213708524
O 2.0938505097 -0.4260481352 -2.30105498
O -5.3040412763 2.1678314487 -0.9603363795
O 2.420715642 -2.0402301744 -0.5943405524
O 3.2171162748 -1.4259382607 2.6012331357
C 1.1486550009 -2.6072624212 -1.0968776423
C 5.2707263703 0.7785217423 0.9393512781
C 6.5980972793 0.9255848939 0.0916917654
C 6.0256934529 1.3311693379 -1.3188236304
C 4.4773918041 1.1840369328 -1.0560396031
O 4.3311612996 1.7371861021 0.3108001331
H 5.2376395812 -1.4867028545 0.7617902939
H 4.8789861371 -0.9351824624 -1.5437085729
H 5.3784968499 0.9929035681 2.0205408084
H 7.2406788438 1.7146368366 0.5130113749
H 7.1704127121 -0.0156207316 0.062863091
H 6.2735877168 2.3757345231 -1.5668689714
H 6.3814483319 0.678180705 -2.131726679
H 3.8098292028 1.7067180924 -1.7684975584
O -2.9197773713 2.0916304405 0.8301606152
C -6.0269119229 3.2474509953 -0.250395387
C -4.7351794926 -1.5029474984 -0.464684849
C -4.1445262314 -2.5046870023 -1.5344356852
C -2.6305749459 -2.5493973214 -1.1060056258
C -2.6369505156 -1.5696830212 0.1333097891
O -3.9573461922 -1.8053409317 0.7588727248
H -4.3639355615 0.1646418787 -1.926867285
H -2.0860830364 0.0746830222 -1.2764223984
H -5.4606020056 3.5906291258 0.6393110744
H -5.8196243748 -1.6050963639 -0.2662138368
H -4.6204589736 -3.4935415627 -1.4390773438
H -4.2847700975 -2.1424264115 -2.5655450855
H -2.3277984807 -3.5622613653 -0.7958199898
H -1.9524621003 -2.2065437197 -1.9037537058
H -1.8246184041 -1.7099286754 0.8719890534
H -7.0349394225 2.9190961539 0.0766218064
H -6.1241571936 4.0784502984 -0.9729175697
H 0.3966345696 -2.6076056368 -0.2839198354
H 1.3268866115 -3.6494331451 -1.4262814756
H 0.7892288359 -1.9931699013 -1.9475556018
H 1.1042546974 -0.0624132758 2.8108234373
H 0.6335044187 -1.2223099248 1.5198491626
H 0.274485273 1.8841759311 1.4274282249
H 0.0345233501 0.7940580773 0.0145614278
$end

$rem
JOBTYPE                   OPT
METHOD                    B3LYP
DFT_D                     d3_op
BASIS                     STO-3G
GEOM_OPT_MAX_CYCLES       100
GEOM_OPT_TOL_GRADIENT     300
GEOM_OPT_TOL_DISPLACEMENT 1200
GEOM_OPT_TOL_ENERGY       100
SYMMETRY                  False
THRESH                    12
SCF_CONVERGENCE           8
MAX_SUB_FILE_NUM          128
MEM_STATIC                400
MEM_TOTAL                 4000
$end
--------------------------------------------------------------

   16   -1510.2596820573      6.19E-09 Convergence criterion met
 Total energy in the final basis set = -1510.25968206
   13   -1510.2621214211      5.13E-09 Convergence criterion met
 Total energy in the final basis set = -1510.26212142
   14   -1510.2631693575      6.65E-09 Convergence criterion met
 Total energy in the final basis set = -1510.26316936
   13   -1510.2652653498      6.00E-09 Convergence criterion met
 Total energy in the final basis set = -1510.26526535
   13   -1510.2672603344      4.05E-09 Convergence criterion met
 Total energy in the final basis set = -1510.26726033
   13   -1510.2690702293      8.44E-09 Convergence criterion met
 Total energy in the final basis set = -1510.26907023
   14   -1510.2709975469      1.94E-09 Convergence criterion met
 Total energy in the final basis set = -1510.27099755
   13   -1510.2727499815      9.24E-09 Convergence criterion met
   13   -1510.2891088940      2.43E-09 Convergence criterion met
 Total energy in the final basis set = -1510.28910889
   11   -1510.2891913203      9.53E-09 Convergence criterion met
 Total energy in the final basis set = -1510.28919132
   10   -1510.2891968442      9.16E-09 Convergence criterion met
 Total energy in the final basis set = -1510.28919684
   10   -1510.2892038754      6.52E-09 Convergence criterion met
 Total energy in the final basis set = -1510.28920388
   11   -1510.2892069108      4.98E-09 Convergence criterion met
 Total energy in the final basis set = -1510.28920691
   10   -1510.2892095612      6.93E-09 Convergence criterion met
 Total energy in the final basis set = -1510.28920956

             Standard Nuclear Orientation (Angstroms)
    I     Atom           X                Y                Z
 ----------------------------------------------------------------
    1      O      -5.3748761685    -1.2906557889     0.5027641880
    2      C      -4.8760558918    -0.1990193958     0.1581465652
    3      C      -3.9052850592     0.0659393191    -1.0533005196
    4      C      -2.4264373687     0.4669093888    -0.6520439510
    5      C      -2.1967156299     0.4195791851     0.8987014344
    6      O      -0.9508311803     0.9181220652     1.4382068815
    7      C      -0.1599153767     1.7792845902     0.5275022318
    8      C       1.2121374542     2.0591642215     1.2317444663
    9      O       2.1927922908     1.1150768503     0.6506834169
   10      C       3.3013828352     0.8893744152     1.5328844214
   11      C       4.3015008669    -0.0554630198     0.7863522798
   12      C       3.6107312980    -1.3164955845     0.1154685066
   13      C       2.0645077805    -1.4028407888     0.3835075980
   14      O       1.1558988898    -1.4165338657    -0.4782480112
   15      O      -5.2359623143     1.0748188251     0.7180545259
   16      O       1.8748745876    -1.5376911576     1.7870966722
   17      O       3.4189186332     1.4045106094     2.6642499289
   18      C       0.4302768199    -1.6037463774     2.1219448748
   19      C       4.8961352207     0.6652650054    -0.5047235728
   20      C       6.1423951813    -0.1639594262    -1.0120294608
   21      C       5.4343509818    -1.3992576544    -1.6833965117
   22      C       3.9162161060    -1.0596461508    -1.4163420315
   23      O       3.8656404171     0.4171263595    -1.5359761462
   24      H       5.0939309726    -0.3478465324     1.4969277509
   25      H       4.0785222247    -2.2511945658     0.4747262995
   26      H       5.0715162283     1.7519925731    -0.3833802501
   27      H       6.7192438885     0.4206047539    -1.7463297782
   28      H       6.8119854531    -0.4526202725    -0.1861030813
   29      H       5.6369190790    -1.4426833105    -2.7653173045
   30      H       5.7303234504    -2.3578619659    -1.2283662197
   31      H       3.1840980062    -1.5266662827    -2.1035341608
   32      O      -2.9717804649    -0.1238173536     1.7166285817
   33      C      -6.1207523933     0.8719029141     1.8857648711
   34      C      -3.6476711904    -1.2620482631    -1.8788187133
   35      C      -3.0676894463    -0.8720562119    -3.2936207730
   36      C      -1.6026717188    -0.4422412434    -2.9098271647
   37      C      -1.5962382116    -0.7073829569    -1.3526557134
   38      O      -2.4887239513    -1.8741990481    -1.1897844581
   39      H      -4.3541773955     0.8583042737    -1.6790573077
   40      H      -2.1655175853     1.4590344559    -1.0554887202
   41      H      -5.5969264329     0.3238846343     2.6958038212
   42      H      -4.5070316028    -1.9603407973    -1.8820295933
   43      H      -3.0686458060    -1.7471022210    -3.9627914211
   44      H      -3.6396484185    -0.0610982294    -3.7722800867
   45      H      -0.8501979505    -1.0751056732    -3.4063570994
   46      H      -1.3911297697     0.6112902668    -3.1537546639
   47      H      -0.5931545588    -0.9258087707    -0.9134940330
   48      H      -7.0367730848     0.3081978433     1.6141068286
   49      H      -6.3986872733     1.8812032462     2.2415535960
   50      H      -0.0673407243    -0.6224535703     1.9337814635
   51      H       0.3823791306    -1.8520673492     3.1973198776
   52      H      -0.0828192649    -2.3925016675     1.5361246081
   53      H       1.5356858120     3.1046418927     1.0330693125
   54      H       1.1251694200     1.9228166188     2.3317777477
   55      H      -0.6975314243     2.7347977480     0.3427358073
   56      H       0.0449233345     1.2862385682    -0.4464314320
 ----------------------------------------------------------------

    9   -1510.2892088833      9.32E-09 Convergence criterion met
 Total energy in the final basis set = -1510.28920888
 Final energy is   -1510.28920888326
 **  OPTIMIZATION CONVERGED  **

                    Orbital Energies (a.u.)
 --------------------------------------------------------------

 Alpha MOs
 -- Occupied --
-18.949 -18.940 -18.933 -18.915 -18.894 -18.891 -18.884 -18.879
-18.876 -18.858 -10.112 -10.106 -10.106 -10.090 -10.087 -10.085
-10.065 -10.061 -10.051 -10.051 -10.045 -10.043 -10.042 -10.040
-10.039 -10.030 -10.024 -10.023 -10.015 -10.013  -1.023  -1.018
 -1.009  -0.994  -0.974  -0.963  -0.952  -0.943  -0.937  -0.921
 -0.768  -0.758  -0.734  -0.719  -0.717  -0.706  -0.699  -0.655
 -0.651  -0.615  -0.598  -0.590  -0.549  -0.541  -0.540  -0.533
 -0.523  -0.511  -0.493  -0.487  -0.466  -0.457  -0.452  -0.445
 -0.435  -0.430  -0.425  -0.419  -0.409  -0.408  -0.403  -0.400
 -0.397  -0.390  -0.380  -0.371  -0.363  -0.358  -0.352  -0.347
 -0.344  -0.342  -0.337  -0.332  -0.326  -0.323  -0.319  -0.314
 -0.312  -0.309  -0.300  -0.299  -0.297  -0.293  -0.276  -0.274
 -0.269  -0.259  -0.255  -0.247  -0.241  -0.238  -0.227  -0.191
 -0.184  -0.172  -0.163  -0.162  -0.158  -0.154  -0.148  -0.139
 -0.137

          Ground-State Mulliken Net Atomic Charges

     Atom                 Charge (a.u.)
  ----------------------------------------
      1 O                    -0.215983
      2 C                     0.216144
      3 C                    -0.080671
      4 C                    -0.085965
      5 C                     0.217863
      6 O                    -0.171016
      7 C                    -0.047092
      8 C                    -0.047034
      9 O                    -0.172811
     10 C                     0.213294
     11 C                    -0.078357
     12 C                    -0.078066
     13 C                     0.222790
     14 O                    -0.222909
     15 O                    -0.179329
     16 O                    -0.173578
     17 O                    -0.208718
     18 C                    -0.147542
     19 C                     0.025725
     20 C                    -0.143746
     21 C                    -0.143869
     22 C                     0.024416
     23 O                    -0.188008
     24 H                     0.087221
     25 H                     0.086030
     26 H                     0.081630
     27 H                     0.078430
     28 H                     0.074732
     29 H                     0.078438
     30 H                     0.074189
     31 H                     0.089834
     32 O                    -0.187606
     33 C                    -0.128740
     34 C                     0.024993
     35 C                    -0.144520
     36 C                    -0.144484
     37 C                     0.006603
     38 O                    -0.190238
     39 H                     0.081928
     40 H                     0.079317
     41 H                     0.092071
     42 H                     0.088698
     43 H                     0.077190
     44 H                     0.071159
     45 H                     0.079316
     46 H                     0.068666
     47 H                     0.109488
     48 H                     0.086326
     49 H                     0.085137
     50 H                     0.104933
     51 H                     0.087269
     52 H                     0.086967
     53 H                     0.087640
     54 H                     0.105292
     55 H                     0.086060
     56 H                     0.100490
  ----------------------------------------
  Sum of atomic charges =    -0.000000

                    Cartesian Multipole Moments
 -----------------------------------------------------------------
    Charge (ESU x 10^10)
                -0.0000
    Dipole Moment (Debye)
         X       2.4376      Y       2.3329      Z      -2.0857
       Tot       3.9667
    Quadrupole Moments (Debye-Ang)
        XX    -152.3965     XY     -13.7873     YY    -158.2719
        XZ       0.5529     YZ      -0.0339     ZZ    -163.6616

 Total job time:  139.37s(wall), 6644.08s(cpu)
        *  Thank you very much for using Q-Chem.  Have a nice day.  *
