 Q-Chem 5.0, Q-Chem, Inc., Pleasanton, CA (2017)
 Q-Chem 5.0.1 for Intel X86 EM64T Linux

User input:
--------------------------------------------------------------
$molecule
0  1
O -3.94934 -3.66094 2.70899
C -3.26408 -4.56952 2.26188
C -3.36658 -6.02376 2.66595
C -4.70706 -6.73157 2.4091
C -5.7368 -5.95835 1.61546
O -6.45001 -6.81289 0.82393
C -7.71593 -6.28121 0.41891
C -8.83896 -7.22905 0.82699
O -10.10855 -6.57191 0.6885
C -11.19541 -7.34661 0.9288
C -12.44948 -6.54144 1.17301
C -12.45267 -5.72719 2.47503
C -11.10587 -5.55017 3.14697
O -10.76898 -4.58385 3.81578
O -2.35039 -4.26065 1.3022
O -10.47081 -6.71544 3.45083
O -11.18296 -8.57051 0.89484
C -9.41061 -6.82678 4.33149
C -12.71567 -5.44427 0.1283
C -14.20536 -5.10828 0.10645
C -14.35454 -4.40046 1.43843
C -12.89159 -4.3639 1.89835
O -12.15914 -4.28509 0.69804
H -13.29541 -7.26671 1.1715
H -13.15438 -6.12683 3.2399
H -12.35986 -5.71329 -0.89025
H -14.35816 -4.36633 -0.70997
H -14.88833 -5.97066 -0.05089
H -14.73445 -3.37232 1.24696
H -15.00204 -4.915 2.18116
H -12.74094 -3.52732 2.61529
O -6.12809 -4.85543 1.97744
C -2.14295 -2.99332 0.79884
C -2.3968 -6.9638 1.91367
C -2.12257 -8.21034 2.75176
C -3.44672 -8.92659 2.62881
C -4.18285 -7.98953 1.66464
O -3.16231 -7.47014 0.84946
H -3.10666 -6.03673 3.74833
H -5.21051 -7.00339 3.36366
H -1.82615 -2.30546 1.61167
H -1.42791 -6.49225 1.64181
H -1.34779 -8.80524 2.2165
H -1.7812 -8.01525 3.79115
H -3.2659 -9.91368 2.14718
H -4.0034 -9.06698 3.58056
H -4.96787 -8.57785 1.14476
H -3.0734 -2.61314 0.32535
H -1.34262 -3.03329 0.03182
H -9.08768 -7.88686 4.3811
H -9.72045 -6.50238 5.34774
H -8.55618 -6.20617 3.98479
H -8.77135 -8.14485 0.19784
H -8.69179 -7.52297 1.88233
H -7.7352 -6.15169 -0.68412
H -7.97894 -5.29101 0.84992
$end

$opt
CONSTRAINT
tors           1           2           3           4     +61.161
tors           3           4           5           6    +144.887
tors           4           5           6           7    +158.888
tors           5           6           7           8    -124.007
tors           6           7           8           9    +167.448
tors           7           8           9          10    +175.356
tors           8           9          10          11    +162.930
tors           9          10          11          12     -67.825
tors          11          12          13          14    +149.162
ENDCONSTRAINT
$end

$rem
JOBTYPE                   OPT
METHOD                    B3LYP
DFT_D                     d3_op
BASIS                     STO-3G
GEOM_OPT_MAX_CYCLES       100
GEOM_OPT_TOL_GRADIENT     300
GEOM_OPT_TOL_DISPLACEMENT 1200
GEOM_OPT_TOL_ENERGY       100
SYMMETRY                  False
THRESH                    12
SCF_CONVERGENCE           8
MAX_SUB_FILE_NUM          128
MEM_STATIC                400
MEM_TOTAL                 4000
$end
--------------------------------------------------------------

   15   -1510.1368077588      6.78E-09 Convergence criterion met
 Total energy in the final basis set = -1510.13680776
   14   -1510.2072729627      5.20E-09 Convergence criterion met
 Total energy in the final basis set = -1510.20727296
   14   -1510.2452965438      7.51E-09 Convergence criterion met
 Total energy in the final basis set = -1510.24529654
   13   -1510.2623112066      6.63E-09 Convergence criterion met
 Total energy in the final basis set = -1510.26231121
   13   -1510.2681875808      5.10E-09 Convergence criterion met
 Total energy in the final basis set = -1510.26818758
   13   -1510.2701404958      7.33E-09 Convergence criterion met
 Total energy in the final basis set = -1510.27014050
   12   -1510.2708039006      6.62E-09 Convergence criterion met
 Total energy in the final basis set = -1510.27080390
   12   -1510.2710798594      7.04E-09 Convergence criterion met
   10   -1510.2719786644      7.30E-09 Convergence criterion met
 Total energy in the final basis set = -1510.27197866
    9   -1510.2719803548      9.62E-09 Convergence criterion met
 Total energy in the final basis set = -1510.27198035
    9   -1510.2719819628      5.89E-09 Convergence criterion met
 Total energy in the final basis set = -1510.27198196
    9   -1510.2719840901      6.62E-09 Convergence criterion met
 Total energy in the final basis set = -1510.27198409
    9   -1510.2719861305      9.94E-09 Convergence criterion met
 Total energy in the final basis set = -1510.27198613
    9   -1510.2719878611      9.26E-09 Convergence criterion met
 Total energy in the final basis set = -1510.27198786

             Standard Nuclear Orientation (Angstroms)
    I     Atom           X                Y                Z
 ----------------------------------------------------------------
    1      O       3.7803788585    -2.5790604911    -1.0719674865
    2      C       4.4971876270    -1.7601846994    -0.4580932586
    3      C       4.5668618494    -0.2082323694    -0.6981762202
    4      C       3.2146198755     0.5958698402    -0.4669573761
    5      C       2.0771069484    -0.1757280515     0.3046552966
    6      O       1.3620254578     0.7645494464     1.1243677838
    7      C       0.0158653064     0.2443300772     1.4674002372
    8      C      -1.0416645616     1.2997982517     0.9998651082
    9      O      -2.3651588983     0.6352680314     1.0681476483
   10      C      -3.4029070764     1.5778112658     0.7557851791
   11      C      -4.7116108283     0.7864363405     0.4060087852
   12      C      -4.6632011043    -0.0532417882    -0.9395467070
   13      C      -3.3438107132     0.0118467230    -1.7864330039
   14      O      -2.8857946957    -0.8988945283    -2.5091035778
   15      O       5.3798165903    -2.1247353670     0.6102206281
   16      O      -2.7779489304     1.3256763105    -1.7137005672
   17      O      -3.2645715170     2.8192872646     0.7930849060
   18      C      -1.6001120991     1.4163019630    -2.6086777188
   19      C      -5.0022402242    -0.3762523122     1.4550550569
   20      C      -6.5089926597    -0.8274302819     1.2996603052
   21      C      -6.4415355521    -1.6670818155    -0.0299501699
   22      C      -4.9136812243    -1.5235899077    -0.3993151431
   23      O      -4.2379202598    -1.5243583250     0.9183009817
   24      H      -5.5361000424     1.5204768456     0.3745473853
   25      H      -5.4860282636     0.2631072124    -1.6085740362
   26      H      -4.6837073874    -0.1485071865     2.4906018609
   27      H      -6.8137954532    -1.4499601501     2.1558659423
   28      H      -7.1940481218     0.0324079296     1.2270364268
   29      H      -6.6967446063    -2.7240181993     0.1468776900
   30      H      -7.1003904417    -1.2714950068    -0.8194774261
   31      H      -4.4965525810    -2.3127194901    -1.0553417468
   32      O       1.7406286451    -1.3729764882     0.1881216247
   33      C       5.2949533879    -3.5827740432     0.8546352876
   34      C       5.5682536306     0.5920785799     0.2390010586
   35      C       6.0111994061     1.8922936192    -0.5375439319
   36      C       4.6795888913     2.7302124155    -0.4896840522
   37      C       3.7608538624     1.8057437025     0.4042064503
   38      O       4.7086783764     1.1272305363     1.3198632400
   39      H       4.8657198189    -0.0829604497    -1.7559638727
   40      H       2.7844048568     0.9326272170    -1.4288374787
   41      H       5.6399088903    -4.1655066945    -0.0240772810
   42      H       6.3857914191    -0.0244449388     0.6577498723
   43      H       6.8255503234     2.4020068237     0.0019849987
   44      H       6.3464362510     1.6770636341    -1.5647028913
   45      H       4.8314075582     3.7077785902    -0.0054536160
   46      H       4.2469261036     2.8966420850    -1.4893170346
   47      H       2.9707801154     2.3261880312     0.9779188447
   48      H       4.2588585501    -3.8947583823     1.0979584190
   49      H       5.9572506631    -3.7861936069     1.7161810428
   50      H      -1.1846302123     2.4306242042    -2.4646299793
   51      H      -1.8889349577     1.2818035063    -3.6711261906
   52      H      -0.8342557881     0.6550461615    -2.3556012397
   53      H      -1.0108974127     2.2041983957     1.6452883670
   54      H      -0.8256893162     1.6163724456    -0.0424119820
   55      H      -0.0491753122     0.0915600754     2.5652184423
   56      H      -0.1439567697    -0.7330084473     0.9622163684
 ----------------------------------------------------------------

    9   -1510.2719885776      9.47E-09 Convergence criterion met
 Total energy in the final basis set = -1510.27198858
 Final energy is   -1510.27198857759
 **  OPTIMIZATION CONVERGED  **

                    Orbital Energies (a.u.)
 --------------------------------------------------------------

 Alpha MOs
 -- Occupied --
-18.943 -18.930 -18.930 -18.926 -18.887 -18.884 -18.882 -18.880
-18.871 -18.870 -10.104 -10.102 -10.098 -10.094 -10.071 -10.070
-10.068 -10.060 -10.059 -10.058 -10.056 -10.055 -10.041 -10.041
-10.036 -10.035 -10.020 -10.020 -10.019 -10.018  -1.019  -1.014
 -1.005  -1.004  -0.969  -0.968  -0.942  -0.940  -0.932  -0.929
 -0.764  -0.761  -0.727  -0.722  -0.713  -0.705  -0.693  -0.668
 -0.657  -0.614  -0.598  -0.577  -0.546  -0.543  -0.537  -0.536
 -0.518  -0.511  -0.487  -0.473  -0.465  -0.462  -0.456  -0.437
 -0.435  -0.432  -0.430  -0.418  -0.412  -0.408  -0.406  -0.403
 -0.394  -0.385  -0.375  -0.369  -0.361  -0.353  -0.352  -0.343
 -0.342  -0.340  -0.332  -0.330  -0.328  -0.328  -0.320  -0.312
 -0.310  -0.306  -0.306  -0.297  -0.293  -0.289  -0.279  -0.278
 -0.277  -0.257  -0.254  -0.247  -0.243  -0.234  -0.231  -0.184
 -0.177  -0.174  -0.171  -0.160  -0.159  -0.148  -0.144  -0.143
 -0.140

          Ground-State Mulliken Net Atomic Charges

     Atom                 Charge (a.u.)
  ----------------------------------------
      1 O                    -0.204967
      2 C                     0.208351
      3 C                    -0.080621
      4 C                    -0.075440
      5 C                     0.210113
      6 O                    -0.178017
      7 C                    -0.052712
      8 C                    -0.047762
      9 O                    -0.174401
     10 C                     0.214650
     11 C                    -0.079642
     12 C                    -0.078101
     13 C                     0.212521
     14 O                    -0.210185
     15 O                    -0.170568
     16 O                    -0.169904
     17 O                    -0.213068
     18 C                    -0.129057
     19 C                     0.026356
     20 C                    -0.144219
     21 C                    -0.143900
     22 C                     0.024422
     23 O                    -0.186279
     24 H                     0.083967
     25 H                     0.085467
     26 H                     0.083681
     27 H                     0.078024
     28 H                     0.073363
     29 H                     0.078614
     30 H                     0.072948
     31 H                     0.091005
     32 O                    -0.202906
     33 C                    -0.128109
     34 C                     0.022651
     35 C                    -0.143200
     36 C                    -0.145534
     37 C                     0.021958
     38 O                    -0.191076
     39 H                     0.081987
     40 H                     0.084245
     41 H                     0.087175
     42 H                     0.092539
     43 H                     0.077528
     44 H                     0.072350
     45 H                     0.077794
     46 H                     0.071590
     47 H                     0.093159
     48 H                     0.093435
     49 H                     0.089568
     50 H                     0.091906
     51 H                     0.090875
     52 H                     0.091185
     53 H                     0.090158
     54 H                     0.082870
     55 H                     0.087944
     56 H                     0.105270
  ----------------------------------------
  Sum of atomic charges =     0.000000

                    Cartesian Multipole Moments
 -----------------------------------------------------------------
    Charge (ESU x 10^10)
                 0.0000
    Dipole Moment (Debye)
         X      -0.3252      Y       1.4811      Z      -1.1640
       Tot       1.9116
    Quadrupole Moments (Debye-Ang)
        XX    -135.9249     XY       2.2682     YY    -165.5036
        XZ      -4.5041     YZ      -8.7053     ZZ    -158.4797

 Total job time:  64.13s(wall), 3051.09s(cpu)
        *  Thank you very much for using Q-Chem.  Have a nice day.  *
