 Q-Chem 5.0, Q-Chem, Inc., Pleasanton, CA (2017)
 Q-Chem 5.0.1 for Intel X86 EM64T Linux

User input:
--------------------------------------------------------------
$molecule
0  1
O 3.7803788585 -2.5790604911 -1.0719674865
C 4.497187627 -1.7601846994 -0.4580932586
C 4.5668618494 -0.2082323694 -0.6981762202
C 3.2146198755 0.5958698402 -0.4669573761
C 2.0771069484 -0.1757280515 0.3046552966
O 1.3620254578 0.7645494464 1.1243677838
C 0.0158653064 0.2443300772 1.4674002372
C -1.0416645616 1.2997982517 0.9998651082
O -2.3651588983 0.6352680314 1.0681476483
C -3.4029070764 1.5778112658 0.7557851791
C -4.7116108283 0.7864363405 0.4060087852
C -4.6632011043 -0.0532417882 -0.939546707
C -3.3438107132 0.011846723 -1.7864330039
O -2.8857946957 -0.8988945283 -2.5091035778
O 5.3798165903 -2.124735367 0.6102206281
O -2.7779489304 1.3256763105 -1.7137005672
O -3.264571517 2.8192872646 0.793084906
C -1.6001120991 1.416301963 -2.6086777188
C -5.0022402242 -0.3762523122 1.4550550569
C -6.5089926597 -0.8274302819 1.2996603052
C -6.4415355521 -1.6670818155 -0.0299501699
C -4.9136812243 -1.5235899077 -0.3993151431
O -4.2379202598 -1.524358325 0.9183009817
H -5.5361000424 1.5204768456 0.3745473853
H -5.4860282636 0.2631072124 -1.6085740362
H -4.6837073874 -0.1485071865 2.4906018609
H -6.8137954532 -1.4499601501 2.1558659423
H -7.1940481218 0.0324079296 1.2270364268
H -6.6967446063 -2.7240181993 0.14687769
H -7.1003904417 -1.2714950068 -0.8194774261
H -4.496552581 -2.3127194901 -1.0553417468
O 1.7406286451 -1.3729764882 0.1881216247
C 5.2949533879 -3.5827740432 0.8546352876
C 5.5682536306 0.5920785799 0.2390010586
C 6.0111994061 1.8922936192 -0.5375439319
C 4.6795888913 2.7302124155 -0.4896840522
C 3.7608538624 1.8057437025 0.4042064503
O 4.7086783764 1.1272305363 1.31986324
H 4.8657198189 -0.0829604497 -1.7559638727
H 2.7844048568 0.932627217 -1.4288374787
H 5.6399088903 -4.1655066945 -0.024077281
H 6.3857914191 -0.0244449388 0.6577498723
H 6.8255503234 2.4020068237 0.0019849987
H 6.346436251 1.6770636341 -1.5647028913
H 4.8314075582 3.7077785902 -0.005453616
H 4.2469261036 2.896642085 -1.4893170346
H 2.9707801154 2.3261880312 0.9779188447
H 4.2588585501 -3.8947583823 1.097958419
H 5.9572506631 -3.7861936069 1.7161810428
H -1.1846302123 2.4306242042 -2.4646299793
H -1.8889349577 1.2818035063 -3.6711261906
H -0.8342557881 0.6550461615 -2.3556012397
H -1.0108974127 2.2041983957 1.645288367
H -0.8256893162 1.6163724456 -0.042411982
H -0.0491753122 0.0915600754 2.5652184423
H -0.1439567697 -0.7330084473 0.9622163684
$end

$rem
JOBTYPE                   OPT
METHOD                    B3LYP
DFT_D                     d3_op
BASIS                     STO-3G
GEOM_OPT_MAX_CYCLES       100
GEOM_OPT_TOL_GRADIENT     300
GEOM_OPT_TOL_DISPLACEMENT 1200
GEOM_OPT_TOL_ENERGY       100
SYMMETRY                  False
THRESH                    12
SCF_CONVERGENCE           8
MAX_SUB_FILE_NUM          128
MEM_STATIC                400
MEM_TOTAL                 4000
$end
--------------------------------------------------------------

   16   -1510.2719870980      6.50E-09 Convergence criterion met
 Total energy in the final basis set = -1510.27198710
   15   -1510.2756540744      4.68E-09 Convergence criterion met
 Total energy in the final basis set = -1510.27565407
   14   -1510.2778758896      9.88E-09 Convergence criterion met
 Total energy in the final basis set = -1510.27787589
   15   -1510.2800514736      2.94E-09 Convergence criterion met
 Total energy in the final basis set = -1510.28005147
   14   -1510.2824398066      7.31E-09 Convergence criterion met
 Total energy in the final basis set = -1510.28243981
   15   -1510.2716496341      3.74E-09 Convergence criterion met
 Total energy in the final basis set = -1510.27164963
   15   -1510.2845417068      3.31E-09 Convergence criterion met
 Total energy in the final basis set = -1510.28454171
   14   -1510.2874793279      3.35E-09 Convergence criterion met
   13   -1510.2940108656      5.18E-09 Convergence criterion met
 Total energy in the final basis set = -1510.29401087
   13   -1510.2940664937      2.92E-09 Convergence criterion met
 Total energy in the final basis set = -1510.29406649
   12   -1510.2941154781      5.78E-09 Convergence criterion met
 Total energy in the final basis set = -1510.29411548
   11   -1510.2941282940      7.71E-09 Convergence criterion met
 Total energy in the final basis set = -1510.29412829
   10   -1510.2941337721      7.65E-09 Convergence criterion met
 Total energy in the final basis set = -1510.29413377
   10   -1510.2941314949      6.20E-09 Convergence criterion met
 Total energy in the final basis set = -1510.29413149

             Standard Nuclear Orientation (Angstroms)
    I     Atom           X                Y                Z
 ----------------------------------------------------------------
    1      O       2.5611836158    -0.3928036458    -2.6020061812
    2      C       3.2990468263    -0.4608092478    -1.5941059131
    3      C       4.1002114888     0.7345991860    -0.9508299655
    4      C       3.3192300896     1.4863584888     0.2059656388
    5      C       1.9252627388     0.8547257708     0.5155305753
    6      O       1.2239381031     1.6947109303     1.4309473541
    7      C      -0.1462127787     1.1694474889     1.6625972582
    8      C      -1.1508852447     1.8258665187     0.6504535512
    9      O      -2.3494587675     0.9557208436     0.6429912364
   10      C      -3.2775325539     1.3971514367    -0.3588184720
   11      C      -4.4562405821     0.3699710715    -0.3985392595
   12      C      -3.9662002485    -1.1281618675    -0.5849117796
   13      C      -2.4066122737    -1.2827227424    -0.7329406793
   14      O      -1.6488309309    -2.0115772217    -0.0582603625
   15      O       3.6352303422    -1.6747089356    -0.9138585691
   16      O      -1.9918654101    -0.4751057813    -1.8387157879
   17      O      -3.1320147813     2.4332778493    -1.0409229170
   18      C      -0.5429535068    -0.6546949220    -2.0995097514
   19      C      -5.1936644557     0.2564724254     1.0088283787
   20      C      -6.5571904551    -0.5138776983     0.7929604644
   21      C      -6.0496755438    -1.9953620317     0.6321152669
   22      C      -4.4889186240    -1.7944173909     0.7526344388
   23      O      -4.3587429981    -0.7098013370     1.7546096518
   24      H      -5.1491726986     0.6771930966    -1.2011073227
   25      H      -4.4390858175    -1.5815441538    -1.4757256159
   26      H      -5.2746691559     1.2112827109     1.5638662543
   27      H      -7.2051587659    -0.4015053882     1.6767266318
   28      H      -7.1013880501    -0.1500332892    -0.0930085154
   29      H      -6.4201870493    -2.6387894226     1.4458877384
   30      H      -6.3393738874    -2.4420658674    -0.3322751309
   31      H      -3.9058162558    -2.6818860142     1.0666492767
   32      O       1.4678579664    -0.2206429690     0.0592458447
   33      C       2.8189132586    -2.7895252987    -1.4429964570
   34      C       5.4058292526     0.2744332556    -0.1734088179
   35      C       6.3268503478     1.5407333880     0.0419814241
   36      C       5.5493322889     2.2924663399     1.1855455207
   37      C       4.3342051410     1.3117469910     1.4208725009
   38      O       4.9108456239    -0.0292947585     1.1900139361
   39      H       4.3408780671     1.4395407706    -1.7662759057
   40      H       3.1649753183     2.5549776470    -0.0290401637
   41      H       2.9039534400    -2.8741248240    -2.5456118697
   42      H       5.9088121278    -0.6109907067    -0.6068031206
   43      H       7.3324706051     1.2341526174     0.3712015713
   44      H       6.4225829235     2.1432927150    -0.8753089037
   45      H       6.1566168421     2.3787629430     2.1005294541
   46      H       5.2166742260     3.2988743178     0.8849898576
   47      H       3.8618362739     1.3714455539     2.4207995282
   48      H       1.7499436874    -2.6582970635    -1.1771255235
   49      H       3.2076584854    -3.7079365299    -0.9661055955
   50      H      -0.2718790138     0.1022449757    -2.8576405626
   51      H      -0.3373782987    -1.6640007235    -2.5100060572
   52      H       0.0785439539    -0.5114920812    -1.1863155293
   53      H      -1.4068460286     2.8638718193     0.9545588577
   54      H      -0.6959906233     1.8683808902    -0.3636058899
   55      H      -0.4127411786     1.4239360271     2.7071995692
   56      H      -0.1657566718     0.0669420139     1.5224181800
 ----------------------------------------------------------------

   10   -1510.2941320776      4.99E-09 Convergence criterion met
 Total energy in the final basis set = -1510.29413208
 Final energy is   -1510.29413207757
 **  OPTIMIZATION CONVERGED  **

                    Orbital Energies (a.u.)
 --------------------------------------------------------------

 Alpha MOs
 -- Occupied --
-18.951 -18.932 -18.922 -18.921 -18.898 -18.890 -18.885 -18.874
-18.865 -18.858 -10.117 -10.098 -10.092 -10.091 -10.077 -10.075
-10.065 -10.060 -10.059 -10.054 -10.052 -10.045 -10.039 -10.036
-10.035 -10.032 -10.023 -10.021 -10.019 -10.017  -1.029  -1.012
 -0.999  -0.998  -0.972  -0.967  -0.953  -0.936  -0.926  -0.924
 -0.766  -0.761  -0.730  -0.723  -0.714  -0.704  -0.696  -0.652
 -0.648  -0.619  -0.596  -0.581  -0.548  -0.543  -0.539  -0.535
 -0.519  -0.509  -0.489  -0.474  -0.465  -0.462  -0.453  -0.437
 -0.435  -0.432  -0.427  -0.411  -0.408  -0.405  -0.400  -0.399
 -0.396  -0.378  -0.368  -0.367  -0.363  -0.356  -0.347  -0.346
 -0.341  -0.337  -0.335  -0.333  -0.329  -0.327  -0.324  -0.315
 -0.308  -0.306  -0.303  -0.301  -0.289  -0.288  -0.281  -0.278
 -0.271  -0.263  -0.250  -0.244  -0.241  -0.235  -0.232  -0.192
 -0.176  -0.172  -0.164  -0.164  -0.153  -0.148  -0.143  -0.141
 -0.140

          Ground-State Mulliken Net Atomic Charges

     Atom                 Charge (a.u.)
  ----------------------------------------
      1 O                    -0.225768
      2 C                     0.213448
      3 C                    -0.081565
      4 C                    -0.078430
      5 C                     0.219297
      6 O                    -0.168362
      7 C                    -0.051962
      8 C                    -0.047407
      9 O                    -0.170842
     10 C                     0.213621
     11 C                    -0.078870
     12 C                    -0.078285
     13 C                     0.212845
     14 O                    -0.215611
     15 O                    -0.168226
     16 O                    -0.178569
     17 O                    -0.211456
     18 C                    -0.141974
     19 C                     0.025787
     20 C                    -0.143929
     21 C                    -0.144014
     22 C                     0.024168
     23 O                    -0.187207
     24 H                     0.085295
     25 H                     0.083333
     26 H                     0.081266
     27 H                     0.077403
     28 H                     0.073623
     29 H                     0.077636
     30 H                     0.073138
     31 H                     0.090138
     32 O                    -0.205937
     33 C                    -0.128214
     34 C                     0.026561
     35 C                    -0.144327
     36 C                    -0.143517
     37 C                     0.026167
     38 O                    -0.185983
     39 H                     0.083116
     40 H                     0.088055
     41 H                     0.086387
     42 H                     0.089125
     43 H                     0.078379
     44 H                     0.073748
     45 H                     0.078955
     46 H                     0.074036
     47 H                     0.085818
     48 H                     0.094065
     49 H                     0.088502
     50 H                     0.088679
     51 H                     0.080596
     52 H                     0.105636
     53 H                     0.087606
     54 H                     0.089287
     55 H                     0.094455
     56 H                     0.110283
  ----------------------------------------
  Sum of atomic charges =     0.000000

                    Cartesian Multipole Moments
 -----------------------------------------------------------------
    Charge (ESU x 10^10)
                 0.0000
    Dipole Moment (Debye)
         X       0.2054      Y       1.1612      Z       0.0997
       Tot       1.1834
    Quadrupole Moments (Debye-Ang)
        XX    -139.3581     XY      11.0943     YY    -156.7377
        XZ      -1.9313     YZ       7.8932     ZZ    -164.6191

 Total job time:  99.89s(wall), 4731.47s(cpu)
        *  Thank you very much for using Q-Chem.  Have a nice day.  *
