 Q-Chem 5.0, Q-Chem, Inc., Pleasanton, CA (2017)
 Q-Chem 5.0.1 for Intel X86 EM64T Linux

User input:
--------------------------------------------------------------
$molecule
0  1
O -6.6628635089 -0.327999562 0.631198926
C -5.5496586307 0.0590804878 0.2109451113
C -4.6837523203 -0.6884606399 -0.8766042391
C -3.1815990248 -0.2281630559 -1.0163493471
C -2.8321482983 1.2867800388 -0.751303807
O -1.523016819 1.37773188 -0.1220133683
C -0.586513821 2.1049583466 -1.008618675
C 0.8427386354 1.8801246617 -0.3993111777
O 1.6877146 1.3098317616 -1.4800467231
C 3.0437005647 1.1947241977 -0.9771673458
C 3.494237146 -0.3243452879 -0.8679769371
C 4.3850163185 -0.5448186872 0.4205884941
C 5.1309220895 0.7351167694 0.9453423901
O 5.0283705238 1.2634367762 2.0731003817
O -4.8207139632 1.1349685791 0.7999486796
O 6.1311718037 1.0761193074 -0.0247403127
O 3.7035064467 2.1775761319 -0.5765764775
C 6.8419852836 2.3028151987 0.3975040126
C 2.2132435586 -1.1616241653 -0.4616759409
C 2.5656070866 -2.6912930029 -0.2932432148
C 3.2434117417 -2.705486916 1.128399831
C 3.3187359516 -1.1597495973 1.4260894054
O 2.0048460399 -0.6779783286 0.9287390769
H 3.986568242 -0.6677530457 -1.7959726614
H 5.1685990572 -1.2915124157 0.1959988974
H 1.3270767095 -0.9394845203 -1.0859057886
H 1.6495200669 -3.3023929991 -0.3138069098
H 3.2417453069 -3.0455882278 -1.0880869474
H 2.6040380769 -3.2084901766 1.8716974192
H 4.2343939749 -3.1866391011 1.1272070621
H 3.4664902979 -0.8668740451 2.4839464248
O -3.4453217266 2.2717199403 -1.2116084514
C -5.6041743418 1.7473225617 1.8962549353
C -4.4447287026 -2.138657438 -0.2633186906
C -3.6563843134 -3.0614667026 -1.27801202
C -2.1764375102 -2.5611208112 -1.073517969
C -2.4255048617 -1.3173342411 -0.1365239336
O -3.4539628293 -1.8298411703 0.798569696
H -5.2215797456 -0.7016450408 -1.8413982411
H -2.8824026187 -0.368894382 -2.0739903115
H -5.8826930098 0.9971062596 2.664116237
H -5.3576042565 -2.5881037017 0.1744096213
H -3.7707154353 -4.1224917241 -1.0060460107
H -4.0081266448 -2.9235565727 -2.3133232982
H -1.5662026469 -3.31634346 -0.5521266522
H -1.6777345081 -2.2923172962 -2.0183446484
H -1.5441225947 -0.9251787738 0.4071305723
H -6.5300687934 2.2246151535 1.5151129296
H -4.9481176419 2.5164705817 2.3434445353
H 7.6560576361 2.4550193899 -0.3347370839
H 7.2688053344 2.1999902533 1.4160925794
H 6.1629280432 3.1799599556 0.3840819463
H 1.2697162233 2.8327636644 -0.0165409929
H 0.7815843094 1.1530565332 0.4451664232
H -0.8329601629 3.1882970261 -1.0715824779
H -0.6014230795 1.6866407847 -2.0408234142
$end

$rem
JOBTYPE                   OPT
METHOD                    B3LYP
DFT_D                     d3_op
BASIS                     STO-3G
GEOM_OPT_MAX_CYCLES       100
GEOM_OPT_TOL_GRADIENT     300
GEOM_OPT_TOL_DISPLACEMENT 1200
GEOM_OPT_TOL_ENERGY       100
SYMMETRY                  False
THRESH                    12
SCF_CONVERGENCE           8
MAX_SUB_FILE_NUM          128
MEM_STATIC                400
MEM_TOTAL                 4000
$end
--------------------------------------------------------------

   16   -1510.2379482078      4.83E-09 Convergence criterion met
 Total energy in the final basis set = -1510.23794821
   14   -1510.2435340852      2.53E-09 Convergence criterion met
 Total energy in the final basis set = -1510.24353409
   14   -1510.2488613085      2.40E-09 Convergence criterion met
 Total energy in the final basis set = -1510.24886131
   14   -1510.2393949960      3.76E-09 Convergence criterion met
 Total energy in the final basis set = -1510.23939500
   14   -1510.2524504610      2.71E-09 Convergence criterion met
 Total energy in the final basis set = -1510.25245046
   14   -1510.2595798806      4.07E-09 Convergence criterion met
 Total energy in the final basis set = -1510.25957988
   14   -1510.2646023024      4.29E-09 Convergence criterion met
 Total energy in the final basis set = -1510.26460230
   14   -1510.2693172500      2.49E-09 Convergence criterion met
    9   -1510.3021805919      9.94E-09 Convergence criterion met
 Total energy in the final basis set = -1510.30218059
   11   -1510.3021797697      6.25E-09 Convergence criterion met
 Total energy in the final basis set = -1510.30217977
   10   -1510.3021799925      9.63E-09 Convergence criterion met
 Total energy in the final basis set = -1510.30217999
   11   -1510.3021776540      3.44E-09 Convergence criterion met
 Total energy in the final basis set = -1510.30217765
   10   -1510.3021765907      8.35E-09 Convergence criterion met
 Total energy in the final basis set = -1510.30217659
   10   -1510.3021763752      7.97E-09 Convergence criterion met
 Total energy in the final basis set = -1510.30217638

             Standard Nuclear Orientation (Angstroms)
    I     Atom           X                Y                Z
 ----------------------------------------------------------------
    1      O       3.1750364803     1.0225563447    -2.2769940825
    2      C       2.6022912552     0.2453712624    -1.4810461341
    3      C       3.3073486605    -0.6929552602    -0.4322908302
    4      C       3.1335938314    -0.2536713283     1.0812462869
    5      C       2.2886121191     1.0561393264     1.2627322737
    6      O       1.7734047098     1.0736486907     2.5963625303
    7      C       1.0089595732     2.3124752112     2.8721436125
    8      C      -0.2952442921     2.4568312107     2.0089583064
    9      O      -0.9640095064     1.1349762081     1.9116020701
   10      C      -1.4713294761     0.9464723137     0.5867354088
   11      C      -2.1722715001    -0.4424231069     0.4862638397
   12      C      -3.3367454165    -0.4614574449    -0.5925701314
   13      C      -3.5069024396     0.8920884453    -1.3742734478
   14      O      -3.2259255216     1.1206698469    -2.5694654309
   15      O       1.1992604462    -0.0043980717    -1.4351605677
   16      O      -4.1443325895     1.8343119404    -0.4977593267
   17      O      -1.3558092908     1.8011182651    -0.3253086530
   18      C      -4.2510751586     3.1466873338    -1.1723244017
   19      C      -1.2062290331    -1.5719747618    -0.1002432065
   20      C      -1.8761637727    -2.9703389778     0.2052086565
   21      C      -3.0430354836    -2.9987372043    -0.8510808897
   22      C      -2.8341095326    -1.6063454931    -1.5642115897
   23      O      -1.3649211691    -1.4287788643    -1.5621357462
   24      H      -2.5386258610    -0.7173229214     1.4909118121
   25      H      -4.3017217810    -0.7111551773    -0.1157410466
   26      H      -0.1262752040    -1.5063529738     0.1856357991
   27      H      -1.1517986225    -3.7812422345     0.0290676773
   28      H      -2.2387409309    -3.0428560584     1.2429306741
   29      H      -2.9185063351    -3.8235635885    -1.5704565356
   30      H      -4.0382885233    -3.0832231127    -0.3861796921
   31      H      -3.2314818744    -1.5261183450    -2.5945594871
   32      O       2.1080611434     1.9611902595     0.4192642714
   33      C       0.4758107521     0.8282790574    -2.4282305943
   34      C       2.6587226619    -2.1421536520    -0.3907723789
   35      C       3.6617102157    -3.1237182442     0.3327288145
   36      C       3.4942338079    -2.6834782639     1.8358169955
   37      C       2.4249284115    -1.5306931837     1.6996210429
   38      O       1.5624199153    -2.0064469228     0.5967145463
   39      H       4.3768729895    -0.7392427438    -0.7019135394
   40      H       4.1169970781    -0.0826915548     1.5578709740
   41      H       0.0811054725     0.1727119895    -3.2285942755
   42      H       2.2582216075    -2.4968121780    -1.3598928387
   43      H       3.3514831839    -4.1700109518     0.1831223605
   44      H       4.6936411829    -3.0040884536    -0.0334163342
   45      H       3.0973411531    -3.5038115591     2.4547981632
   46      H       4.4349593873    -2.3263671703     2.2839457842
   47      H       1.8223468066    -1.3171184543     2.6034339828
   48      H       1.1648212547     1.5815761094    -2.8579150857
   49      H      -0.3687051595     1.3108032928    -1.8909081298
   50      H      -4.7814036442     3.8136239796    -0.4678860622
   51      H      -4.8233097335     3.0759727460    -2.1199032972
   52      H      -3.2477963760     3.5640026635    -1.3963531355
   53      H      -0.9782854750     3.1831980948     2.5007407828
   54      H      -0.0622829792     2.8140142585     0.9836907337
   55      H       1.6399721482     3.2140685507     2.7085901057
   56      H       0.7512298781     2.2427953132     3.9479159707
 ----------------------------------------------------------------

    9   -1510.3021772505      3.72E-09 Convergence criterion met
 Total energy in the final basis set = -1510.30217725
 Final energy is   -1510.30217725053
 **  OPTIMIZATION CONVERGED  **

                    Orbital Energies (a.u.)
 --------------------------------------------------------------

 Alpha MOs
 -- Occupied --
-18.945 -18.940 -18.918 -18.910 -18.903 -18.887 -18.882 -18.872
-18.861 -18.853 -10.109 -10.104 -10.087 -10.084 -10.083 -10.071
-10.067 -10.065 -10.053 -10.046 -10.043 -10.034 -10.032 -10.030
-10.027 -10.025 -10.024 -10.021 -10.009 -10.005  -1.025  -1.015
 -0.997  -0.991  -0.979  -0.956  -0.948  -0.939  -0.923  -0.915
 -0.767  -0.753  -0.731  -0.719  -0.711  -0.704  -0.689  -0.652
 -0.636  -0.618  -0.594  -0.576  -0.550  -0.541  -0.534  -0.526
 -0.511  -0.502  -0.481  -0.467  -0.465  -0.453  -0.443  -0.442
 -0.436  -0.434  -0.420  -0.413  -0.405  -0.402  -0.399  -0.396
 -0.390  -0.380  -0.369  -0.365  -0.358  -0.349  -0.347  -0.343
 -0.339  -0.335  -0.333  -0.329  -0.325  -0.320  -0.318  -0.315
 -0.308  -0.301  -0.297  -0.293  -0.290  -0.284  -0.274  -0.273
 -0.268  -0.259  -0.249  -0.242  -0.236  -0.227  -0.215  -0.188
 -0.179  -0.165  -0.162  -0.161  -0.154  -0.149  -0.140  -0.137
 -0.130

          Ground-State Mulliken Net Atomic Charges

     Atom                 Charge (a.u.)
  ----------------------------------------
      1 O                    -0.219624
      2 C                     0.211660
      3 C                    -0.081097
      4 C                    -0.078226
      5 C                     0.213702
      6 O                    -0.169818
      7 C                    -0.046554
      8 C                    -0.058587
      9 O                    -0.169230
     10 C                     0.221219
     11 C                    -0.080307
     12 C                    -0.080683
     13 C                     0.213442
     14 O                    -0.214232
     15 O                    -0.175186
     16 O                    -0.177760
     17 O                    -0.213627
     18 C                    -0.129124
     19 C                     0.008850
     20 C                    -0.144472
     21 C                    -0.145260
     22 C                     0.024231
     23 O                    -0.191125
     24 H                     0.084807
     25 H                     0.082075
     26 H                     0.117001
     27 H                     0.075362
     28 H                     0.068717
     29 H                     0.074669
     30 H                     0.069767
     31 H                     0.084913
     32 O                    -0.205570
     33 C                    -0.142927
     34 C                     0.029193
     35 C                    -0.143800
     36 C                    -0.143454
     37 C                     0.025950
     38 O                    -0.187358
     39 H                     0.083980
     40 H                     0.086609
     41 H                     0.085579
     42 H                     0.091693
     43 H                     0.078974
     44 H                     0.075828
     45 H                     0.078991
     46 H                     0.074902
     47 H                     0.094006
     48 H                     0.091745
     49 H                     0.105931
     50 H                     0.085514
     51 H                     0.087132
     52 H                     0.091449
     53 H                     0.084830
     54 H                     0.112510
     55 H                     0.090912
     56 H                     0.091875
  ----------------------------------------
  Sum of atomic charges =    -0.000000

                    Cartesian Multipole Moments
 -----------------------------------------------------------------
    Charge (ESU x 10^10)
                -0.0000
    Dipole Moment (Debye)
         X       0.1905      Y      -1.1335      Z       4.2179
       Tot       4.3717
    Quadrupole Moments (Debye-Ang)
        XX    -149.9138     XY      -7.3412     YY    -150.3871
        XZ       5.6319     YZ       7.3704     ZZ    -162.3799

 Total job time:  283.55s(wall), 13516.85s(cpu)
        *  Thank you very much for using Q-Chem.  Have a nice day.  *
