 Q-Chem 5.0, Q-Chem, Inc., Pleasanton, CA (2017)
 Q-Chem 5.0.1 for Intel X86 EM64T Linux

User input:
--------------------------------------------------------------
$molecule
0  1
O -3.94934 -3.66094 2.70899
C -3.26408 -4.56952 2.26188
C -3.36658 -6.02376 2.66595
C -2.21592 -6.95267 2.24529
C -1.00731 -6.28975 1.62249
O 0.12814 -6.95116 1.99497
C 0.82101 -7.54554 0.8923
C 1.89476 -8.50217 1.40028
O 1.70572 -9.80252 0.82042
C 2.65954 -10.71883 1.12
C 2.13396 -11.865 1.95109
C 3.10311 -12.3853 3.02269
C 4.27694 -11.48296 3.34613
O 4.53153 -11.0187 4.44804
O -2.4266 -4.15066 1.28739
O 5.20324 -11.31948 2.36596
O 3.64557 -10.82774 0.40807
C 6.34859 -10.56056 2.49047
C 0.89527 -11.56073 2.8338
C 0.13923 -12.85757 3.11865
C 1.10236 -13.54648 4.06167
C 2.15258 -12.44349 4.23391
O 1.42455 -11.24741 4.09834
H 1.86133 -12.66426 1.22519
H 3.53042 -13.37752 2.75791
H 0.18909 -10.81892 2.40405
H -0.7756 -12.57823 3.6896
H -0.15678 -13.44968 2.22603
H 0.57267 -13.74624 5.01951
H 1.55907 -14.48316 3.67456
H 2.69424 -12.58089 5.19547
O -1.08693 -5.85589 0.47682
C -2.29535 -2.85477 0.82281
C -3.30621 -6.16912 4.20246
C -3.99852 -7.46142 4.62539
C -3.00092 -8.48155 4.13108
C -1.88053 -7.55551 3.64004
O -1.95836 -6.43851 4.48504
H -4.36627 -6.37238 2.32295
H -2.54136 -7.75505 1.5463
H -1.96887 -2.18373 1.64568
H -3.75377 -5.31059 4.74993
H -4.00245 -7.4783 5.73918
H -5.03756 -7.5939 4.25421
H -2.66233 -9.08796 5.00085
H -3.36314 -9.14993 3.32022
H -0.92857 -8.1262 3.67977
H -3.261 -2.49803 0.40454
H -1.5309 -2.83303 0.01955
H 6.91642 -10.60076 1.53848
H 6.98784 -10.95994 3.30647
H 6.08298 -9.50278 2.70329
H 2.9009 -8.09007 1.1618
H 1.81935 -8.60604 2.50643
H 1.25445 -6.78632 0.20307
H 0.08845 -8.15617 0.31217
$end

$opt
CONSTRAINT
tors           1           2           3           4    -166.043
tors           3           4           5           6    +144.887
tors           4           5           6           7    +116.681
tors           5           6           7           8    -168.028
tors           6           7           8           9    +124.964
tors           7           8           9          10    +175.356
tors           8           9          10          11    +114.380
tors           9          10          11          12    -142.515
tors          11          12          13          14    +121.116
ENDCONSTRAINT
$end

$rem
JOBTYPE                   OPT
METHOD                    B3LYP
DFT_D                     d3_op
BASIS                     STO-3G
GEOM_OPT_MAX_CYCLES       100
GEOM_OPT_TOL_GRADIENT     300
GEOM_OPT_TOL_DISPLACEMENT 1200
GEOM_OPT_TOL_ENERGY       100
SYMMETRY                  False
THRESH                    12
SCF_CONVERGENCE           8
MAX_SUB_FILE_NUM          128
MEM_STATIC                400
MEM_TOTAL                 4000
$end
--------------------------------------------------------------

   15   -1510.0679726142      7.31E-09 Convergence criterion met
 Total energy in the final basis set = -1510.06797261
   14   -1510.1448715562      5.75E-09 Convergence criterion met
 Total energy in the final basis set = -1510.14487156
   14   -1510.1860097767      6.53E-09 Convergence criterion met
 Total energy in the final basis set = -1510.18600978
   14   -1510.2078249518      8.39E-09 Convergence criterion met
 Total energy in the final basis set = -1510.20782495
   13   -1510.2186548438      8.26E-09 Convergence criterion met
 Total energy in the final basis set = -1510.21865484
   13   -1510.2241004062      5.49E-09 Convergence criterion met
 Total energy in the final basis set = -1510.22410041
   13   -1510.2270274256      2.63E-09 Convergence criterion met
 Total energy in the final basis set = -1510.22702743
   13   -1510.2285382917      3.16E-09 Convergence criterion met
    9   -1510.2379570083      5.42E-09 Convergence criterion met
 Total energy in the final basis set = -1510.23795701
    9   -1510.2379587759      4.64E-09 Convergence criterion met
 Total energy in the final basis set = -1510.23795878
    9   -1510.2379608014      3.49E-09 Convergence criterion met
 Total energy in the final basis set = -1510.23796080
    9   -1510.2379629119      4.41E-09 Convergence criterion met
 Total energy in the final basis set = -1510.23796291
    9   -1510.2379646832      3.33E-09 Convergence criterion met
 Total energy in the final basis set = -1510.23796468
    9   -1510.2379657276      3.19E-09 Convergence criterion met
 Total energy in the final basis set = -1510.23796573

             Standard Nuclear Orientation (Angstroms)
    I     Atom           X                Y                Z
 ----------------------------------------------------------------
    1      O      -6.6628635089    -0.3279995620     0.6311989260
    2      C      -5.5496586307     0.0590804878     0.2109451113
    3      C      -4.6837523203    -0.6884606399    -0.8766042391
    4      C      -3.1815990248    -0.2281630559    -1.0163493471
    5      C      -2.8321482983     1.2867800388    -0.7513038070
    6      O      -1.5230168190     1.3777318800    -0.1220133683
    7      C      -0.5865138210     2.1049583466    -1.0086186750
    8      C       0.8427386354     1.8801246617    -0.3993111777
    9      O       1.6877146000     1.3098317616    -1.4800467231
   10      C       3.0437005647     1.1947241977    -0.9771673458
   11      C       3.4942371460    -0.3243452879    -0.8679769371
   12      C       4.3850163185    -0.5448186872     0.4205884941
   13      C       5.1309220895     0.7351167694     0.9453423901
   14      O       5.0283705238     1.2634367762     2.0731003817
   15      O      -4.8207139632     1.1349685791     0.7999486796
   16      O       6.1311718037     1.0761193074    -0.0247403127
   17      O       3.7035064467     2.1775761319    -0.5765764775
   18      C       6.8419852836     2.3028151987     0.3975040126
   19      C       2.2132435586    -1.1616241653    -0.4616759409
   20      C       2.5656070866    -2.6912930029    -0.2932432148
   21      C       3.2434117417    -2.7054869160     1.1283998310
   22      C       3.3187359516    -1.1597495973     1.4260894054
   23      O       2.0048460399    -0.6779783286     0.9287390769
   24      H       3.9865682420    -0.6677530457    -1.7959726614
   25      H       5.1685990572    -1.2915124157     0.1959988974
   26      H       1.3270767095    -0.9394845203    -1.0859057886
   27      H       1.6495200669    -3.3023929991    -0.3138069098
   28      H       3.2417453069    -3.0455882278    -1.0880869474
   29      H       2.6040380769    -3.2084901766     1.8716974192
   30      H       4.2343939749    -3.1866391011     1.1272070621
   31      H       3.4664902979    -0.8668740451     2.4839464248
   32      O      -3.4453217266     2.2717199403    -1.2116084514
   33      C      -5.6041743418     1.7473225617     1.8962549353
   34      C      -4.4447287026    -2.1386574380    -0.2633186906
   35      C      -3.6563843134    -3.0614667026    -1.2780120200
   36      C      -2.1764375102    -2.5611208112    -1.0735179690
   37      C      -2.4255048617    -1.3173342411    -0.1365239336
   38      O      -3.4539628293    -1.8298411703     0.7985696960
   39      H      -5.2215797456    -0.7016450408    -1.8413982411
   40      H      -2.8824026187    -0.3688943820    -2.0739903115
   41      H      -5.8826930098     0.9971062596     2.6641162370
   42      H      -5.3576042565    -2.5881037017     0.1744096213
   43      H      -3.7707154353    -4.1224917241    -1.0060460107
   44      H      -4.0081266448    -2.9235565727    -2.3133232982
   45      H      -1.5662026469    -3.3163434600    -0.5521266522
   46      H      -1.6777345081    -2.2923172962    -2.0183446484
   47      H      -1.5441225947    -0.9251787738     0.4071305723
   48      H      -6.5300687934     2.2246151535     1.5151129296
   49      H      -4.9481176419     2.5164705817     2.3434445353
   50      H       7.6560576361     2.4550193899    -0.3347370839
   51      H       7.2688053344     2.1999902533     1.4160925794
   52      H       6.1629280432     3.1799599556     0.3840819463
   53      H       1.2697162233     2.8327636644    -0.0165409929
   54      H       0.7815843094     1.1530565332     0.4451664232
   55      H      -0.8329601629     3.1882970261    -1.0715824779
   56      H      -0.6014230795     1.6866407847    -2.0408234142
 ----------------------------------------------------------------

    9   -1510.2379660946      1.65E-09 Convergence criterion met
 Total energy in the final basis set = -1510.23796609
 Final energy is   -1510.23796609464
 **  OPTIMIZATION CONVERGED  **

                    Orbital Energies (a.u.)
 --------------------------------------------------------------

 Alpha MOs
 -- Occupied --
-18.936 -18.924 -18.911 -18.907 -18.906 -18.891 -18.887 -18.885
-18.868 -18.868 -10.112 -10.104 -10.097 -10.096 -10.073 -10.068
-10.063 -10.062 -10.062 -10.059 -10.056 -10.056 -10.043 -10.039
-10.037 -10.036 -10.025 -10.023 -10.022 -10.020  -1.017  -1.011
 -1.002  -1.001  -0.975  -0.969  -0.944  -0.934  -0.930  -0.929
 -0.766  -0.762  -0.727  -0.723  -0.713  -0.705  -0.694  -0.660
 -0.657  -0.608  -0.599  -0.579  -0.549  -0.544  -0.541  -0.538
 -0.517  -0.510  -0.485  -0.480  -0.466  -0.459  -0.458  -0.440
 -0.436  -0.434  -0.424  -0.412  -0.407  -0.407  -0.404  -0.396
 -0.395  -0.379  -0.375  -0.370  -0.367  -0.358  -0.351  -0.347
 -0.343  -0.343  -0.337  -0.335  -0.329  -0.329  -0.321  -0.315
 -0.310  -0.310  -0.308  -0.306  -0.298  -0.289  -0.281  -0.276
 -0.274  -0.252  -0.250  -0.248  -0.241  -0.236  -0.230  -0.175
 -0.172  -0.168  -0.164  -0.159  -0.154  -0.150  -0.149  -0.147
 -0.142

          Ground-State Mulliken Net Atomic Charges

     Atom                 Charge (a.u.)
  ----------------------------------------
      1 O                    -0.217634
      2 C                     0.212695
      3 C                    -0.076563
      4 C                    -0.080612
      5 C                     0.226102
      6 O                    -0.191851
      7 C                    -0.046554
      8 C                    -0.051896
      9 O                    -0.195550
     10 C                     0.223074
     11 C                    -0.076726
     12 C                    -0.082832
     13 C                     0.213229
     14 O                    -0.217043
     15 O                    -0.165104
     16 O                    -0.172845
     17 O                    -0.184776
     18 C                    -0.128069
     19 C                     0.021000
     20 C                    -0.145728
     21 C                    -0.141531
     22 C                     0.022122
     23 O                    -0.196916
     24 H                     0.087885
     25 H                     0.084686
     26 H                     0.089787
     27 H                     0.078038
     28 H                     0.074264
     29 H                     0.079200
     30 H                     0.074489
     31 H                     0.091670
     32 O                    -0.194416
     33 C                    -0.125373
     34 C                     0.023857
     35 C                    -0.145989
     36 C                    -0.142117
     37 C                     0.021772
     38 O                    -0.192504
     39 H                     0.085783
     40 H                     0.080453
     41 H                     0.092426
     42 H                     0.087580
     43 H                     0.078432
     44 H                     0.073215
     45 H                     0.076262
     46 H                     0.070599
     47 H                     0.095445
     48 H                     0.089518
     49 H                     0.093269
     50 H                     0.087421
     51 H                     0.087926
     52 H                     0.091915
     53 H                     0.087063
     54 H                     0.102067
     55 H                     0.086467
     56 H                     0.082915
  ----------------------------------------
  Sum of atomic charges =    -0.000000

                    Cartesian Multipole Moments
 -----------------------------------------------------------------
    Charge (ESU x 10^10)
                -0.0000
    Dipole Moment (Debye)
         X       1.8382      Y      -2.1527      Z      -2.1573
       Tot       3.5591
    Quadrupole Moments (Debye-Ang)
        XX    -164.5614     XY      -4.8905     YY    -155.9961
        XZ      -0.7063     YZ       4.8743     ZZ    -160.0636

 Total job time:  98.74s(wall), 4364.36s(cpu)
        *  Thank you very much for using Q-Chem.  Have a nice day.  *
