 Q-Chem 5.0, Q-Chem, Inc., Pleasanton, CA (2017)
 Q-Chem 5.0.1 for Intel X86 EM64T Linux

User input:
--------------------------------------------------------------
$molecule
0  1
O -3.94934 -3.66094 2.70899
C -3.26408 -4.56952 2.26188
C -3.36658 -6.02376 2.66595
C -2.0928 -6.87685 2.54941
C -0.81598 -6.13964 2.21126
O 0.23936 -6.7199 2.85546
C 1.50169 -6.42226 2.2495
C 2.36012 -7.68087 2.17782
O 2.4981 -8.10201 0.81163
C 3.32354 -9.15851 0.60766
C 3.12258 -9.81067 -0.73955
C 1.8071 -9.44849 -1.44427
C 1.0704 -8.24536 -0.89069
O 0.67471 -7.29286 -1.54699
O -2.78696 -4.35539 1.00798
O 0.23665 -8.65951 0.10249
O 4.23219 -9.46852 1.3671
C -1.08924 -8.95175 -0.14593
C 4.16328 -9.40026 -1.79131
C 4.26105 -10.48679 -2.85939
C 2.92886 -10.31291 -3.56032
C 2.3894 -9.07694 -2.82801
O 3.54684 -8.34866 -2.49193
H 3.16789 -10.90817 -0.55536
H 1.10236 -10.30705 -1.51521
H 5.16488 -9.18439 -1.3594
H 5.07362 -10.18337 -3.55795
H 4.46698 -11.51118 -2.48095
H 3.12542 -10.08247 -4.63101
H 2.23085 -11.17397 -3.4772
H 1.65309 -8.55115 -3.47469
O -0.68472 -5.51754 1.16645
C -2.7597 -3.13325 0.36549
C -3.69433 -6.1915 4.16416
C -4.37738 -7.53612 4.39572
C -3.21533 -8.47804 4.18096
C -2.07349 -7.4722 3.98399
O -2.44379 -6.3745 4.77862
H -4.20321 -6.44227 2.06153
H -2.23226 -7.65994 1.79599
H -2.14502 -2.41214 0.94586
H -4.32586 -5.37581 4.57878
H -4.67033 -7.57276 5.46971
H -5.27143 -7.73218 3.76548
H -3.0659 -9.06527 5.11452
H -3.31248 -9.16522 3.31258
H -1.12231 -7.97395 4.2603
H -3.79066 -2.7376 0.2439
H -2.30667 -3.26126 -0.63874
H -1.53652 -9.40886 0.758
H -1.17164 -9.70625 -0.95706
H -1.64207 -8.03597 -0.44617
H 3.37981 -7.38981 2.52273
H 1.98933 -8.48593 2.85116
H 1.99604 -5.77153 3.00426
H 1.55088 -5.8296 1.3088
$end

$opt
CONSTRAINT
tors           1           2           3           4    -151.898
tors           3           4           5           6    +144.887
tors           4           5           6           7    +158.888
tors           5           6           7           8    -136.666
tors           6           7           8           9    +110.492
tors           7           8           9          10    +175.356
tors           8           9          10          11    +162.930
tors           9          10          11          12     -16.608
tors          11          12          13          14    +128.312
ENDCONSTRAINT
$end

$rem
JOBTYPE                   OPT
METHOD                    B3LYP
DFT_D                     d3_op
BASIS                     STO-3G
GEOM_OPT_MAX_CYCLES       100
GEOM_OPT_TOL_GRADIENT     300
GEOM_OPT_TOL_DISPLACEMENT 1200
GEOM_OPT_TOL_ENERGY       100
SYMMETRY                  False
THRESH                    12
SCF_CONVERGENCE           8
MAX_SUB_FILE_NUM          128
MEM_STATIC                400
MEM_TOTAL                 4000
$end
--------------------------------------------------------------

   15   -1510.0894334943      8.41E-09 Convergence criterion met
 Total energy in the final basis set = -1510.08943349
   14   -1510.1625668558      5.46E-09 Convergence criterion met
 Total energy in the final basis set = -1510.16256686
   14   -1510.2007894228      5.76E-09 Convergence criterion met
 Total energy in the final basis set = -1510.20078942
   15   -1510.2212433685      2.38E-09 Convergence criterion met
 Total energy in the final basis set = -1510.22124337
    2   -1510.2212433685      1.09E-09 Convergence criterion met
 Total energy in the final basis set = -1510.22124337
   14   -1510.2334514231      3.58E-09 Convergence criterion met
 Total energy in the final basis set = -1510.23345142
   14   -1510.2409759826      3.05E-09 Convergence criterion met
 Total energy in the final basis set = -1510.24097598
   13   -1510.2452295517      9.82E-09 Convergence criterion met
   11   -1510.2693052664      4.50E-09 Convergence criterion met
 Total energy in the final basis set = -1510.26930527
   11   -1510.2693380028      3.26E-09 Convergence criterion met
 Total energy in the final basis set = -1510.26933800
   11   -1510.2693686899      7.23E-09 Convergence criterion met
 Total energy in the final basis set = -1510.26936869
   11   -1510.2693703405      2.63E-09 Convergence criterion met
 Total energy in the final basis set = -1510.26937034
    9   -1510.2693714249      7.78E-09 Convergence criterion met
 Total energy in the final basis set = -1510.26937142
   10   -1510.2693705291      5.57E-09 Convergence criterion met
 Total energy in the final basis set = -1510.26937053

             Standard Nuclear Orientation (Angstroms)
    I     Atom           X                Y                Z
 ----------------------------------------------------------------
    1      O      -5.2937472452     2.3605141714     0.4813403597
    2      C      -4.1657550680     1.9263650298     0.1544312811
    3      C      -3.9089866996     0.6141189776    -0.6718281360
    4      C      -2.5703707209    -0.2266085388    -0.5123633056
    5      C      -1.6780922708     0.0190756212     0.7654534204
    6      O      -1.0776820324    -1.2429347738     1.1692637661
    7      C       0.1187163193    -0.9735786040     2.0037302506
    8      C       1.3121444913    -1.9112761985     1.5975209351
    9      O       2.3181682462    -1.0371512237     0.9583032178
   10      C       3.5252251475    -1.7293160718     0.6217147848
   11      C       4.3227198828    -0.8587044670    -0.4161835588
   12      C       3.4605467840     0.2700965849    -1.1152281435
   13      C       1.9089897791    -0.0000335346    -1.1108062350
   14      O       0.9768444254     0.7422898146    -0.7375777724
   15      O      -2.9685218257     2.6967259294     0.2303977267
   16      O       1.7306436278    -1.2862331879    -1.7344502370
   17      O       3.8463658641    -2.8463035084     1.0790748061
   18      C       0.2981909286    -1.6481667194    -1.7827391491
   19      C       5.3221135380     0.0597491117     0.4174752715
   20      C       6.2480016504     0.8888464133    -0.5605672012
   21      C       5.2751242196     2.0440096242    -1.0093154085
   22      C       3.9312256723     1.5677033955    -0.3351004554
   23      O       4.3929786796     1.0669720681     0.9824004784
   24      H       4.8334598570    -1.5267223364    -1.1311776378
   25      H       3.7602167710     0.3417615013    -2.1775045542
   26      H       5.8569084228    -0.4742691501     1.2273199445
   27      H       7.1250828756     1.2807598004    -0.0219277478
   28      H       6.5988238007     0.2778192038    -1.4078410031
   29      H       5.5898543326     3.0158056569    -0.5960845241
   30      H       5.1907440333     2.1336785886    -2.1041327244
   31      H       3.1441659394     2.3364188065    -0.2075629539
   32      O      -1.4042835864     1.0880394408     1.3443790759
   33      C      -3.2328368868     3.9835537510     0.9139316750
   34      C      -5.0165190943    -0.5019111913    -0.4416036480
   35      C      -5.1889194615    -1.2877319605    -1.7979282769
   36      C      -3.8209360209    -2.0642751719    -1.8584550942
   37      C      -3.1873002281    -1.6908720833    -0.4593377794
   38      O      -4.3559010450    -1.4988224114     0.4320849629
   39      H      -3.9581326659     0.9509899451    -1.7261134577
   40      H      -1.9166384253    -0.0685893558    -1.3879822925
   41      H      -3.5597169691     3.8268689916     1.9618702207
   42      H      -5.9473175021    -0.1199497152     0.0218726339
   43      H      -6.0419651689    -1.9821149131    -1.7330662526
   44      H      -5.3417077874    -0.6175380074    -2.6588037161
   45      H      -3.9734121936    -3.1522508781    -1.9364089101
   46      H      -3.1844984191    -1.7382432193    -2.6968818928
   47      H      -2.4966653417    -2.4424926649    -0.0334161911
   48      H      -4.0086893712     4.5752479376     0.3859576607
   49      H      -2.2727998918     4.5312043704     0.9052057912
   50      H       0.2578910959    -2.6904216835    -2.1497123908
   51      H      -0.2598537595    -0.9977670728    -2.4873976495
   52      H      -0.1825545098    -1.5868089440    -0.7826381351
   53      H       1.7445689623    -2.4073452013     2.4934018345
   54      H       0.9735827154    -2.7046243825     0.8954848601
   55      H      -0.1441609293    -1.1484586995     3.0694843340
   56      H       0.4190351646     0.0910684533     1.8953472977
 ----------------------------------------------------------------

   11   -1510.2693707070      3.14E-09 Convergence criterion met
 Total energy in the final basis set = -1510.26937071
 Final energy is   -1510.26937070704
 **  OPTIMIZATION CONVERGED  **

                    Orbital Energies (a.u.)
 --------------------------------------------------------------

 Alpha MOs
 -- Occupied --
-18.942 -18.932 -18.929 -18.922 -18.887 -18.885 -18.884 -18.883
-18.866 -18.865 -10.106 -10.101 -10.098 -10.095 -10.081 -10.070
-10.062 -10.058 -10.058 -10.057 -10.057 -10.056 -10.041 -10.040
-10.035 -10.035 -10.022 -10.020 -10.020 -10.018  -1.021  -1.011
 -1.004  -1.001  -0.970  -0.969  -0.946  -0.936  -0.930  -0.928
 -0.765  -0.761  -0.730  -0.722  -0.711  -0.704  -0.697  -0.661
 -0.657  -0.615  -0.598  -0.581  -0.547  -0.542  -0.538  -0.537
 -0.517  -0.511  -0.493  -0.478  -0.462  -0.457  -0.448  -0.443
 -0.433  -0.430  -0.428  -0.413  -0.409  -0.407  -0.404  -0.402
 -0.399  -0.383  -0.369  -0.367  -0.363  -0.360  -0.354  -0.346
 -0.343  -0.339  -0.333  -0.331  -0.328  -0.327  -0.321  -0.311
 -0.310  -0.307  -0.305  -0.303  -0.294  -0.292  -0.280  -0.274
 -0.271  -0.253  -0.250  -0.246  -0.245  -0.234  -0.232  -0.181
 -0.179  -0.176  -0.169  -0.159  -0.148  -0.147  -0.146  -0.145
 -0.142

          Ground-State Mulliken Net Atomic Charges

     Atom                 Charge (a.u.)
  ----------------------------------------
      1 O                    -0.218610
      2 C                     0.208144
      3 C                    -0.079774
      4 C                    -0.076038
      5 C                     0.217928
      6 O                    -0.181153
      7 C                    -0.053971
      8 C                    -0.046329
      9 O                    -0.169342
     10 C                     0.216808
     11 C                    -0.076384
     12 C                    -0.078722
     13 C                     0.219457
     14 O                    -0.224018
     15 O                    -0.157332
     16 O                    -0.182098
     17 O                    -0.208881
     18 C                    -0.137066
     19 C                     0.024160
     20 C                    -0.145050
     21 C                    -0.141982
     22 C                     0.023516
     23 O                    -0.190413
     24 H                     0.088964
     25 H                     0.082075
     26 H                     0.083232
     27 H                     0.078542
     28 H                     0.073779
     29 H                     0.078079
     30 H                     0.073086
     31 H                     0.090998
     32 O                    -0.191852
     33 C                    -0.125614
     34 C                     0.022727
     35 C                    -0.142367
     36 C                    -0.146077
     37 C                     0.020739
     38 O                    -0.192119
     39 H                     0.082808
     40 H                     0.090202
     41 H                     0.089654
     42 H                     0.090535
     43 H                     0.077896
     44 H                     0.073014
     45 H                     0.077391
     46 H                     0.070801
     47 H                     0.091031
     48 H                     0.087129
     49 H                     0.092970
     50 H                     0.085302
     51 H                     0.076976
     52 H                     0.092903
     53 H                     0.093953
     54 H                     0.091580
     55 H                     0.085417
     56 H                     0.113396
  ----------------------------------------
  Sum of atomic charges =     0.000000

                    Cartesian Multipole Moments
 -----------------------------------------------------------------
    Charge (ESU x 10^10)
                 0.0000
    Dipole Moment (Debye)
         X       1.5219      Y      -0.2548      Z      -2.8943
       Tot       3.2800
    Quadrupole Moments (Debye-Ang)
        XX    -161.8440     XY       6.0091     YY    -160.3211
        XZ       1.8988     YZ       0.4720     ZZ    -155.0178

 Total job time:  88.42s(wall), 4213.56s(cpu)
        *  Thank you very much for using Q-Chem.  Have a nice day.  *
