 Q-Chem 5.0, Q-Chem, Inc., Pleasanton, CA (2017)
 Q-Chem 5.0.1 for Intel X86 EM64T Linux

User input:
--------------------------------------------------------------
$molecule
0  1
O -5.2937472452 2.3605141714 0.4813403597
C -4.165755068 1.9263650298 0.1544312811
C -3.9089866996 0.6141189776 -0.671828136
C -2.5703707209 -0.2266085388 -0.5123633056
C -1.6780922708 0.0190756212 0.7654534204
O -1.0776820324 -1.2429347738 1.1692637661
C 0.1187163193 -0.973578604 2.0037302506
C 1.3121444913 -1.9112761985 1.5975209351
O 2.3181682462 -1.0371512237 0.9583032178
C 3.5252251475 -1.7293160718 0.6217147848
C 4.3227198828 -0.858704467 -0.4161835588
C 3.460546784 0.2700965849 -1.1152281435
C 1.9089897791 -3.35346e-05 -1.110806235
O 0.9768444254 0.7422898146 -0.7375777724
O -2.9685218257 2.6967259294 0.2303977267
O 1.7306436278 -1.2862331879 -1.734450237
O 3.8463658641 -2.8463035084 1.0790748061
C 0.2981909286 -1.6481667194 -1.7827391491
C 5.322113538 0.0597491117 0.4174752715
C 6.2480016504 0.8888464133 -0.5605672012
C 5.2751242196 2.0440096242 -1.0093154085
C 3.9312256723 1.5677033955 -0.3351004554
O 4.3929786796 1.0669720681 0.9824004784
H 4.833459857 -1.5267223364 -1.1311776378
H 3.760216771 0.3417615013 -2.1775045542
H 5.8569084228 -0.4742691501 1.2273199445
H 7.1250828756 1.2807598004 -0.0219277478
H 6.5988238007 0.2778192038 -1.4078410031
H 5.5898543326 3.0158056569 -0.5960845241
H 5.1907440333 2.1336785886 -2.1041327244
H 3.1441659394 2.3364188065 -0.2075629539
O -1.4042835864 1.0880394408 1.3443790759
C -3.2328368868 3.983553751 0.913931675
C -5.0165190943 -0.5019111913 -0.441603648
C -5.1889194615 -1.2877319605 -1.7979282769
C -3.8209360209 -2.0642751719 -1.8584550942
C -3.1873002281 -1.6908720833 -0.4593377794
O -4.355901045 -1.4988224114 0.4320849629
H -3.9581326659 0.9509899451 -1.7261134577
H -1.9166384253 -0.0685893558 -1.3879822925
H -3.5597169691 3.8268689916 1.9618702207
H -5.9473175021 -0.1199497152 0.0218726339
H -6.0419651689 -1.9821149131 -1.7330662526
H -5.3417077874 -0.6175380074 -2.6588037161
H -3.9734121936 -3.1522508781 -1.9364089101
H -3.1844984191 -1.7382432193 -2.6968818928
H -2.4966653417 -2.4424926649 -0.0334161911
H -4.0086893712 4.5752479376 0.3859576607
H -2.2727998918 4.5312043704 0.9052057912
H 0.2578910959 -2.6904216835 -2.1497123908
H -0.2598537595 -0.9977670728 -2.4873976495
H -0.1825545098 -1.586808944 -0.7826381351
H 1.7445689623 -2.4073452013 2.4934018345
H 0.9735827154 -2.7046243825 0.8954848601
H -0.1441609293 -1.1484586995 3.069484334
H 0.4190351646 0.0910684533 1.8953472977
$end

$rem
JOBTYPE                   OPT
METHOD                    B3LYP
DFT_D                     d3_op
BASIS                     STO-3G
GEOM_OPT_MAX_CYCLES       100
GEOM_OPT_TOL_GRADIENT     300
GEOM_OPT_TOL_DISPLACEMENT 1200
GEOM_OPT_TOL_ENERGY       100
SYMMETRY                  False
THRESH                    12
SCF_CONVERGENCE           8
MAX_SUB_FILE_NUM          128
MEM_STATIC                400
MEM_TOTAL                 4000
$end
--------------------------------------------------------------

   16   -1510.2692240443      4.09E-09 Convergence criterion met
 Total energy in the final basis set = -1510.26922404
   15   -1510.2713542779      3.43E-09 Convergence criterion met
 Total energy in the final basis set = -1510.27135428
   13   -1510.2763903994      4.35E-09 Convergence criterion met
 Total energy in the final basis set = -1510.27639040
   13   -1510.2781502311      5.38E-09 Convergence criterion met
 Total energy in the final basis set = -1510.27815023
   13   -1510.2818396269      5.17E-09 Convergence criterion met
 Total energy in the final basis set = -1510.28183963
   13   -1510.2846118298      4.09E-09 Convergence criterion met
 Total energy in the final basis set = -1510.28461183
   13   -1510.2866605478      4.31E-09 Convergence criterion met
 Total energy in the final basis set = -1510.28666055
   13   -1510.2891341692      4.98E-09 Convergence criterion met
   12   -1510.3050163924      3.05E-09 Convergence criterion met
 Total energy in the final basis set = -1510.30501639
   10   -1510.3050323128      9.17E-09 Convergence criterion met
 Total energy in the final basis set = -1510.30503231
   10   -1510.3050407090      8.89E-09 Convergence criterion met
 Total energy in the final basis set = -1510.30504071
   10   -1510.3050430876      7.89E-09 Convergence criterion met
 Total energy in the final basis set = -1510.30504309
    9   -1510.3050465219      6.09E-09 Convergence criterion met
 Total energy in the final basis set = -1510.30504652
    9   -1510.3050468205      4.25E-09 Convergence criterion met
 Total energy in the final basis set = -1510.30504682

             Standard Nuclear Orientation (Angstroms)
    I     Atom           X                Y                Z
 ----------------------------------------------------------------
    1      O      -2.9963269146     2.5212094810     0.7876368893
    2      C      -2.3046802655     1.9201620946    -0.0615730564
    3      C      -2.6873302102     0.6501670826    -0.9018397857
    4      C      -1.9931758891    -0.6890712351    -0.4240295445
    5      C      -1.2499774381    -0.5421808402     0.9410103643
    6      O      -0.7616493789    -1.8415916439     1.3391381612
    7      C      -0.0361210754    -1.7393274236     2.6292971883
    8      C       1.5045805550    -1.8898388267     2.4025014730
    9      O       1.8898637516    -0.8208730851     1.4524705664
   10      C       3.1949123251    -1.0819912779     0.9155330612
   11      C       3.5390145643     0.0381855746    -0.1295922545
   12      C       2.5394546518     0.1293235405    -1.3597100769
   13      C       1.4646315113    -1.0050321772    -1.4767752839
   14      O       0.3494801789    -0.8885244908    -2.0384212031
   15      O      -1.0200109891     2.3541577282    -0.5297170857
   16      O       1.9466283090    -2.2162293759    -0.9051534262
   17      O       3.9393447690    -2.0106072555     1.2963795086
   18      C       0.8462767891    -3.2089920990    -0.7930618082
   19      C       3.3367048836     1.4799792147     0.5058555005
   20      C       3.9586544225     2.5666254963    -0.4594617564
   21      C       2.8521463576     2.6603785930    -1.5769762867
   22      C       1.8513051687     1.5397224465    -1.1011266632
   23      O       1.8775779567     1.6813234778     0.3743280797
   24      H       4.5767744162    -0.1285709089    -0.4672891233
   25      H       3.1069235565     0.1465922710    -2.3091604524
   26      H       3.6457859719     1.5601121722     1.5660644038
   27      H       4.0856678352     3.5249668188     0.0685660710
   28      H       4.9365767676     2.2507992659    -0.8567662836
   29      H       2.3556828434     3.6438677105    -1.5693901789
   30      H       3.2476980131     2.4700492565    -2.5872917626
   31      H       0.8012984729     1.6228362040    -1.4532999792
   32      O      -1.0917475954     0.4901498520     1.6272144155
   33      C      -0.4877098031     3.4482166273     0.3169833875
   34      C      -4.2195990144     0.2542257402    -0.7849574782
   35      C      -4.5856872113    -0.6228185155    -2.0450256737
   36      C      -3.8322244992    -1.9626715135    -1.7044453063
   37      C      -3.2534109255    -1.6365570624    -0.2705180806
   38      O      -4.2604913981    -0.7273080767     0.3259292373
   39      H      -2.4088554057     0.8534455868    -1.9512800811
   40      H      -1.2465734127    -1.0383507038    -1.1715802548
   41      H      -1.1707388076     3.6317592854     1.1690905558
   42      H      -4.8970992440     1.1036727277    -0.5720062993
   43      H      -5.6749762876    -0.7781979278    -2.1025066572
   44      H      -4.2418633654    -0.1681236180    -2.9876462301
   45      H      -4.5239608710    -2.8186697215    -1.6581904497
   46      H      -3.0314104245    -2.1933426820    -2.4252557696
   47      H      -3.0812100545    -2.5142431239     0.3823606090
   48      H      -0.3971280113     4.3700490461    -0.2916912867
   49      H       0.5155448787     3.1177864859     0.6646045281
   50      H       1.3236046097    -4.1526222508    -0.4729460631
   51      H       0.3368809914    -3.3573303703    -1.7658119977
   52      H       0.1118755314    -2.8625395686    -0.0249483675
   53      H       2.0378519843    -1.7755545675     3.3729425886
   54      H       1.7542179723    -2.8911212840     1.9910794027
   55      H      -0.4039904244    -2.5493244744     3.2926058757
   56      H      -0.2578290714    -0.7435162006     3.0700210521
 ----------------------------------------------------------------

    8   -1510.3050467527      5.92E-09 Convergence criterion met
 Total energy in the final basis set = -1510.30504675
 Final energy is   -1510.30504675274
 **  OPTIMIZATION CONVERGED  **

                    Orbital Energies (a.u.)
 --------------------------------------------------------------

 Alpha MOs
 -- Occupied --
-18.948 -18.941 -18.928 -18.909 -18.894 -18.889 -18.887 -18.879
-18.869 -18.855 -10.113 -10.103 -10.099 -10.084 -10.075 -10.074
-10.064 -10.058 -10.056 -10.054 -10.050 -10.043 -10.040 -10.031
-10.024 -10.023 -10.023 -10.021 -10.015 -10.013  -1.025  -1.018
 -1.006  -0.989  -0.974  -0.963  -0.947  -0.944  -0.932  -0.916
 -0.766  -0.755  -0.730  -0.721  -0.711  -0.705  -0.693  -0.664
 -0.642  -0.616  -0.598  -0.574  -0.547  -0.541  -0.538  -0.530
 -0.517  -0.506  -0.492  -0.479  -0.470  -0.452  -0.448  -0.443
 -0.435  -0.426  -0.420  -0.416  -0.412  -0.409  -0.406  -0.395
 -0.390  -0.383  -0.373  -0.369  -0.360  -0.354  -0.351  -0.347
 -0.340  -0.339  -0.334  -0.329  -0.327  -0.323  -0.318  -0.314
 -0.309  -0.307  -0.306  -0.297  -0.294  -0.285  -0.280  -0.271
 -0.266  -0.256  -0.251  -0.250  -0.239  -0.228  -0.227  -0.190
 -0.177  -0.174  -0.166  -0.160  -0.156  -0.149  -0.145  -0.138
 -0.137

          Ground-State Mulliken Net Atomic Charges

     Atom                 Charge (a.u.)
  ----------------------------------------
      1 O                    -0.218428
      2 C                     0.217467
      3 C                    -0.081805
      4 C                    -0.091862
      5 C                     0.219737
      6 O                    -0.177953
      7 C                    -0.053973
      8 C                    -0.048157
      9 O                    -0.174838
     10 C                     0.215885
     11 C                    -0.078519
     12 C                    -0.079175
     13 C                     0.220335
     14 O                    -0.218231
     15 O                    -0.181381
     16 O                    -0.166020
     17 O                    -0.217703
     18 C                    -0.144066
     19 C                     0.026543
     20 C                    -0.145154
     21 C                    -0.143781
     22 C                     0.020161
     23 O                    -0.184943
     24 H                     0.085353
     25 H                     0.086326
     26 H                     0.083635
     27 H                     0.078111
     28 H                     0.074146
     29 H                     0.078676
     30 H                     0.073567
     31 H                     0.106218
     32 O                    -0.196578
     33 C                    -0.144302
     34 C                     0.023697
     35 C                    -0.142926
     36 C                    -0.144328
     37 C                     0.022566
     38 O                    -0.192021
     39 H                     0.084660
     40 H                     0.110968
     41 H                     0.096753
     42 H                     0.087351
     43 H                     0.076232
     44 H                     0.073201
     45 H                     0.075770
     46 H                     0.074555
     47 H                     0.082407
     48 H                     0.072035
     49 H                     0.103528
     50 H                     0.088111
     51 H                     0.087169
     52 H                     0.108255
     53 H                     0.086105
     54 H                     0.090425
     55 H                     0.087858
     56 H                     0.108338
  ----------------------------------------
  Sum of atomic charges =    -0.000000

                    Cartesian Multipole Moments
 -----------------------------------------------------------------
    Charge (ESU x 10^10)
                -0.0000
    Dipole Moment (Debye)
         X       2.2757      Y      -1.1696      Z      -1.8018
       Tot       3.1294
    Quadrupole Moments (Debye-Ang)
        XX    -165.9326     XY      12.7554     YY    -155.2202
        XZ       3.9263     YZ      -4.4995     ZZ    -154.5265

 Total job time:  201.24s(wall), 7637.13s(cpu)
        *  Thank you very much for using Q-Chem.  Have a nice day.  *
