 Q-Chem 5.0, Q-Chem, Inc., Pleasanton, CA (2017)
 Q-Chem 5.0.1 for Intel X86 EM64T Linux

User input:
--------------------------------------------------------------
$molecule
0  1
O -3.94934 -3.66094 2.70899
C -3.26408 -4.56952 2.26188
C -3.36658 -6.02376 2.66595
C -2.97984 -6.38054 4.11059
C -2.70423 -5.22026 5.04112
O -3.73572 -5.07933 5.92519
C -3.36996 -4.35928 7.10713
C -3.2407 -5.3169 8.28713
O -2.67658 -4.63001 9.41533
C -2.60228 -5.35267 10.56049
C -1.76083 -4.68659 11.62301
C -0.4789 -5.44255 12.00176
C -0.04673 -6.53287 11.042
O 0.9669 -7.20828 11.14649
O -2.3768 -4.28776 1.27136
O -0.73465 -6.81381 9.90058
O -3.18643 -6.41545 10.74161
C -0.38479 -7.79284 8.98374
C -1.14702 -3.3115 11.25024
C -0.83297 -2.52223 12.52166
C 0.35011 -3.30133 13.05582
C 0.55141 -4.30686 11.91822
O 0.13851 -3.61289 10.76585
H -2.43527 -4.53053 12.49481
H -0.55532 -5.91521 13.00543
H -1.78977 -2.69141 10.58886
H -0.47673 -1.5171 12.19973
H -1.67935 -2.39761 13.23079
H 1.21995 -2.61162 13.13177
H 0.18247 -3.81376 14.02798
H 1.59853 -4.6826 11.91227
O -1.72895 -4.48528 4.94602
C -2.163 -3.02714 0.75436
C -4.80575 -6.56141 2.59049
C -4.78292 -8.07364 2.38356
C -4.29652 -8.53397 3.74075
C -4.24804 -7.19501 4.48877
O -5.28615 -6.44452 3.9067
H -2.72314 -6.59104 1.95435
H -2.08376 -7.03717 4.17024
H -1.80775 -2.34147 1.55317
H -5.41562 -6.07228 1.79938
H -5.83939 -8.4016 2.2542
H -4.18125 -8.42685 1.5186
H -5.07103 -9.20065 4.18131
H -3.30943 -9.04478 3.74471
H -4.32792 -7.3866 5.58151
H -3.10094 -2.6317 0.30905
H -1.3884 -3.08522 -0.03754
H -1.12206 -7.82646 8.15938
H -0.37239 -8.78895 9.47566
H 0.61563 -7.57415 8.55293
H -4.24898 -5.72827 8.5178
H -2.56688 -6.14324 7.99415
H -4.12769 -3.57574 7.31922
H -2.39364 -3.8298 7.0298
$end

$opt
CONSTRAINT
tors           1           2           3           4     -66.036
tors           3           4           5           6    +106.764
tors           4           5           6           7    +158.888
tors           5           6           7           8    -105.899
tors           6           7           8           9    +171.143
tors           7           8           9          10    +175.356
tors           8           9          10          11    +168.537
tors           9          10          11          12    -114.935
tors          11          12          13          14    +177.237
ENDCONSTRAINT
$end

$rem
JOBTYPE                   OPT
METHOD                    B3LYP
DFT_D                     d3_op
BASIS                     STO-3G
GEOM_OPT_MAX_CYCLES       100
GEOM_OPT_TOL_GRADIENT     300
GEOM_OPT_TOL_DISPLACEMENT 1200
GEOM_OPT_TOL_ENERGY       100
SYMMETRY                  False
THRESH                    12
SCF_CONVERGENCE           8
MAX_SUB_FILE_NUM          128
MEM_STATIC                400
MEM_TOTAL                 4000
$end
--------------------------------------------------------------

   15   -1510.1410260734      8.42E-09 Convergence criterion met
 Total energy in the final basis set = -1510.14102607
   13   -1510.2124860524      7.36E-09 Convergence criterion met
 Total energy in the final basis set = -1510.21248605
   14   -1510.2508652022      7.58E-09 Convergence criterion met
 Total energy in the final basis set = -1510.25086520
   14   -1510.2671350742      6.77E-09 Convergence criterion met
 Total energy in the final basis set = -1510.26713507
   14   -1510.2706557165      6.53E-09 Convergence criterion met
 Total energy in the final basis set = -1510.27065572
    2   -1510.2706557165      1.68E-09 Convergence criterion met
 Total energy in the final basis set = -1510.27065572
   13   -1510.2719564337      8.28E-09 Convergence criterion met
 Total energy in the final basis set = -1510.27195643
   12   -1510.2726930314      7.73E-09 Convergence criterion met
   12   -1510.2730413667      3.50E-09 Convergence criterion met
 Total energy in the final basis set = -1510.27304137
   11   -1510.2730877563      9.72E-09 Convergence criterion met
 Total energy in the final basis set = -1510.27308776
   11   -1510.2731090896      4.00E-09 Convergence criterion met
 Total energy in the final basis set = -1510.27310909
   11   -1510.2731155420      3.85E-09 Convergence criterion met
 Total energy in the final basis set = -1510.27311554
    9   -1510.2731205403      8.98E-09 Convergence criterion met
 Total energy in the final basis set = -1510.27312054
    9   -1510.2731224748      4.37E-09 Convergence criterion met
 Total energy in the final basis set = -1510.27312247

             Standard Nuclear Orientation (Angstroms)
    I     Atom           X                Y                Z
 ----------------------------------------------------------------
    1      O      -4.5388801424     1.9340562198     0.8468376789
    2      C      -4.8410084113     1.3689625484    -0.2265584230
    3      C      -4.8311600461    -0.1659832742    -0.5390104266
    4      C      -3.3660934400    -0.7901041973    -0.5129057435
    5      C      -2.2607745298     0.2761682511    -0.1755988128
    6      O      -1.7653711306     0.0870048562     1.1566102468
    7      C      -0.4295272656     0.7158473432     1.2966736665
    8      C       0.6692027296    -0.4013686899     1.3307018835
    9      O       1.9699367420     0.3032369197     1.2513909323
   10      C       3.0512168594    -0.6303730579     1.3842622391
   11      C       4.4017944842     0.0830803788     1.0065299535
   12      C       5.1351851570    -0.4738816311    -0.2850320096
   13      C       4.2804473058    -1.2961968145    -1.3174385443
   14      O       4.7034764455    -1.7554638125    -2.4010772652
   15      O      -5.2644383544     2.0601889476    -1.4074856620
   16      O       2.9029754400    -1.3320439649    -0.9380128530
   17      O       2.9250071127    -1.7942334721     1.8220637019
   18      C       2.1063681472    -2.0420169383    -1.9643990041
   19      C       4.2981490600     1.6329091663     0.6640943328
   20      C       5.6939462570     2.2842266960     1.0029802138
   21      C       6.5854412814     1.6785352805    -0.1443470700
   22      C       5.5070034207     0.9016104722    -0.9989241155
   23      O       4.2627963446     1.6843089650    -0.8162575538
   24      H       5.0749302153    -0.0634993807     1.8717745996
   25      H       6.0324134536    -1.0643767429    -0.0260449647
   26      H       3.4100598108     2.1354850892     1.0915566109
   27      H       5.6324996054     3.3816200705     0.9252058301
   28      H       6.0519254514     2.0193990821     2.0106212954
   29      H       7.0617224138     2.4660708638    -0.7493970765
   30      H       7.3700013946     1.0051998503     0.2369396886
   31      H       5.7475536293     0.7928485632    -2.0746147891
   32      O      -1.8195757869     1.1379114263    -0.9692250616
   33      C      -5.2461170074     3.5227171076    -1.1730091654
   34      C      -5.5362733258    -1.0213458907     0.6005374255
   35      C      -5.8446438869    -2.4537186363     0.0124124078
   36      C      -4.4028421767    -3.0841383376    -0.0143445744
   37      C      -3.5401724894    -1.9083876432     0.5951020157
   38      O      -4.4518979265    -1.2737558028     1.5756504359
   39      H      -5.3106318062    -0.3187193800    -1.5216736320
   40      H      -3.1109785085    -1.2178722521    -1.4996962186
   41      H      -4.2267466711     3.8804794670    -0.9218987814
   42      H      -6.3897621230    -0.5171980164     1.0940673089
   43      H      -6.5149083157    -3.0094810971     0.6873745723
   44      H      -6.3085674612    -2.4037272420    -0.9856253749
   45      H      -4.3409748331    -3.9783872499     0.6256907750
   46      H      -4.0760549726    -3.3540257066    -1.0313593521
   47      H      -2.5970924629    -2.2138612040     1.0867266352
   48      H      -5.9339354877     3.8136241953    -0.3528867502
   49      H      -5.5793512882     3.9876831787    -2.1189305417
   50      H       1.0552423466    -1.9868326585    -1.6268048257
   51      H       2.4119497242    -3.1045814834    -2.0531328129
   52      H       2.2046111272    -1.5598935770    -2.9582128572
   53      H       0.5920947573    -1.0096422833     2.2579788245
   54      H       0.5453233013    -1.0822595815     0.4607907358
   55      H      -0.4200372037     1.2958131309     2.2416987351
   56      H      -0.2558573944     1.3990625712     0.4369597949
 ----------------------------------------------------------------

    9   -1510.2731233597      6.39E-09 Convergence criterion met
 Total energy in the final basis set = -1510.27312336
 Final energy is   -1510.27312335971
 **  OPTIMIZATION CONVERGED  **

                    Orbital Energies (a.u.)
 --------------------------------------------------------------

 Alpha MOs
 -- Occupied --
-18.944 -18.934 -18.933 -18.926 -18.888 -18.886 -18.878 -18.875
-18.872 -18.865 -10.103 -10.102 -10.099 -10.096 -10.070 -10.070
-10.068 -10.062 -10.061 -10.060 -10.060 -10.056 -10.041 -10.040
-10.037 -10.035 -10.021 -10.020 -10.020 -10.019  -1.017  -1.014
 -1.008  -1.003  -0.970  -0.970  -0.940  -0.939  -0.934  -0.930
 -0.764  -0.762  -0.727  -0.723  -0.715  -0.706  -0.693  -0.666
 -0.662  -0.613  -0.598  -0.579  -0.548  -0.544  -0.538  -0.537
 -0.517  -0.511  -0.489  -0.480  -0.463  -0.460  -0.454  -0.437
 -0.435  -0.433  -0.430  -0.417  -0.412  -0.411  -0.407  -0.402
 -0.393  -0.389  -0.372  -0.369  -0.360  -0.359  -0.353  -0.348
 -0.347  -0.337  -0.336  -0.331  -0.330  -0.325  -0.318  -0.310
 -0.309  -0.307  -0.306  -0.299  -0.296  -0.294  -0.283  -0.277
 -0.274  -0.255  -0.252  -0.247  -0.242  -0.234  -0.233  -0.183
 -0.176  -0.175  -0.170  -0.160  -0.157  -0.149  -0.148  -0.144
 -0.141

          Ground-State Mulliken Net Atomic Charges

     Atom                 Charge (a.u.)
  ----------------------------------------
      1 O                    -0.210632
      2 C                     0.206024
      3 C                    -0.079336
      4 C                    -0.077930
      5 C                     0.209470
      6 O                    -0.167617
      7 C                    -0.052918
      8 C                    -0.045942
      9 O                    -0.175044
     10 C                     0.219738
     11 C                    -0.080993
     12 C                    -0.076905
     13 C                     0.212586
     14 O                    -0.215162
     15 O                    -0.168421
     16 O                    -0.166543
     17 O                    -0.220104
     18 C                    -0.124763
     19 C                     0.023679
     20 C                    -0.142986
     21 C                    -0.145025
     22 C                     0.024600
     23 O                    -0.191039
     24 H                     0.082375
     25 H                     0.087095
     26 H                     0.092390
     27 H                     0.077837
     28 H                     0.073196
     29 H                     0.078554
     30 H                     0.073879
     31 H                     0.085853
     32 O                    -0.213332
     33 C                    -0.128748
     34 C                     0.025830
     35 C                    -0.143587
     36 C                    -0.144697
     37 C                     0.025245
     38 O                    -0.184138
     39 H                     0.086297
     40 H                     0.084859
     41 H                     0.091787
     42 H                     0.084242
     43 H                     0.078331
     44 H                     0.073753
     45 H                     0.078296
     46 H                     0.072375
     47 H                     0.088317
     48 H                     0.088324
     49 H                     0.090351
     50 H                     0.088162
     51 H                     0.091430
     52 H                     0.094390
     53 H                     0.090708
     54 H                     0.080836
     55 H                     0.090629
     56 H                     0.104423
  ----------------------------------------
  Sum of atomic charges =     0.000000

                    Cartesian Multipole Moments
 -----------------------------------------------------------------
    Charge (ESU x 10^10)
                 0.0000
    Dipole Moment (Debye)
         X      -0.3785      Y      -0.3930      Z      -0.7847
       Tot       0.9558
    Quadrupole Moments (Debye-Ang)
        XX    -142.6834     XY       8.6357     YY    -156.2776
        XZ      14.1115     YZ       3.9820     ZZ    -166.7549

 Total job time:  51.63s(wall), 2255.10s(cpu)
        *  Thank you very much for using Q-Chem.  Have a nice day.  *
