 Q-Chem 5.0, Q-Chem, Inc., Pleasanton, CA (2017)
 Q-Chem 5.0.1 for Intel X86 EM64T Linux

User input:
--------------------------------------------------------------
$molecule
0  1
O -4.5388801424 1.9340562198 0.8468376789
C -4.8410084113 1.3689625484 -0.226558423
C -4.8311600461 -0.1659832742 -0.5390104266
C -3.36609344 -0.7901041973 -0.5129057435
C -2.2607745298 0.2761682511 -0.1755988128
O -1.7653711306 0.0870048562 1.1566102468
C -0.4295272656 0.7158473432 1.2966736665
C 0.6692027296 -0.4013686899 1.3307018835
O 1.969936742 0.3032369197 1.2513909323
C 3.0512168594 -0.6303730579 1.3842622391
C 4.4017944842 0.0830803788 1.0065299535
C 5.135185157 -0.4738816311 -0.2850320096
C 4.2804473058 -1.2961968145 -1.3174385443
O 4.7034764455 -1.7554638125 -2.4010772652
O -5.2644383544 2.0601889476 -1.407485662
O 2.90297544 -1.3320439649 -0.938012853
O 2.9250071127 -1.7942334721 1.8220637019
C 2.1063681472 -2.0420169383 -1.9643990041
C 4.29814906 1.6329091663 0.6640943328
C 5.693946257 2.284226696 1.0029802138
C 6.5854412814 1.6785352805 -0.14434707
C 5.5070034207 0.9016104722 -0.9989241155
O 4.2627963446 1.684308965 -0.8162575538
H 5.0749302153 -0.0634993807 1.8717745996
H 6.0324134536 -1.0643767429 -0.0260449647
H 3.4100598108 2.1354850892 1.0915566109
H 5.6324996054 3.3816200705 0.9252058301
H 6.0519254514 2.0193990821 2.0106212954
H 7.0617224138 2.4660708638 -0.7493970765
H 7.3700013946 1.0051998503 0.2369396886
H 5.7475536293 0.7928485632 -2.0746147891
O -1.8195757869 1.1379114263 -0.9692250616
C -5.2461170074 3.5227171076 -1.1730091654
C -5.5362733258 -1.0213458907 0.6005374255
C -5.8446438869 -2.4537186363 0.0124124078
C -4.4028421767 -3.0841383376 -0.0143445744
C -3.5401724894 -1.9083876432 0.5951020157
O -4.4518979265 -1.2737558028 1.5756504359
H -5.3106318062 -0.31871938 -1.521673632
H -3.1109785085 -1.2178722521 -1.4996962186
H -4.2267466711 3.880479467 -0.9218987814
H -6.389762123 -0.5171980164 1.0940673089
H -6.5149083157 -3.0094810971 0.6873745723
H -6.3085674612 -2.403727242 -0.9856253749
H -4.3409748331 -3.9783872499 0.625690775
H -4.0760549726 -3.3540257066 -1.0313593521
H -2.5970924629 -2.213861204 1.0867266352
H -5.9339354877 3.8136241953 -0.3528867502
H -5.5793512882 3.9876831787 -2.1189305417
H 1.0552423466 -1.9868326585 -1.6268048257
H 2.4119497242 -3.1045814834 -2.0531328129
H 2.2046111272 -1.559893577 -2.9582128572
H 0.5920947573 -1.0096422833 2.2579788245
H 0.5453233013 -1.0822595815 0.4607907358
H -0.4200372037 1.2958131309 2.2416987351
H -0.2558573944 1.3990625712 0.4369597949
$end

$rem
JOBTYPE                   OPT
METHOD                    B3LYP
DFT_D                     d3_op
BASIS                     STO-3G
GEOM_OPT_MAX_CYCLES       100
GEOM_OPT_TOL_GRADIENT     300
GEOM_OPT_TOL_DISPLACEMENT 1200
GEOM_OPT_TOL_ENERGY       100
SYMMETRY                  False
THRESH                    12
SCF_CONVERGENCE           8
MAX_SUB_FILE_NUM          128
MEM_STATIC                400
MEM_TOTAL                 4000
$end
--------------------------------------------------------------

   16   -1510.2731734416      5.56E-09 Convergence criterion met
 Total energy in the final basis set = -1510.27317344
   14   -1510.2759724123      7.29E-09 Convergence criterion met
 Total energy in the final basis set = -1510.27597241
   14   -1510.2776566900      7.08E-09 Convergence criterion met
 Total energy in the final basis set = -1510.27765669
   14   -1510.2787281244      9.17E-09 Convergence criterion met
 Total energy in the final basis set = -1510.27872812
   14   -1510.2801612977      7.90E-09 Convergence criterion met
 Total energy in the final basis set = -1510.28016130
   15   -1510.2765220061      5.60E-09 Convergence criterion met
 Total energy in the final basis set = -1510.27652201
   15   -1510.2693929793      3.88E-09 Convergence criterion met
 Total energy in the final basis set = -1510.26939298
   14   -1510.2750613308      6.08E-09 Convergence criterion met
   12   -1510.2908666605      7.56E-09 Convergence criterion met
 Total energy in the final basis set = -1510.29086666
   12   -1510.2908791318      4.13E-09 Convergence criterion met
 Total energy in the final basis set = -1510.29087913
   11   -1510.2908837074      9.99E-09 Convergence criterion met
 Total energy in the final basis set = -1510.29088371
   12   -1510.2908681694      2.55E-09 Convergence criterion met
 Total energy in the final basis set = -1510.29086817
   11   -1510.2908619452      4.99E-09 Convergence criterion met
 Total energy in the final basis set = -1510.29086195
   11   -1510.2908566345      4.08E-09 Convergence criterion met
 Total energy in the final basis set = -1510.29085663

             Standard Nuclear Orientation (Angstroms)
    I     Atom           X                Y                Z
 ----------------------------------------------------------------
    1      O      -2.8424669170     1.7401091976    -0.9791020217
    2      C      -4.0192014088     1.3123747531    -0.9591557116
    3      C      -4.4771120719    -0.1846651878    -0.9514967544
    4      C      -3.2661711417    -1.1978133183    -0.8248109624
    5      C      -1.8500489161    -0.5178775442    -0.7411577694
    6      O      -1.5975111221    -0.1258975171     0.6104388795
    7      C      -0.2712602460     0.5259014081     0.7319125333
    8      C       0.6185691771    -0.2969774511     1.7270353815
    9      O       1.9872639235     0.2680748150     1.6749436744
   10      C       2.9487437797    -0.7611187128     1.4159906655
   11      C       4.3644303201    -0.1126427600     1.1942413421
   12      C       4.9250698507    -0.3718824711    -0.2717294915
   13      C       3.9825251714    -1.2281228700    -1.1826666769
   14      O       4.3049210413    -2.2279977305    -1.8609500270
   15      O      -5.1758566799     2.1484533690    -0.9483103099
   16      O       2.6628139911    -0.6771474771    -1.1380329289
   17      O       2.6821384695    -1.9837905051     1.4068930157
   18      C       1.7315079476    -1.5257869471    -1.9207297551
   19      C       4.3434659107     1.4704716295     1.2313609206
   20      C       5.8314621913     1.9897763653     1.3493435581
   21      C       6.3537914108     1.7574278358    -0.1169965784
   22      C       5.0756320307     1.1246179305    -0.7960017810
   23      O       3.9525357672     1.8376347715    -0.1496275142
   24      H       5.0526110409    -0.5339502725     1.9498634957
   25      H       5.9027661305    -0.8836650542    -0.2399106394
   26      H       3.6298228465     1.8968708381     1.9609883386
   27      H       5.8468976037     3.0576420595     1.6192222831
   28      H       6.4087331578     1.4279764136     2.1010251546
   29      H       6.6157205673     2.7082144965    -0.6078772998
   30      H       7.2253673544     1.0850063755    -0.1596800117
   31      H       5.0225882338     1.2329862392    -1.8967383843
   32      O      -1.0221565834    -0.4432702790    -1.6802018237
   33      C      -4.7713256345     3.5743388831    -0.9532731721
   34      C      -5.3218962732    -0.5529911910     0.3451068971
   35      C      -6.0549579719    -1.9269004323     0.0836527288
   36      C      -4.8544924249    -2.9371159039     0.2043439928
   37      C      -3.6572088680    -1.9545248185     0.5164485045
   38      O      -4.2829900663    -0.8952854721     1.3416961588
   39      H      -5.0649365869    -0.3704338764    -1.8693831437
   40      H      -3.2415918093    -1.8842379017    -1.6895071701
   41      H      -4.1802262438     3.8262394093    -1.8573207835
   42      H      -5.9659369563     0.2694961529     0.7124032839
   43      H      -6.8155136811    -2.1087578819     0.8594671716
   44      H      -6.5427609289    -1.9572783000    -0.9037106639
   45      H      -5.0013906767    -3.6393625354     1.0401711655
   46      H      -4.6884948204    -3.5159376880    -0.7184342242
   47      H      -2.8016028812    -2.4074988099     1.0530979258
   48      H      -4.1712065406     3.8293535966    -0.0561019634
   49      H      -5.7110017218     4.1566202756    -0.9494835597
   50      H       0.7247899283    -1.0573584146    -1.8341906486
   51      H       1.7053542611    -2.5576929953    -1.5156927553
   52      H       2.0358065496    -1.5755637505    -2.9852895859
   53      H       0.2275088361    -0.2144489664     2.7633257404
   54      H       0.6596189365    -1.3706227588     1.4398538390
   55      H      -0.4283810227     1.5563410325     1.1127430663
   56      H       0.2164063665     0.5717666337    -0.2646460136
 ----------------------------------------------------------------

    9   -1510.2908573514      7.70E-09 Convergence criterion met
 Total energy in the final basis set = -1510.29085735
 Final energy is   -1510.29085735139
 **  OPTIMIZATION CONVERGED  **

                    Orbital Energies (a.u.)
 --------------------------------------------------------------

 Alpha MOs
 -- Occupied --
-18.947 -18.930 -18.927 -18.921 -18.891 -18.889 -18.882 -18.872
-18.865 -18.863 -10.110 -10.103 -10.095 -10.088 -10.072 -10.064
-10.062 -10.062 -10.060 -10.055 -10.053 -10.044 -10.039 -10.034
-10.033 -10.030 -10.023 -10.022 -10.016 -10.015  -1.023  -1.009
 -1.005  -0.996  -0.973  -0.964  -0.947  -0.935  -0.929  -0.923
 -0.767  -0.757  -0.727  -0.720  -0.714  -0.704  -0.689  -0.669
 -0.642  -0.611  -0.595  -0.575  -0.549  -0.540  -0.540  -0.532
 -0.516  -0.507  -0.486  -0.473  -0.468  -0.462  -0.450  -0.437
 -0.435  -0.429  -0.424  -0.418  -0.412  -0.405  -0.397  -0.396
 -0.393  -0.382  -0.372  -0.369  -0.360  -0.355  -0.348  -0.346
 -0.338  -0.337  -0.333  -0.331  -0.326  -0.323  -0.317  -0.314
 -0.308  -0.302  -0.302  -0.299  -0.288  -0.288  -0.283  -0.279
 -0.268  -0.263  -0.246  -0.243  -0.238  -0.235  -0.228  -0.189
 -0.178  -0.165  -0.164  -0.160  -0.154  -0.151  -0.147  -0.140
 -0.138

          Ground-State Mulliken Net Atomic Charges

     Atom                 Charge (a.u.)
  ----------------------------------------
      1 O                    -0.205307
      2 C                     0.214892
      3 C                    -0.078068
      4 C                    -0.080685
      5 C                     0.223728
      6 O                    -0.169829
      7 C                    -0.051939
      8 C                    -0.052671
      9 O                    -0.171569
     10 C                     0.216733
     11 C                    -0.077731
     12 C                    -0.079986
     13 C                     0.207948
     14 O                    -0.213632
     15 O                    -0.168211
     16 O                    -0.172150
     17 O                    -0.222511
     18 C                    -0.145187
     19 C                     0.024846
     20 C                    -0.144820
     21 C                    -0.143681
     22 C                     0.025935
     23 O                    -0.186294
     24 H                     0.083396
     25 H                     0.084034
     26 H                     0.090989
     27 H                     0.076811
     28 H                     0.072325
     29 H                     0.077149
     30 H                     0.073543
     31 H                     0.082861
     32 O                    -0.222256
     33 C                    -0.127958
     34 C                     0.025082
     35 C                    -0.143656
     36 C                    -0.144344
     37 C                     0.026972
     38 O                    -0.186813
     39 H                     0.087528
     40 H                     0.085048
     41 H                     0.091975
     42 H                     0.087623
     43 H                     0.078814
     44 H                     0.074069
     45 H                     0.078786
     46 H                     0.074266
     47 H                     0.086677
     48 H                     0.092163
     49 H                     0.092837
     50 H                     0.111008
     51 H                     0.081538
     52 H                     0.081897
     53 H                     0.083203
     54 H                     0.098394
     55 H                     0.088759
     56 H                     0.107472
  ----------------------------------------
  Sum of atomic charges =    -0.000000

                    Cartesian Multipole Moments
 -----------------------------------------------------------------
    Charge (ESU x 10^10)
                -0.0000
    Dipole Moment (Debye)
         X      -2.5978      Y       1.3243      Z       0.5547
       Tot       2.9682
    Quadrupole Moments (Debye-Ang)
        XX    -136.3344     XY       7.8683     YY    -157.8749
        XZ      11.5121     YZ      -0.1053     ZZ    -160.7310

 Total job time:  145.59s(wall), 6511.70s(cpu)
        *  Thank you very much for using Q-Chem.  Have a nice day.  *
