 Q-Chem 5.0, Q-Chem, Inc., Pleasanton, CA (2017)
 Q-Chem 5.0.1 for Intel X86 EM64T Linux

User input:
--------------------------------------------------------------
$molecule
0  1
O -3.257251616 1.2874768172 1.9350569717
C -3.6521220821 1.4902825268 0.7665701622
C -4.4980861835 0.5320394344 -0.1413020126
C -3.6125620134 -0.6188900231 -0.8002718483
C -2.1064752886 -0.5126668434 -0.3610969405
O -1.8059731688 -1.5234207243 0.5992721805
C -0.3729127804 -1.5037744802 0.9936931332
C 0.6194398502 -1.7559174519 -0.1986783003
O 1.9281603031 -1.2379044788 0.2603329156
C 2.9302164497 -1.5231053192 -0.7259679706
C 4.3060053224 -0.9392500072 -0.2450143877
C 4.6239308267 0.5518717013 -0.7021714554
C 3.5104941875 1.3742896013 -1.4522117179
O 3.6390272221 2.5566987022 -1.8423895605
O -3.3607347952 2.6711602665 0.0112719666
O 2.3169792315 0.6138139613 -1.5988468655
O 2.7339333745 -2.2197379158 -1.7453281614
C 1.2299074874 1.3996504701 -2.229123726
C 4.4215370825 -0.8005935073 1.3338943069
C 5.9533079003 -0.729728057 1.7134724866
C 6.3147734956 0.7245430915 1.2359074181
C 4.9147901283 1.2312146579 0.709876719
O 3.938697523 0.5729351754 1.6061750814
H 5.0862454104 -1.6138482637 -0.6411154326
H 5.5278466811 0.5789105994 -1.3376823982
H 3.8249972816 -1.5393165029 1.9024683316
H 6.082848717 -0.8405744362 2.8018813299
H 6.5461242061 -1.5069662158 1.2053439499
H 6.6617612859 1.3518968289 2.0722020469
H 7.0813910632 0.7354150754 0.4446066995
H 4.7760972877 2.3300315629 0.7174950328
O -1.2994709566 0.3612632787 -0.7558473252
C -2.4664385779 3.5606359144 0.7882646932
C -5.5346855891 -0.3340898905 0.691928365
C -6.5895685631 -0.9412053014 -0.314021475
C -5.7291765765 -2.0557324872 -1.0164528616
C -4.3519375105 -1.9093113336 -0.2550129053
O -4.7479289185 -1.5148847011 1.1169261484
H -4.9931311745 1.1391883249 -0.9192219571
H -3.6452695769 -0.5508591104 -1.9028591547
H -1.4852723972 3.0788196938 0.9774152367
H -5.9592149122 0.1829925457 1.5741011137
H -7.4380804563 -1.3754258701 0.2384190672
H -6.9765877739 -0.1898662134 -1.0210656425
H -6.1537057472 -3.0585705621 -0.8515803391
H -5.6228143063 -1.8914087764 -2.1006845426
H -3.7246620026 -2.8204950414 -0.231041771
H -2.915215627 3.8429516274 1.7623381522
H -2.3204923861 4.4647024999 0.16911456
H 0.2873303506 1.1359824901 -1.7024090966
H 1.1489707615 1.1283089536 -3.3012013785
H 1.4469233552 2.4826770557 -2.1457555931
H 0.6785001527 -2.8363249933 -0.4521634388
H 0.2836958059 -1.2030578826 -1.0995790027
H -0.2768144093 -2.2940795531 1.7636304817
H -0.1170429049 -0.5224858517 1.4512565641
$end

$rem
JOBTYPE                   OPT
METHOD                    B3LYP
DFT_D                     d3_op
BASIS                     STO-3G
GEOM_OPT_MAX_CYCLES       100
GEOM_OPT_TOL_GRADIENT     300
GEOM_OPT_TOL_DISPLACEMENT 1200
GEOM_OPT_TOL_ENERGY       100
SYMMETRY                  False
THRESH                    12
SCF_CONVERGENCE           8
MAX_SUB_FILE_NUM          128
MEM_STATIC                400
MEM_TOTAL                 4000
$end
--------------------------------------------------------------

   16   -1510.2801129638      5.29E-09 Convergence criterion met
 Total energy in the final basis set = -1510.28011296
   14   -1510.2735796084      8.60E-09 Convergence criterion met
 Total energy in the final basis set = -1510.27357961
   14   -1510.2807459124      4.38E-09 Convergence criterion met
 Total energy in the final basis set = -1510.28074591
   14   -1510.2810078377      3.27E-09 Convergence criterion met
 Total energy in the final basis set = -1510.28100784
   13   -1510.2821370103      7.64E-09 Convergence criterion met
 Total energy in the final basis set = -1510.28213701
   13   -1510.2831336377      9.14E-09 Convergence criterion met
 Total energy in the final basis set = -1510.28313364
   13   -1510.2832909169      7.38E-09 Convergence criterion met
 Total energy in the final basis set = -1510.28329092
   13   -1510.2838635786      6.49E-09 Convergence criterion met
   12   -1510.2987157810      5.21E-09 Convergence criterion met
 Total energy in the final basis set = -1510.29871578
   11   -1510.2987224206      9.65E-09 Convergence criterion met
 Total energy in the final basis set = -1510.29872242
   11   -1510.2987271869      9.92E-09 Convergence criterion met
 Total energy in the final basis set = -1510.29872719
   12   -1510.2987264549      3.27E-09 Convergence criterion met
 Total energy in the final basis set = -1510.29872645
   12   -1510.2987114883      4.44E-09 Convergence criterion met
 Total energy in the final basis set = -1510.29871149
   11   -1510.2987071596      9.51E-09 Convergence criterion met
 Total energy in the final basis set = -1510.29870716

             Standard Nuclear Orientation (Angstroms)
    I     Atom           X                Y                Z
 ----------------------------------------------------------------
    1      O      -2.8642184850     2.5283752950    -0.7056400089
    2      C      -2.8489379143     1.3216285424    -1.0291704949
    3      C      -4.0288908545     0.2945135589    -0.8374098430
    4      C      -3.7085928387    -0.9682503417     0.0712768974
    5      C      -2.2504417724    -0.9313611346     0.6212963106
    6      O      -1.6130579205    -2.1796117949     0.3365607891
    7      C      -0.1503880476    -2.0651827096     0.5640219155
    8      C       0.4893681690    -1.3789992845    -0.6942222685
    9      O       1.8599911044    -0.9688179843    -0.3087005186
   10      C       2.4285212576    -0.0721491402    -1.2622205959
   11      C       3.8836017876     0.2580471718    -0.7960493939
   12      C       3.9619882751     0.7130136627     0.7209391607
   13      C       2.5602250913     0.8555339474     1.4200840666
   14      O       2.1856183211     0.3281863116     2.4887498293
   15      O      -1.7592496829     0.6859911812    -1.7175225845
   16      O       1.7834904098     1.7730089198     0.6452677378
   17      O       1.8526988509     0.3330155412    -2.2986458179
   18      C       0.4795510014     2.0358621053     1.3026314038
   19      C       4.7790217510    -1.0577908049    -0.7480602617
   20      C       6.2908464916    -0.6285224971    -0.5818674352
   21      C       6.3312448179    -0.2320575285     0.9408217814
   22      C       4.8243546614    -0.4564623904     1.3512815161
   23      O       4.4317471701    -1.6490756145     0.5626383675
   24      H       4.2973197833     1.0192777842    -1.4798823922
   25      H       4.4821743544     1.6851136260     0.8026915979
   26      H       4.5807350699    -1.7778400305    -1.5657259295
   27      H       6.9577143475    -1.4782861430    -0.7979975962
   28      H       6.5581664413     0.2080619969    -1.2472457639
   29      H       6.9908537734    -0.9032734326     1.5136685453
   30      H       6.6585856661     0.8074820836     1.1020900541
   31      H       4.6308842127    -0.6252258988     2.4285494644
   32      O      -1.7032254985     0.0313596052     1.2059442819
   33      C      -0.7735235262     1.7073455579    -2.1621602409
   34      C      -5.2151441350     0.9598648243    -0.0229775348
   35      C      -6.5198575952     0.0993285261    -0.2445089635
   36      C      -6.2061336935    -1.1605041437     0.6451424303
   37      C      -4.7877175929    -0.7789003555     1.2260811807
   38      O      -4.8563593698     0.6887923042     1.3891252993
   39      H      -4.3546413459    -0.0317702265    -1.8425471477
   40      H      -3.8518620012    -1.9148654319    -0.4781310822
   41      H      -0.6836879905     2.5155584715    -1.4120972887
   42      H      -5.3147969913     2.0496929944    -0.1916252712
   43      H      -7.4058367046     0.6409472316     0.1230033340
   44      H      -6.6757678732    -0.1558230651    -1.3048858724
   45      H      -6.9375007081    -1.2712484794     1.4614502828
   46      H      -6.1797440025    -2.0970767116     0.0654782016
   47      H      -4.5237568120    -1.2658567229     2.1849015198
   48      H      -1.0999162010     2.1511985791    -3.1242054604
   49      H       0.2012966782     1.1851339891    -2.2943881281
   50      H      -0.2196391304     1.1712999325     1.2209798198
   51      H       0.0461448231     2.9071943521     0.7788201483
   52      H       0.6165677613     2.2813436952     2.3742505731
   53      H       0.5220199195    -2.0848376274    -1.5519943654
   54      H      -0.1441161665    -0.5111120001    -0.9857476127
   55      H       0.2303733745    -3.0955539021     0.7034964135
   56      H       0.0699620186    -1.4569486617     1.4681525919
 ----------------------------------------------------------------

   10   -1510.2987072617      5.62E-09 Convergence criterion met
 Total energy in the final basis set = -1510.29870726
 Final energy is   -1510.29870726173
 **  OPTIMIZATION CONVERGED  **

                    Orbital Energies (a.u.)
 --------------------------------------------------------------

 Alpha MOs
 -- Occupied --
-18.944 -18.942 -18.928 -18.922 -18.890 -18.888 -18.887 -18.883
-18.876 -18.866 -10.110 -10.108 -10.098 -10.093 -10.075 -10.070
-10.064 -10.062 -10.058 -10.057 -10.042 -10.039 -10.039 -10.039
-10.037 -10.035 -10.022 -10.021 -10.021 -10.019  -1.023  -1.018
 -1.006  -1.000  -0.972  -0.970  -0.948  -0.942  -0.933  -0.927
 -0.766  -0.763  -0.730  -0.724  -0.712  -0.706  -0.697  -0.652
 -0.648  -0.618  -0.598  -0.582  -0.547  -0.546  -0.538  -0.537
 -0.518  -0.509  -0.486  -0.476  -0.462  -0.460  -0.454  -0.447
 -0.436  -0.432  -0.430  -0.415  -0.410  -0.407  -0.401  -0.399
 -0.392  -0.379  -0.373  -0.368  -0.361  -0.359  -0.355  -0.352
 -0.341  -0.336  -0.334  -0.332  -0.330  -0.328  -0.324  -0.312
 -0.310  -0.306  -0.305  -0.299  -0.295  -0.288  -0.284  -0.279
 -0.270  -0.258  -0.255  -0.245  -0.243  -0.236  -0.234  -0.187
 -0.181  -0.173  -0.170  -0.161  -0.160  -0.152  -0.146  -0.146
 -0.143

          Ground-State Mulliken Net Atomic Charges

     Atom                 Charge (a.u.)
  ----------------------------------------
      1 O                    -0.208096
      2 C                     0.211042
      3 C                    -0.078389
      4 C                    -0.079370
      5 C                     0.217391
      6 O                    -0.168101
      7 C                    -0.050161
      8 C                    -0.054842
      9 O                    -0.166804
     10 C                     0.221271
     11 C                    -0.078088
     12 C                    -0.078386
     13 C                     0.213211
     14 O                    -0.215679
     15 O                    -0.181458
     16 O                    -0.179870
     17 O                    -0.216347
     18 C                    -0.145595
     19 C                     0.025695
     20 C                    -0.143980
     21 C                    -0.143651
     22 C                     0.024299
     23 O                    -0.186643
     24 H                     0.086336
     25 H                     0.084036
     26 H                     0.081414
     27 H                     0.078008
     28 H                     0.073959
     29 H                     0.078063
     30 H                     0.073546
     31 H                     0.090914
     32 O                    -0.211932
     33 C                    -0.149384
     34 C                     0.024784
     35 C                    -0.144158
     36 C                    -0.143733
     37 C                     0.026493
     38 O                    -0.185531
     39 H                     0.084740
     40 H                     0.087946
     41 H                     0.090828
     42 H                     0.091838
     43 H                     0.078901
     44 H                     0.073387
     45 H                     0.078910
     46 H                     0.073981
     47 H                     0.084057
     48 H                     0.077696
     49 H                     0.111418
     50 H                     0.108930
     51 H                     0.084419
     52 H                     0.084834
     53 H                     0.085048
     54 H                     0.103040
     55 H                     0.094634
     56 H                     0.105131
  ----------------------------------------
  Sum of atomic charges =     0.000000

                    Cartesian Multipole Moments
 -----------------------------------------------------------------
    Charge (ESU x 10^10)
                 0.0000
    Dipole Moment (Debye)
         X       0.2535      Y      -1.4341      Z      -1.9066
       Tot       2.3991
    Quadrupole Moments (Debye-Ang)
        XX    -135.6862     XY      10.8999     YY    -162.2126
        XZ       2.9233     YZ       0.3767     ZZ    -164.9226

 Total job time:  186.11s(wall), 7514.54s(cpu)
        *  Thank you very much for using Q-Chem.  Have a nice day.  *
