 Q-Chem 5.0, Q-Chem, Inc., Pleasanton, CA (2017)
 Q-Chem 5.0.1 for Intel X86 EM64T Linux

User input:
--------------------------------------------------------------
$molecule
0  1
O -3.94934 -3.66094 2.70899
C -3.26408 -4.56952 2.26188
C -3.36658 -6.02376 2.66595
C -2.70081 -6.43378 3.98977
C -2.16056 -5.31202 4.84877
O -2.98957 -5.10265 5.91382
C -2.51007 -4.09569 6.81124
C -1.15671 -4.5035 7.38417
O -0.47646 -3.34925 7.90172
C 0.70006 -3.59814 8.52862
C 1.38137 -2.34349 9.02087
C 2.35451 -1.70078 8.02177
C 2.24032 -2.17799 6.58792
O 2.91318 -1.77381 5.65066
O -2.43737 -4.30278 1.21629
O 1.54802 -3.29718 6.24533
O 1.2385 -4.69864 8.56657
C 1.6475 -3.94294 5.02139
C 0.42622 -1.14677 9.26055
C 1.0596 -0.1674 10.24832
C 2.16443 0.41815 9.39467
C 1.85193 -0.24801 8.05029
O 0.45588 -0.41441 8.06144
H 1.83836 -2.59125 10.00531
H 3.4194 -1.8089 8.3225
H -0.57933 -1.45036 9.62596
H 0.30351 0.62706 10.44311
H 1.38769 -0.6019 11.21698
H 2.01763 1.51959 9.33757
H 3.19854 0.18631 9.73032
H 2.26198 0.35896 7.2127
O -1.28379 -4.54718 4.46916
C -2.24731 -3.04843 0.67535
C -4.81381 -6.49298 2.8934
C -4.91056 -8.00061 2.6726
C -4.17318 -8.51086 3.89243
C -3.8972 -7.1914 4.6251
O -4.99593 -6.3802 4.28374
H -2.91553 -6.60665 1.82981
H -1.84577 -7.12896 3.8369
H -1.84032 -2.35831 1.4452
H -5.55275 -5.96061 2.25517
H -5.98547 -8.27671 2.76589
H -4.5225 -8.36381 1.69668
H -4.8713 -9.14594 4.48209
H -3.23642 -9.071 3.68257
H -3.75003 -7.39677 5.70815
H -3.20761 -2.6504 0.28325
H -1.52185 -3.11896 -0.16083
H 1.07485 -4.88714 5.0406
H 2.70527 -4.21848 4.82104
H 1.26955 -3.28823 4.20731
H -1.33215 -5.2675 8.17446
H -0.48647 -4.97052 6.64585
H -3.23615 -3.90647 7.62972
H -2.40093 -3.14435 6.24126
$end

$opt
CONSTRAINT
tors           1           2           3           4     -78.997
tors           3           4           5           6    +104.884
tors           4           5           6           7    +177.171
tors           5           6           7           8     -60.711
tors           6           7           8           9    +160.592
tors           7           8           9          10    +175.356
tors           8           9          10          11    +178.645
tors           9          10          11          12     -90.547
tors          11          12          13          14    +179.020
ENDCONSTRAINT
$end

$rem
JOBTYPE                   OPT
METHOD                    B3LYP
DFT_D                     d3_op
BASIS                     STO-3G
GEOM_OPT_MAX_CYCLES       100
GEOM_OPT_TOL_GRADIENT     300
GEOM_OPT_TOL_DISPLACEMENT 1200
GEOM_OPT_TOL_ENERGY       100
SYMMETRY                  False
THRESH                    12
SCF_CONVERGENCE           8
MAX_SUB_FILE_NUM          128
MEM_STATIC                400
MEM_TOTAL                 4000
$end
--------------------------------------------------------------

   15   -1510.1340380437      7.11E-09 Convergence criterion met
 Total energy in the final basis set = -1510.13403804
   14   -1510.2071201424      5.92E-09 Convergence criterion met
 Total energy in the final basis set = -1510.20712014
   14   -1510.2457886662      4.20E-09 Convergence criterion met
 Total energy in the final basis set = -1510.24578867
   14   -1510.2624810035      8.98E-09 Convergence criterion met
 Total energy in the final basis set = -1510.26248100
   14   -1510.2719027670      6.20E-09 Convergence criterion met
 Total energy in the final basis set = -1510.27190277
   13   -1510.2753986528      6.94E-09 Convergence criterion met
 Total energy in the final basis set = -1510.27539865
   13   -1510.2775949564      5.48E-09 Convergence criterion met
 Total energy in the final basis set = -1510.27759496
   13   -1510.2783497536      7.01E-09 Convergence criterion met
   13   -1510.2796163603      2.48E-09 Convergence criterion met
 Total energy in the final basis set = -1510.27961636
   12   -1510.2799021732      7.20E-09 Convergence criterion met
 Total energy in the final basis set = -1510.27990217
   13   -1510.2800065837      2.32E-09 Convergence criterion met
 Total energy in the final basis set = -1510.28000658
   12   -1510.2800401474      2.79E-09 Convergence criterion met
 Total energy in the final basis set = -1510.28004015
   11   -1510.2800475069      5.20E-09 Convergence criterion met
 Total energy in the final basis set = -1510.28004751
    9   -1510.2800508930      5.46E-09 Convergence criterion met
 Total energy in the final basis set = -1510.28005089

             Standard Nuclear Orientation (Angstroms)
    I     Atom           X                Y                Z
 ----------------------------------------------------------------
    1      O      -3.2572516160     1.2874768172     1.9350569717
    2      C      -3.6521220821     1.4902825268     0.7665701622
    3      C      -4.4980861835     0.5320394344    -0.1413020126
    4      C      -3.6125620134    -0.6188900231    -0.8002718483
    5      C      -2.1064752886    -0.5126668434    -0.3610969405
    6      O      -1.8059731688    -1.5234207243     0.5992721805
    7      C      -0.3729127804    -1.5037744802     0.9936931332
    8      C       0.6194398502    -1.7559174519    -0.1986783003
    9      O       1.9281603031    -1.2379044788     0.2603329156
   10      C       2.9302164497    -1.5231053192    -0.7259679706
   11      C       4.3060053224    -0.9392500072    -0.2450143877
   12      C       4.6239308267     0.5518717013    -0.7021714554
   13      C       3.5104941875     1.3742896013    -1.4522117179
   14      O       3.6390272221     2.5566987022    -1.8423895605
   15      O      -3.3607347952     2.6711602665     0.0112719666
   16      O       2.3169792315     0.6138139613    -1.5988468655
   17      O       2.7339333745    -2.2197379158    -1.7453281614
   18      C       1.2299074874     1.3996504701    -2.2291237260
   19      C       4.4215370825    -0.8005935073     1.3338943069
   20      C       5.9533079003    -0.7297280570     1.7134724866
   21      C       6.3147734956     0.7245430915     1.2359074181
   22      C       4.9147901283     1.2312146579     0.7098767190
   23      O       3.9386975230     0.5729351754     1.6061750814
   24      H       5.0862454104    -1.6138482637    -0.6411154326
   25      H       5.5278466811     0.5789105994    -1.3376823982
   26      H       3.8249972816    -1.5393165029     1.9024683316
   27      H       6.0828487170    -0.8405744362     2.8018813299
   28      H       6.5461242061    -1.5069662158     1.2053439499
   29      H       6.6617612859     1.3518968289     2.0722020469
   30      H       7.0813910632     0.7354150754     0.4446066995
   31      H       4.7760972877     2.3300315629     0.7174950328
   32      O      -1.2994709566     0.3612632787    -0.7558473252
   33      C      -2.4664385779     3.5606359144     0.7882646932
   34      C      -5.5346855891    -0.3340898905     0.6919283650
   35      C      -6.5895685631    -0.9412053014    -0.3140214750
   36      C      -5.7291765765    -2.0557324872    -1.0164528616
   37      C      -4.3519375105    -1.9093113336    -0.2550129053
   38      O      -4.7479289185    -1.5148847011     1.1169261484
   39      H      -4.9931311745     1.1391883249    -0.9192219571
   40      H      -3.6452695769    -0.5508591104    -1.9028591547
   41      H      -1.4852723972     3.0788196938     0.9774152367
   42      H      -5.9592149122     0.1829925457     1.5741011137
   43      H      -7.4380804563    -1.3754258701     0.2384190672
   44      H      -6.9765877739    -0.1898662134    -1.0210656425
   45      H      -6.1537057472    -3.0585705621    -0.8515803391
   46      H      -5.6228143063    -1.8914087764    -2.1006845426
   47      H      -3.7246620026    -2.8204950414    -0.2310417710
   48      H      -2.9152156270     3.8429516274     1.7623381522
   49      H      -2.3204923861     4.4647024999     0.1691145600
   50      H       0.2873303506     1.1359824901    -1.7024090966
   51      H       1.1489707615     1.1283089536    -3.3012013785
   52      H       1.4469233552     2.4826770557    -2.1457555931
   53      H       0.6785001527    -2.8363249933    -0.4521634388
   54      H       0.2836958059    -1.2030578826    -1.0995790027
   55      H      -0.2768144093    -2.2940795531     1.7636304817
   56      H      -0.1170429049    -0.5224858517     1.4512565641
 ----------------------------------------------------------------

    8   -1510.2800517519      6.77E-09 Convergence criterion met
 Total energy in the final basis set = -1510.28005175
 Final energy is   -1510.28005175194
 **  OPTIMIZATION CONVERGED  **

                    Orbital Energies (a.u.)
 --------------------------------------------------------------

 Alpha MOs
 -- Occupied --
-18.947 -18.935 -18.934 -18.923 -18.888 -18.885 -18.883 -18.874
-18.868 -18.860 -10.111 -10.098 -10.098 -10.094 -10.075 -10.066
-10.062 -10.061 -10.061 -10.058 -10.057 -10.048 -10.043 -10.039
-10.036 -10.033 -10.022 -10.021 -10.019 -10.018  -1.021  -1.011
 -1.009  -0.999  -0.970  -0.968  -0.946  -0.935  -0.932  -0.927
 -0.765  -0.760  -0.728  -0.721  -0.714  -0.705  -0.693  -0.662
 -0.654  -0.615  -0.597  -0.582  -0.549  -0.541  -0.539  -0.535
 -0.516  -0.509  -0.488  -0.474  -0.464  -0.460  -0.454  -0.440
 -0.433  -0.432  -0.425  -0.412  -0.410  -0.407  -0.404  -0.397
 -0.393  -0.385  -0.378  -0.367  -0.361  -0.358  -0.353  -0.347
 -0.342  -0.338  -0.332  -0.330  -0.328  -0.327  -0.320  -0.311
 -0.310  -0.307  -0.304  -0.298  -0.293  -0.287  -0.286  -0.278
 -0.275  -0.258  -0.252  -0.247  -0.234  -0.232  -0.231  -0.186
 -0.177  -0.175  -0.165  -0.160  -0.152  -0.150  -0.144  -0.144
 -0.139

          Ground-State Mulliken Net Atomic Charges

     Atom                 Charge (a.u.)
  ----------------------------------------
      1 O                    -0.211183
      2 C                     0.204957
      3 C                    -0.079106
      4 C                    -0.077510
      5 C                     0.213401
      6 O                    -0.160634
      7 C                    -0.047561
      8 C                    -0.050873
      9 O                    -0.171620
     10 C                     0.220366
     11 C                    -0.081223
     12 C                    -0.077723
     13 C                     0.211581
     14 O                    -0.219626
     15 O                    -0.168138
     16 O                    -0.168765
     17 O                    -0.222603
     18 C                    -0.141890
     19 C                     0.025996
     20 C                    -0.144119
     21 C                    -0.144162
     22 C                     0.025025
     23 O                    -0.188753
     24 H                     0.082713
     25 H                     0.085164
     26 H                     0.085981
     27 H                     0.077374
     28 H                     0.073147
     29 H                     0.077854
     30 H                     0.073723
     31 H                     0.085975
     32 O                    -0.220353
     33 C                    -0.128692
     34 C                     0.025489
     35 C                    -0.143642
     36 C                    -0.144520
     37 C                     0.025254
     38 O                    -0.184745
     39 H                     0.086621
     40 H                     0.085698
     41 H                     0.091305
     42 H                     0.085698
     43 H                     0.078446
     44 H                     0.073601
     45 H                     0.078349
     46 H                     0.072991
     47 H                     0.088884
     48 H                     0.089374
     49 H                     0.090779
     50 H                     0.110875
     51 H                     0.081794
     52 H                     0.095942
     53 H                     0.085397
     54 H                     0.094176
     55 H                     0.094642
     56 H                     0.098869
  ----------------------------------------
  Sum of atomic charges =    -0.000000

                    Cartesian Multipole Moments
 -----------------------------------------------------------------
    Charge (ESU x 10^10)
                 0.0000
    Dipole Moment (Debye)
         X      -0.7969      Y      -0.4782      Z      -0.7392
       Tot       1.1875
    Quadrupole Moments (Debye-Ang)
        XX    -138.7428     XY      -4.7859     YY    -159.0471
        XZ      13.0457     YZ       1.4382     ZZ    -166.2591

 Total job time:  61.52s(wall), 2444.55s(cpu)
        *  Thank you very much for using Q-Chem.  Have a nice day.  *
