 Q-Chem 5.0, Q-Chem, Inc., Pleasanton, CA (2017)
 Q-Chem 5.0.1 for Intel X86 EM64T Linux

User input:
--------------------------------------------------------------
$molecule
0  1
O -3.94934 -3.66094 2.70899
C -3.26408 -4.56952 2.26188
C -3.36658 -6.02376 2.66595
C -2.70081 -6.43378 3.98977
C -2.16056 -5.31202 4.84877
O -3.1735 -4.46398 5.19546
C -2.74245 -3.38299 6.02908
C -1.72303 -3.87987 7.0489
O -0.53468 -3.07578 6.9847
C 0.4246 -3.37932 7.89399
C 1.65995 -2.52194 7.75446
C 2.72458 -3.07201 6.79411
C 2.26695 -4.17652 5.8628
O 2.93419 -4.6674 4.9637
O -2.43805 -4.30325 1.21586
O 1.27198 -5.01182 6.26894
O 0.22462 -4.08093 8.87835
C 1.11833 -6.33162 5.87498
C 1.41487 -1.12503 7.14679
C 2.54249 -0.17707 7.55284
C 3.68563 -0.72812 6.72619
C 2.95259 -1.81469 5.93197
O 1.65151 -1.30168 5.77284
H 2.07371 -2.39287 8.78065
H 3.65098 -3.42138 7.30048
H 0.43027 -0.69045 7.42666
H 2.27772 0.83234 7.16377
H 2.73604 -0.10909 8.64498
H 4.04562 0.076 6.04646
H 4.53617 -1.14564 7.30743
H 3.50345 -2.03902 4.99167
O -1.02613 -4.90358 4.63807
C -2.25022 -3.04933 0.67314
C -4.81572 -6.47752 2.91244
C -4.92225 -7.99614 2.76644
C -4.22797 -8.45189 4.03421
C -3.91071 -7.10019 4.68083
O -4.99639 -6.28964 4.29412
H -2.9266 -6.61247 1.82861
H -1.87397 -7.16701 3.85369
H -1.84454 -2.35732 1.44198
H -5.5476 -5.97121 2.24556
H -5.99936 -8.26965 2.83587
H -4.49946 -8.39939 1.82112
H -4.96634 -9.00067 4.66054
H -3.32201 -9.07776 3.88338
H -3.75499 -7.22042 5.77583
H -3.2113 -2.65362 0.28056
H -1.52481 -3.11975 -0.1631
H 0.21473 -6.75579 6.35866
H 2.00052 -6.9258 6.19505
H 1.00987 -6.40559 4.77205
H -2.1974 -3.72841 8.04489
H -1.48116 -4.9642 7.07349
H -3.61804 -2.89435 6.50771
H -2.26677 -2.61834 5.37452
$end

$opt
CONSTRAINT
tors           1           2           3           4     -78.997
tors           3           4           5           6     +60.102
tors           4           5           6           7    +179.110
tors           5           6           7           8     -39.721
tors           6           7           8           9    +126.780
tors           7           8           9          10    +176.852
tors           8           9          10          11    +178.645
tors           9          10          11          12     -89.110
tors          11          12          13          14    +174.079
ENDCONSTRAINT
$end

$rem
JOBTYPE                   OPT
METHOD                    B3LYP
DFT_D                     d3_op
BASIS                     STO-3G
GEOM_OPT_MAX_CYCLES       100
GEOM_OPT_TOL_GRADIENT     300
GEOM_OPT_TOL_DISPLACEMENT 1200
GEOM_OPT_TOL_ENERGY       100
SYMMETRY                  False
THRESH                    12
SCF_CONVERGENCE           8
MAX_SUB_FILE_NUM          128
MEM_STATIC                400
MEM_TOTAL                 4000
$end
--------------------------------------------------------------

   16   -1510.1107789731      2.27E-09 Convergence criterion met
 Total energy in the final basis set = -1510.11077897
   14   -1510.1863403119      7.62E-09 Convergence criterion met
 Total energy in the final basis set = -1510.18634031
   14   -1510.2271588783      7.27E-09 Convergence criterion met
 Total energy in the final basis set = -1510.22715888
   14   -1510.2485944317      8.53E-09 Convergence criterion met
 Total energy in the final basis set = -1510.24859443
   14   -1510.2595018063      5.31E-09 Convergence criterion met
 Total energy in the final basis set = -1510.25950181
   14   -1510.2649103016      4.23E-09 Convergence criterion met
 Total energy in the final basis set = -1510.26491030
   13   -1510.2682839745      5.11E-09 Convergence criterion met
 Total energy in the final basis set = -1510.26828397
   13   -1510.2700885085      4.09E-09 Convergence criterion met
   11   -1510.2734886065      8.17E-09 Convergence criterion met
 Total energy in the final basis set = -1510.27348861
   12   -1510.2735256994      3.02E-09 Convergence criterion met
 Total energy in the final basis set = -1510.27352570
   11   -1510.2735403332      5.61E-09 Convergence criterion met
 Total energy in the final basis set = -1510.27354033
    9   -1510.2735442798      6.75E-09 Convergence criterion met
 Total energy in the final basis set = -1510.27354428
    9   -1510.2735468111      4.40E-09 Convergence criterion met
 Total energy in the final basis set = -1510.27354681
    9   -1510.2735481058      4.05E-09 Convergence criterion met
 Total energy in the final basis set = -1510.27354811

             Standard Nuclear Orientation (Angstroms)
    I     Atom           X                Y                Z
 ----------------------------------------------------------------
    1      O      -2.9742197850     2.0529665912     1.3962218565
    2      C      -3.2384808203     1.8828749865     0.1873149027
    3      C      -4.0660227388     0.7314598255    -0.4833082039
    4      C      -3.2803074335    -0.6417416013    -0.6766464849
    5      C      -1.8084516465    -0.6512656563    -0.1329975782
    6      O      -1.8454608380    -0.3838082621     1.2604815161
    7      C      -0.5329760826    -0.3733918987     1.9563383019
    8      C       0.5611335670    -1.4471136476     1.5690061039
    9      O       1.7845212727    -0.6722980626     1.2556036247
   10      C       2.8756958023    -1.5563616034     0.9577623456
   11      C       4.1405589052    -0.6894195142     0.5979906315
   12      C       4.3297416467    -0.2831660410    -0.9266014754
   13      C       3.2683231716    -0.7659287174    -1.9775888772
   14      O       3.2501611684    -0.4246101689    -3.1824499795
   15      O      -2.7726395048     2.7439436271    -0.8612630847
   16      O       2.3524593854    -1.6821875816    -1.3921946013
   17      O       2.8382554828    -2.7952190840     1.1205807302
   18      C       1.3408317506    -2.1397933174    -2.3768066311
   19      C       4.0941980060     0.7485339257     1.2761470745
   20      C       5.5538054592     1.3536961734     1.2816603873
   21      C       5.7185030218     1.7662478775    -0.2276502056
   22      C       4.3293005262     1.3054033982    -0.8196321882
   23      O       3.3769902767     1.5768579879     0.2795349851
   24      H       5.0200100176    -1.2653027961     0.9376097581
   25      H       5.3123018669    -0.6375599286    -1.2904666073
   26      H       3.5680826813     0.7749954596     2.2493453514
   27      H       5.6039464865     2.2296039567     1.9476550982
   28      H       6.3065256283     0.6182187731     1.6073530866
   29      H       5.8399852060     2.8557321652    -0.3377040259
   30      H       6.5675631615     1.2647641624    -0.7188695182
   31      H       4.0154730570     1.8179265247    -1.7499182267
   32      O      -0.7760989129    -0.8063504713    -0.8238037039
   33      C      -1.9145312898     3.8116302675    -0.2977100619
   34      C      -5.2748637191     0.2546396803     0.4321443438
   35      C      -6.3025185877    -0.5268816062    -0.4774150643
   36      C      -5.5347998510    -1.8820632146    -0.7038760402
   37      C      -4.2210102111    -1.6334370421     0.1379594916
   38      O      -4.6830930764    -0.8085061219     1.2750859655
   39      H      -4.4191866546     1.1027774121    -1.4616860632
   40      H      -3.2293684625    -0.9127962759    -1.7460067758
   41      H      -0.9989285223     3.3929240248     0.1684844418
   42      H      -5.7101605987     1.0506066645     1.0665782774
   43      H      -7.2496375114    -0.6853329715     0.0628026453
   44      H      -6.5173643408     0.0052293069    -1.4179737252
   45      H      -6.0950098718    -2.7381650318    -0.2956624159
   46      H      -5.3168484390    -2.0760878080    -1.7663410601
   47      H      -3.7150042909    -2.5481579752     0.5029543414
   48      H      -2.4538181904     4.4116428900     0.4632750717
   49      H      -1.6316000364     4.4579162327    -1.1487420734
   50      H       1.3449565864    -3.2466262641    -2.3833284981
   51      H       1.6030975778    -1.7443138226    -3.3781750471
   52      H       0.3527090559    -1.7548399870    -2.0448903918
   53      H       0.7424311511    -2.1386694255     2.4205176989
   54      H       0.2475801606    -2.0503656681     0.6926624404
   55      H      -0.8050493140    -0.4708890209     3.0262199001
   56      H      -0.0641423527     0.6270531538     1.8102691480
 ----------------------------------------------------------------

    9   -1510.2735489941      5.80E-09 Convergence criterion met
 Total energy in the final basis set = -1510.27354899
 Final energy is   -1510.27354899410
 **  OPTIMIZATION CONVERGED  **

                    Orbital Energies (a.u.)
 --------------------------------------------------------------

 Alpha MOs
 -- Occupied --
-18.943 -18.932 -18.932 -18.921 -18.891 -18.884 -18.882 -18.875
-18.865 -18.857 -10.109 -10.097 -10.095 -10.091 -10.074 -10.066
-10.063 -10.062 -10.061 -10.056 -10.055 -10.041 -10.040 -10.039
-10.034 -10.030 -10.023 -10.021 -10.017 -10.016  -1.018  -1.008
 -1.007  -0.997  -0.972  -0.966  -0.944  -0.933  -0.929  -0.924
 -0.765  -0.758  -0.728  -0.720  -0.712  -0.705  -0.693  -0.662
 -0.650  -0.615  -0.597  -0.583  -0.548  -0.540  -0.539  -0.534
 -0.515  -0.509  -0.486  -0.471  -0.463  -0.459  -0.443  -0.439
 -0.434  -0.430  -0.422  -0.412  -0.410  -0.406  -0.404  -0.396
 -0.392  -0.381  -0.377  -0.366  -0.359  -0.354  -0.351  -0.346
 -0.344  -0.335  -0.334  -0.329  -0.327  -0.322  -0.317  -0.310
 -0.309  -0.307  -0.306  -0.302  -0.292  -0.286  -0.281  -0.279
 -0.272  -0.255  -0.247  -0.243  -0.236  -0.231  -0.229  -0.183
 -0.173  -0.167  -0.166  -0.155  -0.151  -0.149  -0.146  -0.142
 -0.137

          Ground-State Mulliken Net Atomic Charges

     Atom                 Charge (a.u.)
  ----------------------------------------
      1 O                    -0.205559
      2 C                     0.205767
      3 C                    -0.078672
      4 C                    -0.078320
      5 C                     0.212304
      6 O                    -0.159219
      7 C                    -0.048382
      8 C                    -0.049328
      9 O                    -0.172443
     10 C                     0.219948
     11 C                    -0.080404
     12 C                    -0.078205
     13 C                     0.212486
     14 O                    -0.220880
     15 O                    -0.171004
     16 O                    -0.167171
     17 O                    -0.221530
     18 C                    -0.146562
     19 C                     0.025974
     20 C                    -0.144875
     21 C                    -0.143766
     22 C                     0.025018
     23 O                    -0.189345
     24 H                     0.082064
     25 H                     0.084569
     26 H                     0.084710
     27 H                     0.076702
     28 H                     0.072968
     29 H                     0.077119
     30 H                     0.073424
     31 H                     0.086712
     32 O                    -0.216356
     33 C                    -0.129376
     34 C                     0.026533
     35 C                    -0.143803
     36 C                    -0.144068
     37 C                     0.026543
     38 O                    -0.182646
     39 H                     0.086600
     40 H                     0.085100
     41 H                     0.090030
     42 H                     0.085879
     43 H                     0.078380
     44 H                     0.073971
     45 H                     0.078514
     46 H                     0.073979
     47 H                     0.082440
     48 H                     0.088841
     49 H                     0.090903
     50 H                     0.081317
     51 H                     0.097037
     52 H                     0.110507
     53 H                     0.085482
     54 H                     0.098178
     55 H                     0.095200
     56 H                     0.096718
  ----------------------------------------
  Sum of atomic charges =    -0.000000

                    Cartesian Multipole Moments
 -----------------------------------------------------------------
    Charge (ESU x 10^10)
                -0.0000
    Dipole Moment (Debye)
         X      -0.8920      Y       0.5313      Z      -0.3203
       Tot       1.0865
    Quadrupole Moments (Debye-Ang)
        XX    -141.5169     XY       5.9339     YY    -157.6245
        XZ      12.4201     YZ       1.8560     ZZ    -165.0433

 Total job time:  107.09s(wall), 5107.95s(cpu)
        *  Thank you very much for using Q-Chem.  Have a nice day.  *
