 Q-Chem 5.0, Q-Chem, Inc., Pleasanton, CA (2017)
 Q-Chem 5.0.1 for Intel X86 EM64T Linux

User input:
--------------------------------------------------------------
$molecule
0  1
O -2.974219785 2.0529665912 1.3962218565
C -3.2384808203 1.8828749865 0.1873149027
C -4.0660227388 0.7314598255 -0.4833082039
C -3.2803074335 -0.6417416013 -0.6766464849
C -1.8084516465 -0.6512656563 -0.1329975782
O -1.845460838 -0.3838082621 1.2604815161
C -0.5329760826 -0.3733918987 1.9563383019
C 0.561133567 -1.4471136476 1.5690061039
O 1.7845212727 -0.6722980626 1.2556036247
C 2.8756958023 -1.5563616034 0.9577623456
C 4.1405589052 -0.6894195142 0.5979906315
C 4.3297416467 -0.283166041 -0.9266014754
C 3.2683231716 -0.7659287174 -1.9775888772
O 3.2501611684 -0.4246101689 -3.1824499795
O -2.7726395048 2.7439436271 -0.8612630847
O 2.3524593854 -1.6821875816 -1.3921946013
O 2.8382554828 -2.795219084 1.1205807302
C 1.3408317506 -2.1397933174 -2.3768066311
C 4.094198006 0.7485339257 1.2761470745
C 5.5538054592 1.3536961734 1.2816603873
C 5.7185030218 1.7662478775 -0.2276502056
C 4.3293005262 1.3054033982 -0.8196321882
O 3.3769902767 1.5768579879 0.2795349851
H 5.0200100176 -1.2653027961 0.9376097581
H 5.3123018669 -0.6375599286 -1.2904666073
H 3.5680826813 0.7749954596 2.2493453514
H 5.6039464865 2.2296039567 1.9476550982
H 6.3065256283 0.6182187731 1.6073530866
H 5.839985206 2.8557321652 -0.3377040259
H 6.5675631615 1.2647641624 -0.7188695182
H 4.015473057 1.8179265247 -1.7499182267
O -0.7760989129 -0.8063504713 -0.8238037039
C -1.9145312898 3.8116302675 -0.2977100619
C -5.2748637191 0.2546396803 0.4321443438
C -6.3025185877 -0.5268816062 -0.4774150643
C -5.534799851 -1.8820632146 -0.7038760402
C -4.2210102111 -1.6334370421 0.1379594916
O -4.6830930764 -0.8085061219 1.2750859655
H -4.4191866546 1.1027774121 -1.4616860632
H -3.2293684625 -0.9127962759 -1.7460067758
H -0.9989285223 3.3929240248 0.1684844418
H -5.7101605987 1.0506066645 1.0665782774
H -7.2496375114 -0.6853329715 0.0628026453
H -6.5173643408 0.0052293069 -1.4179737252
H -6.0950098718 -2.7381650318 -0.2956624159
H -5.316848439 -2.076087808 -1.7663410601
H -3.7150042909 -2.5481579752 0.5029543414
H -2.4538181904 4.41164289 0.4632750717
H -1.6316000364 4.4579162327 -1.1487420734
H 1.3449565864 -3.2466262641 -2.3833284981
H 1.6030975778 -1.7443138226 -3.3781750471
H 0.3527090559 -1.754839987 -2.0448903918
H 0.7424311511 -2.1386694255 2.4205176989
H 0.2475801606 -2.0503656681 0.6926624404
H -0.805049314 -0.4708890209 3.0262199001
H -0.0641423527 0.6270531538 1.810269148
$end

$rem
JOBTYPE                   OPT
METHOD                    B3LYP
DFT_D                     d3_op
BASIS                     STO-3G
GEOM_OPT_MAX_CYCLES       100
GEOM_OPT_TOL_GRADIENT     300
GEOM_OPT_TOL_DISPLACEMENT 1200
GEOM_OPT_TOL_ENERGY       100
SYMMETRY                  False
THRESH                    12
SCF_CONVERGENCE           8
MAX_SUB_FILE_NUM          128
MEM_STATIC                400
MEM_TOTAL                 4000
$end
--------------------------------------------------------------

   16   -1510.2736112194      4.23E-09 Convergence criterion met
 Total energy in the final basis set = -1510.27361122
   14   -1510.2746589095      5.32E-09 Convergence criterion met
 Total energy in the final basis set = -1510.27465891
   13   -1510.2768713678      9.21E-09 Convergence criterion met
 Total energy in the final basis set = -1510.27687137
   13   -1510.2789879219      5.89E-09 Convergence criterion met
 Total energy in the final basis set = -1510.27898792
   14   -1510.2801958700      4.97E-09 Convergence criterion met
 Total energy in the final basis set = -1510.28019587
   14   -1510.2812919585      3.17E-09 Convergence criterion met
 Total energy in the final basis set = -1510.28129196
   13   -1510.2827262528      8.02E-09 Convergence criterion met
 Total energy in the final basis set = -1510.28272625
   13   -1510.2837856881      5.26E-09 Convergence criterion met
   12   -1510.2998059819      4.22E-09 Convergence criterion met
 Total energy in the final basis set = -1510.29980598
   12   -1510.2997882760      3.79E-09 Convergence criterion met
 Total energy in the final basis set = -1510.29978828
   11   -1510.2998021280      6.74E-09 Convergence criterion met
 Total energy in the final basis set = -1510.29980213
   11   -1510.2997975604      2.99E-09 Convergence criterion met
 Total energy in the final basis set = -1510.29979756
   10   -1510.2997953781      6.43E-09 Convergence criterion met
 Total energy in the final basis set = -1510.29979538
    9   -1510.2997931993      5.24E-09 Convergence criterion met
 Total energy in the final basis set = -1510.29979320

             Standard Nuclear Orientation (Angstroms)
    I     Atom           X                Y                Z
 ----------------------------------------------------------------
    1      O      -3.3756004829     2.6130098169    -0.1839391191
    2      C      -3.1770489845     1.5457420807    -0.8016778494
    3      C      -4.0925060221     0.2698105083    -0.8354103234
    4      C      -3.3086307056    -1.0688706771    -0.4989846445
    5      C      -1.8061935506    -0.8143684144    -0.1318233399
    6      O      -1.7650684928     0.0677260764     0.9909478466
    7      C      -0.3685170713     0.4184669086     1.3466122073
    8      C       0.3881446534    -0.7413895882     2.1021951432
    9      O       1.8425437181    -0.4617237302     2.0027314120
   10      C       2.4287321673    -1.2672507597     0.9731775499
   11      C       3.8618792157    -0.7246668649     0.6325491088
   12      C       3.8430475517     0.2012124387    -0.6678279208
   13      C       2.4097644732     0.3527965217    -1.2835884316
   14      O       1.4944292171     1.1064767791    -0.8661079084
   15      O      -2.0487829080     1.2789396891    -1.6412218815
   16      O       2.2971718254    -0.5130021783    -2.3999334342
   17      O       1.8534313182    -2.2308544106     0.4190121608
   18      C       0.9081815079    -0.5099412339    -2.9324796647
   19      C       4.4242433562     0.2928052051     1.7092232761
   20      C       5.9663475392     0.5066368833     1.4384805961
   21      C       5.9287148931     1.4354170213     0.1680004260
   22      C       4.3725940429     1.5699551257    -0.0626626420
   23      O       3.8164969618     1.5831268918     1.3087796086
   24      H       4.5310336053    -1.5905001267     0.4803155509
   25      H       4.5133991704    -0.2008916078    -1.4475454610
   26      H       4.1547542419     0.0460183157     2.7536799368
   27      H       6.4403815285     1.0123831676     2.2946416733
   28      H       6.4908244649    -0.4448317546     1.2551835430
   29      H       6.3716451552     2.4222765375     0.3765377439
   30      H       6.4430540168     0.9936328703    -0.7003348405
   31      H       4.0489731929     2.4710628067    -0.6185764178
   32      O      -0.7965389239    -1.3138133439    -0.6799135158
   33      C      -1.0974388324     2.4173842386    -1.6448584765
   34      C      -5.1811527011     0.2912090610     0.3146927690
   35      C      -6.2994747751    -0.7635168463    -0.0438109516
   36      C      -5.5407868221    -2.1135387475     0.2407104303
   37      C      -4.1434899350    -1.5805086854     0.7532860736
   38      O      -4.4848782062    -0.3298814332     1.4664083626
   39      H      -4.5601530394     0.2054645413    -1.8353539837
   40      H      -3.3370154543    -1.7839146678    -1.3394522251
   41      H      -1.3853250379     3.1485921897    -0.8642502069
   42      H      -5.5350033453     1.3068907506     0.5786199642
   43      H      -7.1698187753    -0.6430650180     0.6206822174
   44      H      -6.6375869665    -0.6763943775    -1.0888846849
   45      H      -6.0402127368    -2.6996963064     1.0284491314
   46      H      -5.4406448802    -2.7435564331    -0.6576801003
   47      H      -3.5932759474    -2.2711472849     1.4214507355
   48      H      -1.1258236431     2.9098716763    -2.6372186628
   49      H      -0.0821437486     2.0056412580    -1.4488651775
   50      H       0.9080407539    -1.2427869376    -3.7592992357
   51      H       0.6329797188     0.4893572002    -3.3246928241
   52      H       0.1836399008    -0.8194992461    -2.1407284713
   53      H       0.1204603383    -0.7772918742     3.1766283568
   54      H       0.1764382114    -1.7170114425     1.6140270935
   55      H      -0.4523651199     1.3101262308     1.9978055537
   56      H       0.2319070931     0.6826925301     0.4420655046
 ----------------------------------------------------------------

    9   -1510.2997917082      3.15E-09 Convergence criterion met
 Total energy in the final basis set = -1510.29979171
 Final energy is   -1510.29979170821
 **  OPTIMIZATION CONVERGED  **

                    Orbital Energies (a.u.)
 --------------------------------------------------------------

 Alpha MOs
 -- Occupied --
-18.944 -18.932 -18.930 -18.924 -18.888 -18.885 -18.884 -18.876
-18.874 -18.871 -10.110 -10.101 -10.098 -10.095 -10.062 -10.060
-10.060 -10.059 -10.055 -10.053 -10.046 -10.041 -10.040 -10.037
-10.036 -10.034 -10.022 -10.020 -10.019 -10.018  -1.018  -1.013
 -1.008  -1.000  -0.970  -0.967  -0.941  -0.937  -0.932  -0.930
 -0.765  -0.761  -0.726  -0.722  -0.711  -0.704  -0.688  -0.659
 -0.649  -0.612  -0.596  -0.578  -0.548  -0.543  -0.538  -0.535
 -0.514  -0.507  -0.481  -0.477  -0.462  -0.460  -0.452  -0.441
 -0.433  -0.431  -0.427  -0.418  -0.412  -0.406  -0.401  -0.397
 -0.380  -0.378  -0.369  -0.367  -0.362  -0.359  -0.352  -0.349
 -0.343  -0.337  -0.332  -0.329  -0.326  -0.323  -0.318  -0.311
 -0.308  -0.306  -0.303  -0.301  -0.292  -0.286  -0.282  -0.279
 -0.271  -0.259  -0.245  -0.241  -0.237  -0.234  -0.231  -0.191
 -0.177  -0.170  -0.161  -0.159  -0.156  -0.152  -0.148  -0.144
 -0.141

          Ground-State Mulliken Net Atomic Charges

     Atom                 Charge (a.u.)
  ----------------------------------------
      1 O                    -0.212385
      2 C                     0.214747
      3 C                    -0.077868
      4 C                    -0.078449
      5 C                     0.220187
      6 O                    -0.167627
      7 C                    -0.062304
      8 C                    -0.057745
      9 O                    -0.169158
     10 C                     0.204993
     11 C                    -0.077328
     12 C                    -0.078274
     13 C                     0.218913
     14 O                    -0.221759
     15 O                    -0.178997
     16 O                    -0.160981
     17 O                    -0.207206
     18 C                    -0.143563
     19 C                     0.026030
     20 C                    -0.144333
     21 C                    -0.143817
     22 C                     0.025488
     23 O                    -0.184732
     24 H                     0.086079
     25 H                     0.087975
     26 H                     0.089561
     27 H                     0.078324
     28 H                     0.073430
     29 H                     0.078380
     30 H                     0.073681
     31 H                     0.084425
     32 O                    -0.219585
     33 C                    -0.151432
     34 C                     0.024448
     35 C                    -0.143762
     36 C                    -0.144097
     37 C                     0.026024
     38 O                    -0.185296
     39 H                     0.083683
     40 H                     0.084551
     41 H                     0.095102
     42 H                     0.090627
     43 H                     0.077925
     44 H                     0.072702
     45 H                     0.077686
     46 H                     0.073294
     47 H                     0.081987
     48 H                     0.075199
     49 H                     0.109343
     50 H                     0.087257
     51 H                     0.081716
     52 H                     0.119767
     53 H                     0.085839
     54 H                     0.101182
     55 H                     0.090046
     56 H                     0.110112
  ----------------------------------------
  Sum of atomic charges =     0.000000

                    Cartesian Multipole Moments
 -----------------------------------------------------------------
    Charge (ESU x 10^10)
                 0.0000
    Dipole Moment (Debye)
         X       1.1765      Y      -1.1075      Z      -1.5825
       Tot       2.2616
    Quadrupole Moments (Debye-Ang)
        XX    -138.3126     XY       8.3113     YY    -165.1882
        XZ       6.1667     YZ      -6.3719     ZZ    -156.7979

 Total job time:  200.33s(wall), 9549.36s(cpu)
        *  Thank you very much for using Q-Chem.  Have a nice day.  *
