 Q-Chem 5.0, Q-Chem, Inc., Pleasanton, CA (2017)
 Q-Chem 5.0.1 for Intel X86 EM64T Linux

User input:
--------------------------------------------------------------
$molecule
0  1
O -3.94934 -3.66094 2.70899
C -3.26408 -4.56952 2.26188
C -3.36658 -6.02376 2.66595
C -3.84709 -6.32366 4.09529
C -4.3409 -5.14346 4.90235
O -5.66248 -4.92139 4.63866
C -6.22059 -3.85657 5.41578
C -5.89336 -4.05581 6.89204
O -5.58169 -2.79202 7.49915
C -5.49711 -2.80038 8.85263
C -5.13542 -1.45171 9.42789
C -3.92797 -1.4554 10.37674
C -3.05798 -2.69558 10.33425
O -2.04838 -2.87628 10.99954
O -2.23907 -4.25894 1.42523
O -3.25585 -3.65727 9.39137
O -5.86973 -3.73578 9.55312
C -2.48376 -4.78908 9.21321
C -4.67487 -0.36576 8.42231
C -4.89693 1.02273 9.02324
C -3.81878 1.05058 10.08645
C -3.11982 -0.28243 9.8038
O -3.27115 -0.46283 8.41567
H -6.05304 -1.08848 9.94339
H -4.23898 -1.32637 11.43675
H -5.17575 -0.41487 7.43196
H -4.63339 1.76457 8.23521
H -5.92727 1.22764 9.38544
H -3.13743 1.90423 9.87392
H -4.18542 1.10631 11.13443
H -2.07406 -0.26232 10.18268
O -3.56951 -4.30504 5.35968
C -1.95685 -2.98391 0.98152
C -4.44781 -6.76357 1.84896
C -4.13544 -8.25896 1.811
C -4.44263 -8.64576 3.24248
C -4.99104 -7.31581 3.77372
O -5.59954 -6.72578 2.65164
H -2.38728 -6.4997 2.43012
H -3.06944 -6.8212 4.71579
H -1.72661 -2.32063 1.84256
H -4.56067 -6.37047 0.81448
H -4.89389 -8.73089 1.14565
H -3.11891 -8.53006 1.45322
H -5.2363 -9.42551 3.23251
H -3.57175 -8.99544 3.83806
H -5.64883 -7.49393 4.65312
H -2.8209 -2.57682 0.41391
H -1.07368 -3.01908 0.31125
H -2.89419 -5.38034 8.36927
H -2.50443 -5.41414 10.13123
H -1.43715 -4.50498 8.97261
H -6.78954 -4.53211 7.34977
H -5.06045 -4.74204 7.14287
H -7.30616 -3.71228 5.23124
H -5.71686 -2.92423 5.07092
$end

$opt
CONSTRAINT
tors           1           2           3           4     -28.974
tors           3           4           5           6     +85.895
tors           4           5           6           7    +177.171
tors           5           6           7           8     -50.299
tors           6           7           8           9    +140.596
tors           7           8           9          10    +169.175
tors           8           9          10          11    +178.645
tors           9          10          11          12    -126.903
tors          11          12          13          14    +179.020
ENDCONSTRAINT
$end

$rem
JOBTYPE                   OPT
METHOD                    B3LYP
DFT_D                     d3_op
BASIS                     STO-3G
GEOM_OPT_MAX_CYCLES       100
GEOM_OPT_TOL_GRADIENT     300
GEOM_OPT_TOL_DISPLACEMENT 1200
GEOM_OPT_TOL_ENERGY       100
SYMMETRY                  False
THRESH                    12
SCF_CONVERGENCE           8
MAX_SUB_FILE_NUM          128
MEM_STATIC                400
MEM_TOTAL                 4000
$end
--------------------------------------------------------------

   15   -1510.1281389511      7.88E-09 Convergence criterion met
 Total energy in the final basis set = -1510.12813895
   13   -1510.2010233375      9.92E-09 Convergence criterion met
 Total energy in the final basis set = -1510.20102334
   14   -1510.2408236850      6.23E-09 Convergence criterion met
 Total energy in the final basis set = -1510.24082368
   13   -1510.2601075717      9.59E-09 Convergence criterion met
 Total energy in the final basis set = -1510.26010757
   13   -1510.2670861293      9.74E-09 Convergence criterion met
 Total energy in the final basis set = -1510.26708613
   13   -1510.2709269395      6.78E-09 Convergence criterion met
 Total energy in the final basis set = -1510.27092694
    2   -1510.2709269394      9.19E-09 Convergence criterion met
 Total energy in the final basis set = -1510.27092694
   13   -1510.2727963283      6.06E-09 Convergence criterion met
   11   -1510.2746419008      6.59E-09 Convergence criterion met
 Total energy in the final basis set = -1510.27464190
   10   -1510.2746614235      8.98E-09 Convergence criterion met
 Total energy in the final basis set = -1510.27466142
   11   -1510.2746753645      3.07E-09 Convergence criterion met
 Total energy in the final basis set = -1510.27467536
   10   -1510.2746867493      9.14E-09 Convergence criterion met
 Total energy in the final basis set = -1510.27468675
    9   -1510.2746929620      6.61E-09 Convergence criterion met
 Total energy in the final basis set = -1510.27469296
    9   -1510.2746963077      8.62E-09 Convergence criterion met
 Total energy in the final basis set = -1510.27469631

             Standard Nuclear Orientation (Angstroms)
    I     Atom           X                Y                Z
 ----------------------------------------------------------------
    1      O      -2.6693573741     1.8686771929     0.2053527100
    2      C      -3.6356733064     1.6136702847    -0.5469178120
    3      C      -4.3394475788     0.2362664680    -0.7817673364
    4      C      -3.3899721365    -1.0198177251    -0.5846975751
    5      C      -1.9532620476    -0.6411313594    -0.0599598932
    6      O      -1.9875114409    -0.5628534959     1.3659105388
    7      C      -0.6621858662    -0.2754368639     1.9726629370
    8      C       0.5259293319    -1.1905678870     1.4918343163
    9      O       1.7002755246    -0.2965171476     1.3627072243
   10      C       2.8809421576    -1.0870091730     1.1744683163
   11      C       4.1319810612    -0.1514206584     1.0010542053
   12      C       4.9617571017    -0.4738781863    -0.3083380572
   13      C       4.0854342884    -1.0415568221    -1.4940228944
   14      O       4.4801794491    -1.3602495247    -2.6362248179
   15      O      -4.3240541602     2.5990818237    -1.3236098380
   16      O       2.7081485660    -0.9242765725    -1.1325609763
   17      O       2.9131479558    -2.3333573346     1.2765545959
   18      C       1.7928176622    -1.3095927236    -2.2278799164
   19      C       3.9027818450     1.4141174231     0.8528085119
   20      C       5.1948425501     2.1116158230     1.4297531522
   21      C       6.2539513092     1.6955065647     0.3412381437
   22      C       5.3346590189     1.0098424141    -0.7482314611
   23      O       4.0222840791     1.6858541858    -0.5995695290
   24      H       4.7755412773    -0.3434755042     1.8802345939
   25      H       5.8381493311    -1.1208839021    -0.1290811860
   26      H       2.9322679417     1.7779496924     1.2404402163
   27      H       5.0591167074     3.2048426293     1.4575132642
   28      H       5.4544594612     1.7592459561     2.4407769105
   29      H       6.7703878198     2.5710379032    -0.0829593531
   30      H       7.0113049937     0.9972933959     0.7332062195
   31      H       5.6989195333     1.0912602295    -1.7910614777
   32      O      -0.9488423465    -0.4575031563    -0.7856667011
   33      C      -3.7232333077     3.9342506887    -1.0949062076
   34      C      -5.4824729001    -0.0743137202     0.2845068090
   35      C      -6.4245423148    -1.1787017806    -0.3379987377
   36      C      -5.5026535266    -2.4499687223    -0.2332579206
   37      C      -4.2255409197    -1.8490019641     0.4802602781
   38      O      -4.7790731785    -0.7963628007     1.3648678267
   39      H      -4.7662834723     0.2514848555    -1.8003446983
   40      H      -3.2615794343    -1.5658766587    -1.5360892200
   41      H      -2.6537059423     3.9546006527    -1.3879357268
   42      H      -5.9998409268     0.8203646938     0.6819696749
   43      H      -7.3363129429    -1.2906255602     0.2705433834
   44      H      -6.7167530097    -0.9445161870    -1.3740677402
   45      H      -5.9610928282    -3.2326697539     0.3915523753
   46      H      -5.2605335382    -2.8813490614    -1.2176852297
   47      H      -3.6291593915    -2.5723124229     1.0685016791
   48      H      -3.8024641335     4.2403191766    -0.0317290726
   49      H      -4.2949868342     4.6381890886    -1.7270375549
   50      H       0.7788615923    -1.0157654406    -1.8827157666
   51      H       1.8294613649    -2.4025695899    -2.4149817120
   52      H       2.0478353066    -0.7786891796    -3.1670568153
   53      H       0.7300271789    -2.0028978460     2.2219241928
   54      H       0.2938406772    -1.6538504198     0.5123593928
   55      H      -0.8274369836    -0.3788168184     3.0630203171
   56      H      -0.3818118804     0.7798710113     1.7535183279
 ----------------------------------------------------------------

    9   -1510.2746956389      5.23E-09 Convergence criterion met
 Total energy in the final basis set = -1510.27469564
 Final energy is   -1510.27469563892
 **  OPTIMIZATION CONVERGED  **

                    Orbital Energies (a.u.)
 --------------------------------------------------------------

 Alpha MOs
 -- Occupied --
-18.939 -18.934 -18.932 -18.918 -18.891 -18.881 -18.880 -18.871
-18.867 -18.850 -10.103 -10.102 -10.093 -10.090 -10.068 -10.067
-10.064 -10.062 -10.060 -10.055 -10.052 -10.051 -10.041 -10.038
-10.032 -10.027 -10.023 -10.022 -10.017 -10.015  -1.017  -1.008
 -1.006  -0.994  -0.973  -0.964  -0.940  -0.936  -0.930  -0.921
 -0.765  -0.757  -0.726  -0.719  -0.713  -0.702  -0.688  -0.666
 -0.651  -0.612  -0.595  -0.579  -0.549  -0.540  -0.539  -0.532
 -0.514  -0.506  -0.486  -0.475  -0.464  -0.455  -0.444  -0.439
 -0.436  -0.431  -0.420  -0.414  -0.410  -0.405  -0.400  -0.390
 -0.389  -0.382  -0.378  -0.367  -0.358  -0.356  -0.349  -0.347
 -0.342  -0.334  -0.333  -0.330  -0.328  -0.324  -0.313  -0.312
 -0.307  -0.304  -0.302  -0.297  -0.293  -0.289  -0.280  -0.279
 -0.269  -0.259  -0.244  -0.242  -0.236  -0.231  -0.227  -0.182
 -0.175  -0.171  -0.161  -0.157  -0.148  -0.147  -0.145  -0.141
 -0.132

          Ground-State Mulliken Net Atomic Charges

     Atom                 Charge (a.u.)
  ----------------------------------------
      1 O                    -0.209024
      2 C                     0.209229
      3 C                    -0.079719
      4 C                    -0.080116
      5 C                     0.217191
      6 O                    -0.161580
      7 C                    -0.048080
      8 C                    -0.052059
      9 O                    -0.173946
     10 C                     0.221132
     11 C                    -0.080010
     12 C                    -0.075809
     13 C                     0.214006
     14 O                    -0.215414
     15 O                    -0.169496
     16 O                    -0.164645
     17 O                    -0.231811
     18 C                    -0.132948
     19 C                     0.023757
     20 C                    -0.141989
     21 C                    -0.145435
     22 C                     0.023352
     23 O                    -0.191480
     24 H                     0.079780
     25 H                     0.086157
     26 H                     0.092006
     27 H                     0.076640
     28 H                     0.072327
     29 H                     0.077385
     30 H                     0.073307
     31 H                     0.084364
     32 O                    -0.221954
     33 C                    -0.128859
     34 C                     0.026307
     35 C                    -0.142827
     36 C                    -0.144876
     37 C                     0.026830
     38 O                    -0.184429
     39 H                     0.086777
     40 H                     0.083588
     41 H                     0.091867
     42 H                     0.083901
     43 H                     0.078469
     44 H                     0.074425
     45 H                     0.078330
     46 H                     0.073636
     47 H                     0.085847
     48 H                     0.089626
     49 H                     0.091320
     50 H                     0.110717
     51 H                     0.083511
     52 H                     0.090029
     53 H                     0.086191
     54 H                     0.094863
     55 H                     0.091282
     56 H                     0.098357
  ----------------------------------------
  Sum of atomic charges =    -0.000000

                    Cartesian Multipole Moments
 -----------------------------------------------------------------
    Charge (ESU x 10^10)
                 0.0000
    Dipole Moment (Debye)
         X      -2.3331      Y       0.9018      Z       0.3186
       Tot       2.5215
    Quadrupole Moments (Debye-Ang)
        XX    -143.9286     XY       6.8855     YY    -155.3721
        XZ      14.6902     YZ       0.8608     ZZ    -161.6654

 Total job time:  53.45s(wall), 2542.94s(cpu)
        *  Thank you very much for using Q-Chem.  Have a nice day.  *
