 Q-Chem 5.0, Q-Chem, Inc., Pleasanton, CA (2017)
 Q-Chem 5.0.1 for Intel X86 EM64T Linux

User input:
--------------------------------------------------------------
$molecule
0  1
O -2.6693573741 1.8686771929 0.20535271
C -3.6356733064 1.6136702847 -0.546917812
C -4.3394475788 0.236266468 -0.7817673364
C -3.3899721365 -1.0198177251 -0.5846975751
C -1.9532620476 -0.6411313594 -0.0599598932
O -1.9875114409 -0.5628534959 1.3659105388
C -0.6621858662 -0.2754368639 1.972662937
C 0.5259293319 -1.190567887 1.4918343163
O 1.7002755246 -0.2965171476 1.3627072243
C 2.8809421576 -1.087009173 1.1744683163
C 4.1319810612 -0.1514206584 1.0010542053
C 4.9617571017 -0.4738781863 -0.3083380572
C 4.0854342884 -1.0415568221 -1.4940228944
O 4.4801794491 -1.3602495247 -2.6362248179
O -4.3240541602 2.5990818237 -1.323609838
O 2.708148566 -0.9242765725 -1.1325609763
O 2.9131479558 -2.3333573346 1.2765545959
C 1.7928176622 -1.3095927236 -2.2278799164
C 3.902781845 1.4141174231 0.8528085119
C 5.1948425501 2.111615823 1.4297531522
C 6.2539513092 1.6955065647 0.3412381437
C 5.3346590189 1.0098424141 -0.7482314611
O 4.0222840791 1.6858541858 -0.599569529
H 4.7755412773 -0.3434755042 1.8802345939
H 5.8381493311 -1.1208839021 -0.129081186
H 2.9322679417 1.7779496924 1.2404402163
H 5.0591167074 3.2048426293 1.4575132642
H 5.4544594612 1.7592459561 2.4407769105
H 6.7703878198 2.5710379032 -0.0829593531
H 7.0113049937 0.9972933959 0.7332062195
H 5.6989195333 1.0912602295 -1.7910614777
O -0.9488423465 -0.4575031563 -0.7856667011
C -3.7232333077 3.9342506887 -1.0949062076
C -5.4824729001 -0.0743137202 0.284506809
C -6.4245423148 -1.1787017806 -0.3379987377
C -5.5026535266 -2.4499687223 -0.2332579206
C -4.2255409197 -1.8490019641 0.4802602781
O -4.7790731785 -0.7963628007 1.3648678267
H -4.7662834723 0.2514848555 -1.8003446983
H -3.2615794343 -1.5658766587 -1.53608922
H -2.6537059423 3.9546006527 -1.3879357268
H -5.9998409268 0.8203646938 0.6819696749
H -7.3363129429 -1.2906255602 0.2705433834
H -6.7167530097 -0.944516187 -1.3740677402
H -5.9610928282 -3.2326697539 0.3915523753
H -5.2605335382 -2.8813490614 -1.2176852297
H -3.6291593915 -2.5723124229 1.0685016791
H -3.8024641335 4.2403191766 -0.0317290726
H -4.2949868342 4.6381890886 -1.7270375549
H 0.7788615923 -1.0157654406 -1.8827157666
H 1.8294613649 -2.4025695899 -2.414981712
H 2.0478353066 -0.7786891796 -3.1670568153
H 0.7300271789 -2.002897846 2.2219241928
H 0.2938406772 -1.6538504198 0.5123593928
H -0.8274369836 -0.3788168184 3.0630203171
H -0.3818118804 0.7798710113 1.7535183279
$end

$rem
JOBTYPE                   OPT
METHOD                    B3LYP
DFT_D                     d3_op
BASIS                     STO-3G
GEOM_OPT_MAX_CYCLES       100
GEOM_OPT_TOL_GRADIENT     300
GEOM_OPT_TOL_DISPLACEMENT 1200
GEOM_OPT_TOL_ENERGY       100
SYMMETRY                  False
THRESH                    12
SCF_CONVERGENCE           8
MAX_SUB_FILE_NUM          128
MEM_STATIC                400
MEM_TOTAL                 4000
$end
--------------------------------------------------------------

   16   -1510.2746841236      5.37E-09 Convergence criterion met
 Total energy in the final basis set = -1510.27468412
   14   -1510.2713414241      9.29E-09 Convergence criterion met
 Total energy in the final basis set = -1510.27134142
   13   -1510.2787942144      6.82E-09 Convergence criterion met
 Total energy in the final basis set = -1510.27879421
   13   -1510.2803210025      7.67E-09 Convergence criterion met
 Total energy in the final basis set = -1510.28032100
   13   -1510.2821729199      9.74E-09 Convergence criterion met
 Total energy in the final basis set = -1510.28217292
   13   -1510.2837934633      5.26E-09 Convergence criterion met
 Total energy in the final basis set = -1510.28379346
   13   -1510.2850155812      8.04E-09 Convergence criterion met
 Total energy in the final basis set = -1510.28501558
   13   -1510.2858804817      5.05E-09 Convergence criterion met
   12   -1510.2909241839      4.80E-09 Convergence criterion met
 Total energy in the final basis set = -1510.29092418
   11   -1510.2909687106      6.56E-09 Convergence criterion met
 Total energy in the final basis set = -1510.29096871
   11   -1510.2909706164      6.80E-09 Convergence criterion met
 Total energy in the final basis set = -1510.29097062
   10   -1510.2909675820      7.30E-09 Convergence criterion met
 Total energy in the final basis set = -1510.29096758
    9   -1510.2909716858      8.06E-09 Convergence criterion met
 Total energy in the final basis set = -1510.29097169
    9   -1510.2909733770      7.20E-09 Convergence criterion met
 Total energy in the final basis set = -1510.29097338

             Standard Nuclear Orientation (Angstroms)
    I     Atom           X                Y                Z
 ----------------------------------------------------------------
    1      O      -2.6859062575     2.1399295190    -0.5711632097
    2      C      -3.9058942721     1.8652467238    -0.6320484420
    3      C      -4.5443101279     0.4625373901    -0.9114240117
    4      C      -3.4747771380    -0.7060994625    -0.9439606019
    5      C      -1.9888916360    -0.2373016271    -0.7238599571
    6      O      -1.7372724591    -0.1193538897     0.6785283748
    7      C      -0.3448281282     0.3215371683     0.9312378929
    8      C       0.5181931743    -0.8910983672     1.4271776969
    9      O       1.9071178112    -0.4006759538     1.5863424710
   10      C       2.8419934175    -1.3663777548     1.0920284302
   11      C       4.2907283455    -0.7517268164     1.1115273172
   12      C       4.8635699552    -0.5105503628    -0.3534250514
   13      C       3.9049729867    -0.9656748703    -1.5042315825
   14      O       4.2049664221    -1.6617732363    -2.4987245340
   15      O      -4.9519912484     2.8199611836    -0.4554419016
   16      O       2.5972149780    -0.4472722735    -1.2471101640
   17      O       2.5317181187    -2.5249273379     0.7358526225
   18      C       1.6360866538    -0.9529711066    -2.2567969834
   19      C       4.3413874797     0.7191045262     1.6969322416
   20      C       5.8504352107     1.0987269631     1.9754064776
   21      C       6.3723370956     1.3753322400     0.5169191605
   22      C       5.0751758621     1.0683902401    -0.3295821677
   23      O       3.9774969719     1.5590943542     0.5315201647
   24      H       4.9447698447    -1.4436448501     1.6728602071
   25      H       5.8230398007    -1.0373180037    -0.4985858321
   26      H       3.6434945063     0.8996071019     2.5359052248
   27      H       5.9110184515     2.0007520312     2.6046057958
   28      H       6.3971204967     0.2827108093     2.4746909370
   29      H       6.6737702096     2.4271534587     0.3881599631
   30      H       7.2182200217     0.7281580928     0.2350713122
   31      H       5.0347123236     1.5523778680    -1.3246798821
   32      O      -1.1309601279    -0.0968563726    -1.6266155561
   33      C      -4.3772344160     4.1569915502    -0.1745729227
   34      C      -5.4834409999    -0.0154645774     0.2794785343
   35      C      -6.3631482860    -1.2218117100    -0.2350097403
   36      C      -5.2993441143    -2.3811303066    -0.2660860953
   37      C      -4.0074113715    -1.6236511457     0.2381351975
   38      O      -4.5361826455    -0.6503858637     1.2219100634
   39      H      -5.1077004219     0.5219223293    -1.8609040146
   40      H      -3.5044457578    -1.2313473897    -1.9148435436
   41      H      -3.7435220583     4.5121391083    -1.0126210961
   42      H      -6.0400373412     0.8058714151     0.7711175319
   43      H      -7.1746556527    -1.4370911408     0.4780958568
   44      H      -6.8053529876    -1.0209852914    -1.2238408826
   45      H      -5.5665015185    -3.1927887368     0.4291353364
   46      H      -5.1637918553    -2.8084580130    -1.2723866538
   47      H      -3.2348786373    -2.2637844597     0.7054624046
   48      H      -3.7667555258     4.1496736316     0.7513354142
   49      H      -5.2389604735     4.8373257620    -0.0460266304
   50      H       0.6324287607    -0.5677384000    -1.9651286352
   51      H       1.6266492933    -2.0614948328    -2.2704611285
   52      H       1.8984878487    -0.5931611195    -3.2718166134
   53      H       0.1361456170    -1.2665539580     2.4013606418
   54      H       0.4996503759    -1.7272855715     0.6952098337
   55      H      -0.3885227328     1.1056754837     1.7143322569
   56      H       0.0999065904     0.7432553701     0.0055566486
 ----------------------------------------------------------------

    9   -1510.2909739274      6.34E-09 Convergence criterion met
 Total energy in the final basis set = -1510.29097393
 Final energy is   -1510.29097392740
 **  OPTIMIZATION CONVERGED  **

                    Orbital Energies (a.u.)
 --------------------------------------------------------------

 Alpha MOs
 -- Occupied --
-18.946 -18.931 -18.925 -18.922 -18.891 -18.889 -18.882 -18.873
-18.864 -18.862 -10.110 -10.104 -10.094 -10.088 -10.072 -10.064
-10.063 -10.063 -10.062 -10.055 -10.053 -10.044 -10.039 -10.034
-10.032 -10.030 -10.023 -10.022 -10.016 -10.015  -1.023  -1.009
 -1.005  -0.996  -0.974  -0.964  -0.947  -0.936  -0.928  -0.924
 -0.767  -0.757  -0.727  -0.720  -0.714  -0.704  -0.689  -0.669
 -0.642  -0.611  -0.595  -0.576  -0.549  -0.541  -0.540  -0.532
 -0.517  -0.507  -0.487  -0.474  -0.469  -0.461  -0.451  -0.437
 -0.434  -0.429  -0.423  -0.418  -0.412  -0.403  -0.397  -0.396
 -0.391  -0.382  -0.374  -0.370  -0.359  -0.356  -0.349  -0.346
 -0.338  -0.337  -0.333  -0.331  -0.326  -0.323  -0.317  -0.313
 -0.308  -0.303  -0.301  -0.298  -0.289  -0.288  -0.283  -0.279
 -0.268  -0.263  -0.246  -0.243  -0.238  -0.235  -0.228  -0.189
 -0.177  -0.165  -0.164  -0.161  -0.154  -0.149  -0.147  -0.139
 -0.138

          Ground-State Mulliken Net Atomic Charges

     Atom                 Charge (a.u.)
  ----------------------------------------
      1 O                    -0.205724
      2 C                     0.214983
      3 C                    -0.077984
      4 C                    -0.080771
      5 C                     0.223481
      6 O                    -0.169216
      7 C                    -0.049624
      8 C                    -0.051027
      9 O                    -0.171075
     10 C                     0.216429
     11 C                    -0.077893
     12 C                    -0.080036
     13 C                     0.207909
     14 O                    -0.213384
     15 O                    -0.168335
     16 O                    -0.171791
     17 O                    -0.223784
     18 C                    -0.145918
     19 C                     0.025171
     20 C                    -0.144849
     21 C                    -0.143580
     22 C                     0.025930
     23 O                    -0.186091
     24 H                     0.083002
     25 H                     0.083919
     26 H                     0.089776
     27 H                     0.076710
     28 H                     0.072381
     29 H                     0.077048
     30 H                     0.073553
     31 H                     0.082696
     32 O                    -0.221862
     33 C                    -0.127996
     34 C                     0.025022
     35 C                    -0.143702
     36 C                    -0.144286
     37 C                     0.026781
     38 O                    -0.187122
     39 H                     0.087512
     40 H                     0.085038
     41 H                     0.091855
     42 H                     0.088066
     43 H                     0.078817
     44 H                     0.074013
     45 H                     0.078690
     46 H                     0.074222
     47 H                     0.086547
     48 H                     0.092382
     49 H                     0.092833
     50 H                     0.113237
     51 H                     0.081925
     52 H                     0.081254
     53 H                     0.081861
     54 H                     0.096092
     55 H                     0.090402
     56 H                     0.106513
  ----------------------------------------
  Sum of atomic charges =    -0.000000

                    Cartesian Multipole Moments
 -----------------------------------------------------------------
    Charge (ESU x 10^10)
                -0.0000
    Dipole Moment (Debye)
         X      -2.5752      Y       1.3354      Z       0.8941
       Tot       3.0355
    Quadrupole Moments (Debye-Ang)
        XX    -136.3586     XY       3.3589     YY    -157.3406
        XZ      13.8159     YZ      -1.6492     ZZ    -161.5643

 Total job time:  76.74s(wall), 3655.90s(cpu)
        *  Thank you very much for using Q-Chem.  Have a nice day.  *
