 Q-Chem 5.0, Q-Chem, Inc., Pleasanton, CA (2017)
 Q-Chem 5.0.1 for Intel X86 EM64T Linux

User input:
--------------------------------------------------------------
$molecule
0  1
O -3.94934 -3.66094 2.70899
C -3.26408 -4.56952 2.26188
C -3.36658 -6.02376 2.66595
C -3.09138 -6.36459 4.13971
C -2.91895 -5.19381 5.08185
O -4.14226 -4.71941 5.46119
C -4.0626 -3.65975 6.42037
C -3.62927 -4.20898 7.77562
O -2.60199 -3.37588 8.33554
C -2.20163 -3.70633 9.58841
C -1.09889 -2.81489 10.108
C 0.31666 -3.20943 9.66208
C 0.39714 -4.18571 8.50575
O 1.42943 -4.61243 8.00892
O -2.34719 -4.28102 1.30088
O -0.66345 -4.94998 8.12557
O -2.81983 -4.47464 10.31509
C -0.56607 -6.12709 7.39179
C -1.16277 -1.35357 9.62398
C -0.40183 -0.45278 10.59584
C 1.0272 -0.86399 10.30328
C 0.80223 -1.84216 9.14482
O -0.33487 -1.33374 8.48739
H -1.17345 -2.83459 11.21948
H 0.94485 -3.61451 10.48563
H -2.20204 -0.98321 9.48517
H -0.54667 0.5964 10.25156
H -0.71078 -0.53485 11.66011
H 1.58488 0.03302 9.95321
H 1.56746 -1.34343 11.14818
H 1.72354 -1.9265 8.52673
O -1.88187 -4.54564 5.14741
C -2.11759 -3.01661 0.80023
C -4.78808 -6.5884 2.49289
C -4.72905 -8.10722 2.3326
C -4.36604 -8.52591 3.74265
C -4.38009 -7.16537 4.44846
O -5.37496 -6.44338 3.76159
H -2.66915 -6.58635 2.00363
H -2.19685 -7.0116 4.27886
H -1.78598 -2.33726 1.61448
H -5.33786 -6.13041 1.64147
H -5.7634 -8.45756 2.11449
H -4.0435 -8.47102 1.53725
H -5.1816 -9.17201 4.13732
H -3.38769 -9.04235 3.84939
H -4.53669 -7.30017 5.54167
H -3.04177 -2.61723 0.33035
H -1.31979 -3.06906 0.03129
H -1.56496 -6.57438 7.23463
H 0.04707 -6.86826 7.94773
H -0.09759 -5.93416 6.40362
H -4.52424 -4.2694 8.43554
H -3.24273 -5.23949 7.68272
H -5.05244 -3.16735 6.52899
H -3.37357 -2.86332 6.05552
$end

$opt
CONSTRAINT
tors           1           2           3           4     -61.159
tors           3           4           5           6     +81.630
tors           4           5           6           7    +176.382
tors           5           6           7           8     -71.886
tors           6           7           8           9    +133.988
tors           7           8           9          10    +175.356
tors           8           9          10          11    +178.645
tors           9          10          11          12     -83.278
tors          11          12          13          14    +179.747
ENDCONSTRAINT
$end

$rem
JOBTYPE                   OPT
METHOD                    B3LYP
DFT_D                     d3_op
BASIS                     STO-3G
GEOM_OPT_MAX_CYCLES       100
GEOM_OPT_TOL_GRADIENT     300
GEOM_OPT_TOL_DISPLACEMENT 1200
GEOM_OPT_TOL_ENERGY       100
SYMMETRY                  False
THRESH                    12
SCF_CONVERGENCE           8
MAX_SUB_FILE_NUM          128
MEM_STATIC                400
MEM_TOTAL                 4000
$end
--------------------------------------------------------------

   15   -1510.1316495027      6.76E-09 Convergence criterion met
 Total energy in the final basis set = -1510.13164950
   14   -1510.2053010244      7.39E-09 Convergence criterion met
 Total energy in the final basis set = -1510.20530102
   14   -1510.2442557712      7.26E-09 Convergence criterion met
 Total energy in the final basis set = -1510.24425577
   14   -1510.2613199003      9.08E-09 Convergence criterion met
 Total energy in the final basis set = -1510.26131990
   14   -1510.2710857434      4.84E-09 Convergence criterion met
 Total energy in the final basis set = -1510.27108574
   13   -1510.2748473872      4.84E-09 Convergence criterion met
 Total energy in the final basis set = -1510.27484739
   13   -1510.2766763519      5.04E-09 Convergence criterion met
 Total energy in the final basis set = -1510.27667635
   12   -1510.2772948381      6.58E-09 Convergence criterion met
   11   -1510.2803343227      9.09E-09 Convergence criterion met
 Total energy in the final basis set = -1510.28033432
   10   -1510.2803590562      8.74E-09 Convergence criterion met
 Total energy in the final basis set = -1510.28035906
   10   -1510.2803654991      8.27E-09 Convergence criterion met
 Total energy in the final basis set = -1510.28036550
    9   -1510.2803727774      7.44E-09 Convergence criterion met
 Total energy in the final basis set = -1510.28037278
    9   -1510.2803798184      6.57E-09 Convergence criterion met
 Total energy in the final basis set = -1510.28037982
    9   -1510.2803920094      7.08E-09 Convergence criterion met
 Total energy in the final basis set = -1510.28039201

             Standard Nuclear Orientation (Angstroms)
    I     Atom           X                Y                Z
 ----------------------------------------------------------------
    1      O      -3.1733690508     1.8633166304     1.4056105820
    2      C      -3.6605472765     1.7758442319     0.2578061144
    3      C      -4.1905311306     0.4966869651    -0.4759919732
    4      C      -3.0840042709    -0.6273836942    -0.6946214432
    5      C      -1.6952238323    -0.2619668321    -0.0610989325
    6      O      -1.7172822554    -0.5637967121     1.3300197722
    7      C      -0.3967950255    -0.3161870711     1.9580492620
    8      C       0.6902056644    -1.3816942397     1.5425943520
    9      O       1.9135642559    -0.6200286851     1.2009174525
   10      C       2.9893643248    -1.5262477939     0.9141997585
   11      C       4.2683433513    -0.7005923423     0.5203132417
   12      C       4.3825435589    -0.2168863360    -0.9881639114
   13      C       3.2356877011    -0.5797641913    -1.9968971655
   14      O       3.2196406166    -0.2475620575    -3.2041449514
   15      O      -3.8282360617     2.8917685849    -0.6262812028
   16      O       2.2265480435    -1.3661073421    -1.3734487864
   17      O       2.9210588216    -2.7656375538     1.0636717959
   18      C       1.0576568045    -1.5466257616    -2.2677928645
   19      C       4.3232638476     0.6953739353     1.2808499399
   20      C       5.8051087972     1.2401856461     1.2345501583
   21      C       5.9028094050     1.7273109122    -0.2580247907
   22      C       4.4612912991     1.3627062389    -0.7910615717
   23      O       3.5874759161     1.6087610223     0.3764837014
   24      H       5.1383338853    -1.3328477257     0.7725787465
   25      H       5.3234749679    -0.5884758718    -1.4343490195
   26      H       3.8542310900     0.6851437561     2.2832032508
   27      H       5.9303214835     2.0750655778     1.9421516760
   28      H       6.5427795934     0.4585457178     1.4767493414
   29      H       6.0699859987     2.8145778225    -0.3186256690
   30      H       6.6977038670     1.2156045500    -0.8237724588
   31      H       4.1194433680     1.9445296914    -1.6691255865
   32      O      -0.7085028060     0.2204072040    -0.6662762552
   33      C      -3.3254657808     4.1274092835     0.0186258190
   34      C      -5.2605385709    -0.3047341774     0.3877128447
   35      C      -6.0518412656    -1.2632916024    -0.5874967854
   36      C      -4.9684694061    -2.3706499920    -0.8637739371
   37      C      -3.7703414725    -1.8595741366     0.0323261254
   38      O      -4.4419356868    -1.2353410512     1.1946809765
   39      H      -4.6153612705     0.8178621440    -1.4430605215
   40      H      -2.9211037289    -0.8107483331    -1.7716031813
   41      H      -2.2501438186     4.0430412819     0.2768212107
   42      H      -5.8889059062     0.3274900682     1.0445601889
   43      H      -6.9361295558    -1.6810383967    -0.0802327905
   44      H      -6.3793564629    -0.7482014197    -1.5044646108
   45      H      -5.3070909470    -3.3626005481    -0.5246830746
   46      H      -4.6910547640    -2.4377118788    -1.9280024032
   47      H      -3.0650120352    -2.6436203146     0.3685736362
   48      H      -3.8915171115     4.3645466139     0.9426150611
   49      H      -3.4667094697     4.9371341565    -0.7204945020
   50      H       0.7541778417    -2.6095641083    -2.2190369889
   51      H       1.3368420916    -1.2684095041    -3.3033856137
   52      H       0.2382266071    -0.8896876087    -1.8936424003
   53      H       0.8866194199    -2.0982397820     2.3690311886
   54      H       0.3386886042    -1.9680447873     0.6655576898
   55      H      -0.5902260147    -0.3469209419     3.0477584941
   56      H      -0.0148310267     0.6904359738     1.6791898812
 ----------------------------------------------------------------

    9   -1510.2803935035      4.04E-09 Convergence criterion met
 Total energy in the final basis set = -1510.28039350
 Final energy is   -1510.28039350345
 **  OPTIMIZATION CONVERGED  **

                    Orbital Energies (a.u.)
 --------------------------------------------------------------

 Alpha MOs
 -- Occupied --
-18.941 -18.935 -18.932 -18.921 -18.891 -18.884 -18.880 -18.876
-18.866 -18.858 -10.105 -10.099 -10.096 -10.092 -10.071 -10.066
-10.064 -10.063 -10.063 -10.056 -10.055 -10.044 -10.042 -10.040
-10.035 -10.031 -10.023 -10.022 -10.017 -10.016  -1.018  -1.010
 -1.008  -0.997  -0.972  -0.966  -0.941  -0.936  -0.930  -0.924
 -0.766  -0.758  -0.728  -0.720  -0.713  -0.704  -0.691  -0.664
 -0.652  -0.614  -0.596  -0.580  -0.549  -0.540  -0.539  -0.533
 -0.515  -0.510  -0.488  -0.473  -0.464  -0.459  -0.447  -0.437
 -0.435  -0.430  -0.421  -0.413  -0.409  -0.407  -0.406  -0.401
 -0.393  -0.379  -0.377  -0.367  -0.359  -0.352  -0.349  -0.347
 -0.344  -0.338  -0.334  -0.329  -0.327  -0.325  -0.319  -0.310
 -0.310  -0.307  -0.304  -0.302  -0.292  -0.286  -0.280  -0.280
 -0.273  -0.257  -0.249  -0.244  -0.237  -0.231  -0.230  -0.183
 -0.178  -0.170  -0.161  -0.157  -0.151  -0.150  -0.146  -0.142
 -0.138

          Ground-State Mulliken Net Atomic Charges

     Atom                 Charge (a.u.)
  ----------------------------------------
      1 O                    -0.209037
      2 C                     0.204022
      3 C                    -0.079366
      4 C                    -0.078969
      5 C                     0.210369
      6 O                    -0.157818
      7 C                    -0.047529
      8 C                    -0.046871
      9 O                    -0.168980
     10 C                     0.219000
     11 C                    -0.080537
     12 C                    -0.078151
     13 C                     0.213263
     14 O                    -0.219782
     15 O                    -0.169096
     16 O                    -0.168431
     17 O                    -0.222405
     18 C                    -0.144952
     19 C                     0.026414
     20 C                    -0.144746
     21 C                    -0.143702
     22 C                     0.025653
     23 O                    -0.186966
     24 H                     0.082412
     25 H                     0.084749
     26 H                     0.084236
     27 H                     0.076969
     28 H                     0.072997
     29 H                     0.077454
     30 H                     0.073456
     31 H                     0.086675
     32 O                    -0.214665
     33 C                    -0.129233
     34 C                     0.026452
     35 C                    -0.143441
     36 C                    -0.144532
     37 C                     0.027063
     38 O                    -0.182269
     39 H                     0.087188
     40 H                     0.084585
     41 H                     0.091323
     42 H                     0.084369
     43 H                     0.078628
     44 H                     0.074261
     45 H                     0.078564
     46 H                     0.073515
     47 H                     0.084788
     48 H                     0.088526
     49 H                     0.090905
     50 H                     0.080398
     51 H                     0.097675
     52 H                     0.104070
     53 H                     0.087146
     54 H                     0.086150
     55 H                     0.094726
     56 H                     0.103476
  ----------------------------------------
  Sum of atomic charges =    -0.000000

                    Cartesian Multipole Moments
 -----------------------------------------------------------------
    Charge (ESU x 10^10)
                -0.0000
    Dipole Moment (Debye)
         X      -1.1593      Y       0.4363      Z      -0.3694
       Tot       1.2926
    Quadrupole Moments (Debye-Ang)
        XX    -140.0648     XY       3.2095     YY    -157.4398
        XZ      11.5902     YZ       3.9745     ZZ    -164.5398

 Total job time:  65.89s(wall), 3137.95s(cpu)
        *  Thank you very much for using Q-Chem.  Have a nice day.  *
