 Q-Chem 5.0, Q-Chem, Inc., Pleasanton, CA (2017)
 Q-Chem 5.0.1 for Intel X86 EM64T Linux

User input:
--------------------------------------------------------------
$molecule
0  1
O -3.1733690508 1.8633166304 1.405610582
C -3.6605472765 1.7758442319 0.2578061144
C -4.1905311306 0.4966869651 -0.4759919732
C -3.0840042709 -0.6273836942 -0.6946214432
C -1.6952238323 -0.2619668321 -0.0610989325
O -1.7172822554 -0.5637967121 1.3300197722
C -0.3967950255 -0.3161870711 1.958049262
C 0.6902056644 -1.3816942397 1.542594352
O 1.9135642559 -0.6200286851 1.2009174525
C 2.9893643248 -1.5262477939 0.9141997585
C 4.2683433513 -0.7005923423 0.5203132417
C 4.3825435589 -0.216886336 -0.9881639114
C 3.2356877011 -0.5797641913 -1.9968971655
O 3.2196406166 -0.2475620575 -3.2041449514
O -3.8282360617 2.8917685849 -0.6262812028
O 2.2265480435 -1.3661073421 -1.3734487864
O 2.9210588216 -2.7656375538 1.0636717959
C 1.0576568045 -1.5466257616 -2.2677928645
C 4.3232638476 0.6953739353 1.2808499399
C 5.8051087972 1.2401856461 1.2345501583
C 5.902809405 1.7273109122 -0.2580247907
C 4.4612912991 1.3627062389 -0.7910615717
O 3.5874759161 1.6087610223 0.3764837014
H 5.1383338853 -1.3328477257 0.7725787465
H 5.3234749679 -0.5884758718 -1.4343490195
H 3.85423109 0.6851437561 2.2832032508
H 5.9303214835 2.0750655778 1.942151676
H 6.5427795934 0.4585457178 1.4767493414
H 6.0699859987 2.8145778225 -0.318625669
H 6.697703867 1.21560455 -0.8237724588
H 4.119443368 1.9445296914 -1.6691255865
O -0.708502806 0.220407204 -0.6662762552
C -3.3254657808 4.1274092835 0.018625819
C -5.2605385709 -0.3047341774 0.3877128447
C -6.0518412656 -1.2632916024 -0.5874967854
C -4.9684694061 -2.370649992 -0.8637739371
C -3.7703414725 -1.8595741366 0.0323261254
O -4.4419356868 -1.2353410512 1.1946809765
H -4.6153612705 0.817862144 -1.4430605215
H -2.9211037289 -0.8107483331 -1.7716031813
H -2.2501438186 4.0430412819 0.2768212107
H -5.8889059062 0.3274900682 1.0445601889
H -6.9361295558 -1.6810383967 -0.0802327905
H -6.3793564629 -0.7482014197 -1.5044646108
H -5.307090947 -3.3626005481 -0.5246830746
H -4.691054764 -2.4377118788 -1.9280024032
H -3.0650120352 -2.6436203146 0.3685736362
H -3.8915171115 4.3645466139 0.9426150611
H -3.4667094697 4.9371341565 -0.720494502
H 0.7541778417 -2.6095641083 -2.2190369889
H 1.3368420916 -1.2684095041 -3.3033856137
H 0.2382266071 -0.8896876087 -1.8936424003
H 0.8866194199 -2.098239782 2.3690311886
H 0.3386886042 -1.9680447873 0.6655576898
H -0.5902260147 -0.3469209419 3.0477584941
H -0.0148310267 0.6904359738 1.6791898812
$end

$rem
JOBTYPE                   OPT
METHOD                    B3LYP
DFT_D                     d3_op
BASIS                     STO-3G
GEOM_OPT_MAX_CYCLES       100
GEOM_OPT_TOL_GRADIENT     300
GEOM_OPT_TOL_DISPLACEMENT 1200
GEOM_OPT_TOL_ENERGY       100
SYMMETRY                  False
THRESH                    12
SCF_CONVERGENCE           8
MAX_SUB_FILE_NUM          128
MEM_STATIC                400
MEM_TOTAL                 4000
$end
--------------------------------------------------------------

   16   -1510.2804314534      4.90E-09 Convergence criterion met
 Total energy in the final basis set = -1510.28043145
   14   -1510.2792746350      3.58E-09 Convergence criterion met
 Total energy in the final basis set = -1510.27927463
   14   -1510.2795445429      6.22E-09 Convergence criterion met
 Total energy in the final basis set = -1510.27954454
   15   -1510.2806492528      2.58E-09 Convergence criterion met
 Total energy in the final basis set = -1510.28064925
   14   -1510.2818781015      4.98E-09 Convergence criterion met
 Total energy in the final basis set = -1510.28187810
   13   -1510.2828481014      4.59E-09 Convergence criterion met
 Total energy in the final basis set = -1510.28284810
   13   -1510.2837499218      9.27E-09 Convergence criterion met
 Total energy in the final basis set = -1510.28374992
   13   -1510.2846894442      4.88E-09 Convergence criterion met
   10   -1510.2938521589      9.05E-09 Convergence criterion met
 Total energy in the final basis set = -1510.29385216
   12   -1510.2938350322      2.41E-09 Convergence criterion met
 Total energy in the final basis set = -1510.29383503
   11   -1510.2938100569      8.36E-09 Convergence criterion met
 Total energy in the final basis set = -1510.29381006
   11   -1510.2937951061      3.80E-09 Convergence criterion met
 Total energy in the final basis set = -1510.29379511
   10   -1510.2938230743      6.58E-09 Convergence criterion met
 Total energy in the final basis set = -1510.29382307
    9   -1510.2938113089      9.59E-09 Convergence criterion met
 Total energy in the final basis set = -1510.29381131

             Standard Nuclear Orientation (Angstroms)
    I     Atom           X                Y                Z
 ----------------------------------------------------------------
    1      O      -1.9999596350     1.0260710034    -1.1861840524
    2      C      -3.2492572444     1.0423317760    -1.2806119633
    3      C      -4.2380398594    -0.1180854969    -0.9225987282
    4      C      -3.5055852579    -1.3837534700    -0.3106616853
    5      C      -1.9430619005    -1.2133224135    -0.2058849356
    6      O      -1.6307947085    -0.5728814472     1.0328313022
    7      C      -0.2107065293    -0.1508168508     1.0926929301
    8      C       0.8118326123    -1.3437948327     1.1503547557
    9      O       2.1447767282    -0.7042139406     1.0571631047
   10      C       3.1114697864    -1.5814448518     0.4679506371
   11      C       4.4136752673    -0.7403271958     0.2503630585
   12      C       4.1374205912     0.6188799821    -0.5227839578
   13      C       2.6448339827     0.7986939162    -0.9869128887
   14      O       1.8646339538     1.7335534329    -0.7003753772
   15      O      -3.9968291895     2.1613506609    -1.7518378739
   16      O       2.3396056366    -0.2769136011    -1.8771366797
   17      O       2.9085407485    -2.7828476773     0.1940836945
   18      C       0.9687924808    -0.1404679206    -2.4319166449
   19      C       4.9849015327    -0.1743547652     1.6242294636
   20      C       6.4394023741     0.3911565539     1.3660208751
   21      C       6.1162405620     1.7505643526     0.6406523196
   22      C       4.5411638262     1.6877688583     0.5729076165
   23      O       4.1713156172     1.0396601646     1.8529661607
   24      H       5.1500386353    -1.3720190328    -0.2760685703
   25      H       4.7845968170     0.6907864807    -1.4159392788
   26      H       4.8948415225    -0.8700647005     2.4810876053
   27      H       6.9629922456     0.5553283319     2.3212856947
   28      H       7.0435963147    -0.2889373541     0.7444136205
   29      H       6.4427872502     2.6148800714     1.2406342504
   30      H       6.5742223903     1.8206447276    -0.3589968729
   31      H       4.0174438581     2.6576349527     0.4665698513
   32      O      -1.1122425849    -1.6862367004    -1.0192196467
   33      C      -3.0795554544     3.2771090880    -2.0873355244
   34      C      -5.2160830829     0.2746399877     0.2676217045
   35      C      -6.4022340563    -0.7680968541     0.2932700871
   36      C      -5.6814525960    -2.0296275745     0.8984162028
   37      C      -4.2159013587    -1.4761189935     1.1065193499
   38      O      -4.4329152860    -0.0577598482     1.4775352481
   39      H      -4.8086642851    -0.3781554897    -1.8328536390
   40      H      -3.6966266562    -2.2795477416    -0.9279257087
   41      H      -2.3909105140     3.0015400018    -2.9119747994
   42      H      -5.5176071771     1.3401242430     0.2718951998
   43      H      -7.2120762606    -0.4121846544     0.9498498101
   44      H      -6.8161008088    -0.9520510814    -0.7109956074
   45      H      -6.1212744488    -2.3197719036     1.8657315796
   46      H      -5.7066433390    -2.9004651044     0.2239849988
   47      H      -3.6216139537    -1.9921244424     1.8845317293
   48      H      -2.4746086904     3.5833289674    -1.2098789070
   49      H      -3.7252359812     4.1152940299    -2.4072843056
   50      H       1.0168917777    -0.4628096070    -3.4888346380
   51      H       0.6305161959     0.9122663633    -2.3678675642
   52      H       0.2486727273    -0.7865941845    -1.8738721597
   53      H       0.7118435407    -1.9120311795     2.1004087550
   54      H       0.6404539209    -2.0319884586     0.2965363588
   55      H      -0.1298478337     0.4557262541     2.0166816796
   56      H       0.0381501931     0.4981414287     0.2240528249
 ----------------------------------------------------------------

    9   -1510.2938109582      3.87E-09 Convergence criterion met
 Total energy in the final basis set = -1510.29381096
 Final energy is   -1510.29381095818
 **  OPTIMIZATION CONVERGED  **

                    Orbital Energies (a.u.)
 --------------------------------------------------------------

 Alpha MOs
 -- Occupied --
-18.948 -18.930 -18.924 -18.917 -18.891 -18.890 -18.882 -18.870
-18.869 -18.860 -10.111 -10.103 -10.092 -10.089 -10.072 -10.064
-10.061 -10.060 -10.058 -10.055 -10.051 -10.044 -10.038 -10.031
-10.029 -10.029 -10.023 -10.021 -10.016 -10.015  -1.025  -1.008
 -1.004  -0.994  -0.973  -0.964  -0.948  -0.935  -0.929  -0.922
 -0.766  -0.757  -0.727  -0.721  -0.712  -0.700  -0.688  -0.669
 -0.643  -0.610  -0.594  -0.578  -0.549  -0.540  -0.539  -0.531
 -0.516  -0.505  -0.487  -0.471  -0.465  -0.455  -0.449  -0.439
 -0.436  -0.429  -0.425  -0.418  -0.413  -0.398  -0.397  -0.395
 -0.384  -0.380  -0.374  -0.364  -0.360  -0.356  -0.351  -0.341
 -0.338  -0.335  -0.334  -0.329  -0.326  -0.321  -0.320  -0.316
 -0.308  -0.305  -0.302  -0.299  -0.290  -0.284  -0.283  -0.275
 -0.267  -0.263  -0.248  -0.239  -0.236  -0.235  -0.228  -0.190
 -0.176  -0.168  -0.165  -0.157  -0.149  -0.147  -0.144  -0.140
 -0.137

          Ground-State Mulliken Net Atomic Charges

     Atom                 Charge (a.u.)
  ----------------------------------------
      1 O                    -0.206753
      2 C                     0.215830
      3 C                    -0.078369
      4 C                    -0.081251
      5 C                     0.223444
      6 O                    -0.168594
      7 C                    -0.050506
      8 C                    -0.055683
      9 O                    -0.171925
     10 C                     0.213443
     11 C                    -0.078239
     12 C                    -0.077696
     13 C                     0.213583
     14 O                    -0.221239
     15 O                    -0.167311
     16 O                    -0.177956
     17 O                    -0.210607
     18 C                    -0.151779
     19 C                     0.025800
     20 C                    -0.144081
     21 C                    -0.143849
     22 C                     0.024423
     23 O                    -0.186360
     24 H                     0.084665
     25 H                     0.082680
     26 H                     0.081653
     27 H                     0.076948
     28 H                     0.073229
     29 H                     0.076887
     30 H                     0.072401
     31 H                     0.089134
     32 O                    -0.224074
     33 C                    -0.128104
     34 C                     0.025308
     35 C                    -0.143614
     36 C                    -0.144331
     37 C                     0.026753
     38 O                    -0.186409
     39 H                     0.087562
     40 H                     0.084394
     41 H                     0.091308
     42 H                     0.087317
     43 H                     0.078765
     44 H                     0.073820
     45 H                     0.078623
     46 H                     0.073999
     47 H                     0.087646
     48 H                     0.095080
     49 H                     0.093192
     50 H                     0.078406
     51 H                     0.089322
     52 H                     0.109221
     53 H                     0.080871
     54 H                     0.104447
     55 H                     0.093022
     56 H                     0.105560
  ----------------------------------------
  Sum of atomic charges =    -0.000000

                    Cartesian Multipole Moments
 -----------------------------------------------------------------
    Charge (ESU x 10^10)
                 0.0000
    Dipole Moment (Debye)
         X      -1.8000      Y       0.7949      Z      -1.3202
       Tot       2.3696
    Quadrupole Moments (Debye-Ang)
        XX    -133.3986     XY       5.6827     YY    -160.0195
        XZ       4.7553     YZ      -8.1067     ZZ    -159.0274

 Total job time:  148.48s(wall), 7077.72s(cpu)
        *  Thank you very much for using Q-Chem.  Have a nice day.  *
