 Q-Chem 5.0, Q-Chem, Inc., Pleasanton, CA (2017)
 Q-Chem 5.0.1 for Intel X86 EM64T Linux

User input:
--------------------------------------------------------------
$molecule
0  1
O -3.94934 -3.66094 2.70899
C -3.26408 -4.56952 2.26188
C -3.36658 -6.02376 2.66595
C -2.74088 -6.42481 4.01187
C -2.23927 -5.29631 4.88535
O -3.29711 -4.62668 5.43123
C -3.0256 -4.11698 6.74109
C -2.96816 -5.26054 7.74862
O -1.7478 -5.18779 8.50247
C -1.87397 -5.39132 9.83731
C -0.55382 -5.33448 10.56851
C -0.43804 -6.28362 11.77018
C -1.4822 -7.37909 11.84997
O -1.45586 -8.32872 12.61944
O -2.43622 -4.30225 1.21728
O -2.48042 -7.49555 10.93357
O -2.91187 -5.10948 10.42969
C -3.43971 -8.48954 10.8878
C 0.67824 -5.79608 9.74807
C 1.94759 -5.18124 10.33725
C 2.06749 -5.96077 11.62927
C 0.91158 -6.95152 11.45819
O 0.83275 -7.15577 10.06898
H -0.40463 -4.27059 10.86147
H -0.45359 -5.74927 12.74515
H 0.629 -5.55537 8.66491
H 2.78977 -5.47388 9.66941
H 1.93878 -4.07558 10.44791
H 3.04594 -6.49063 11.63028
H 1.95606 -5.36148 12.55889
H 1.08928 -7.86101 12.07368
O -1.07683 -5.20012 5.26104
C -2.25186 -3.04908 0.6715
C -4.81447 -6.51013 2.85227
C -4.88447 -8.02059 2.63966
C -4.18204 -8.51294 3.88814
C -3.9429 -7.18543 4.61973
O -5.04191 -6.3924 4.23602
H -2.88492 -6.60465 1.84537
H -1.87077 -7.1016 3.85428
H -1.85088 -2.35314 1.43919
H -5.53939 -5.99094 2.18776
H -5.95809 -8.31076 2.6985
H -4.45872 -8.38492 1.68002
H -4.89347 -9.1496 4.46006
H -3.23454 -9.06732 3.71407
H -3.83628 -7.3854 5.70098
H -3.21349 -2.65831 0.27532
H -1.52407 -3.11905 -0.16272
H -4.11304 -8.30331 10.02604
H -4.04244 -8.48213 11.82095
H -2.9581 -9.48193 10.75628
H -3.91975 -5.36637 8.3165
H -2.86751 -6.21507 7.20875
H -3.82789 -3.41471 7.0509
H -2.08565 -3.51796 6.73249
$end

$opt
CONSTRAINT
tors           1           2           3           4     -77.043
tors           3           4           5           6     +73.103
tors           4           5           6           7    +146.766
tors           5           6           7           8     -71.886
tors           6           7           8           9    +127.890
tors           7           8           9          10    +136.209
tors           8           9          10          11    +178.645
tors           9          10          11          12    -145.919
tors          11          12          13          14    +169.706
ENDCONSTRAINT
$end

$rem
JOBTYPE                   OPT
METHOD                    B3LYP
DFT_D                     d3_op
BASIS                     STO-3G
GEOM_OPT_MAX_CYCLES       100
GEOM_OPT_TOL_GRADIENT     300
GEOM_OPT_TOL_DISPLACEMENT 1200
GEOM_OPT_TOL_ENERGY       100
SYMMETRY                  False
THRESH                    12
SCF_CONVERGENCE           8
MAX_SUB_FILE_NUM          128
MEM_STATIC                400
MEM_TOTAL                 4000
$end
--------------------------------------------------------------

   15   -1510.1154218910      6.73E-09 Convergence criterion met
 Total energy in the final basis set = -1510.11542189
   14   -1510.1893810184      6.72E-09 Convergence criterion met
 Total energy in the final basis set = -1510.18938102
   14   -1510.2304744862      7.71E-09 Convergence criterion met
 Total energy in the final basis set = -1510.23047449
   14   -1510.2501012279      5.73E-09 Convergence criterion met
 Total energy in the final basis set = -1510.25010123
   13   -1510.2574578642      8.54E-09 Convergence criterion met
 Total energy in the final basis set = -1510.25745786
    2   -1510.2574578642      3.72E-09 Convergence criterion met
 Total energy in the final basis set = -1510.25745786
   13   -1510.2602170648      5.79E-09 Convergence criterion met
 Total energy in the final basis set = -1510.26021706
   13   -1510.2618159405      1.64E-09 Convergence criterion met
   11   -1510.2633258320      3.33E-09 Convergence criterion met
 Total energy in the final basis set = -1510.26332583
   10   -1510.2633284585      9.81E-09 Convergence criterion met
 Total energy in the final basis set = -1510.26332846
    9   -1510.2633309448      7.34E-09 Convergence criterion met
 Total energy in the final basis set = -1510.26333094
    9   -1510.2633336189      5.14E-09 Convergence criterion met
 Total energy in the final basis set = -1510.26333362
    9   -1510.2633355649      5.85E-09 Convergence criterion met
 Total energy in the final basis set = -1510.26333556
    9   -1510.2633374947      4.01E-09 Convergence criterion met
 Total energy in the final basis set = -1510.26333749

             Standard Nuclear Orientation (Angstroms)
    I     Atom           X                Y                Z
 ----------------------------------------------------------------
    1      O      -5.0336220024     1.0318784288     1.3447409272
    2      C      -5.0848850271     0.9289049226     0.1008297255
    3      C      -4.7005967362    -0.3044798364    -0.7869204693
    4      C      -3.1288906093    -0.4896398860    -0.9736262416
    5      C      -2.2543095285     0.6107883322    -0.2742384445
    6      O      -2.2576195802     0.4211202424     1.1538064360
    7      C      -0.9551997473     0.8303514486     1.7253388973
    8      C       0.2075807881    -0.1801685591     1.3762515867
    9      O       1.3328207334     0.5850643547     0.7926012868
   10      C       2.5845481143     0.1467155664     1.3427657260
   11      C       3.7317069159     0.9707805214     0.6585365971
   12      C       5.0988104029     0.2162003982     0.4214366655
   13      C       5.0033156509    -1.3262476099     0.1032206202
   14      O       5.9517372823    -2.0418177003    -0.2885294722
   15      O      -5.5062435633     1.9841191428    -0.7748875851
   16      O       3.6434226599    -1.7646344216     0.1024776033
   17      O       2.6829436167    -0.6293801467     2.3182577539
   18      C       3.5593840718    -3.1810315692    -0.3172043096
   19      C       3.4506254407     1.5890096318    -0.7830711392
   20      C       4.2325201003     2.9563188486    -0.8403599838
   21      C       5.7179515169     2.4333866795    -0.8220940746
   22      C       5.5062245019     0.8738879438    -0.9706078508
   23      O       4.2295182099     0.7431875022    -1.7180237216
   24      H       3.9287981608     1.8038249827     1.3614530357
   25      H       5.8329596989     0.3922842705     1.2274429696
   26      H       2.3815792612     1.6195273479    -1.0684083451
   27      H       4.0067786620     3.4869906955    -1.7795201294
   28      H       3.9976752975     3.6185151885     0.0082532965
   29      H       6.3006874181     2.8272789525    -1.6694713544
   30      H       6.2437139001     2.6856448778     0.1129995354
   31      H       6.3202111829     0.3342530099    -1.4932430979
   32      O      -1.5781979451     1.4835985263    -0.8623181834
   33      C      -5.8432367767     3.1919365817     0.0132520316
   34      C      -5.0788740405    -1.6761025686    -0.0825645160
   35      C      -5.0380480240    -2.8193314246    -1.1717553989
   36      C      -3.4865224539    -3.0004651842    -1.3623100652
   37      C      -2.9267707012    -1.9323895658    -0.3412015317
   38      O      -3.9031121422    -1.9662566076     0.7694978906
   39      H      -5.1974469818    -0.1892967039    -1.7664152822
   40      H      -2.8645515274    -0.4696797765    -2.0461055488
   41      H      -4.9665573216     3.5661376913     0.5804861828
   42      H      -5.9988481587    -1.6372395745     0.5320468944
   43      H      -5.5070817530    -3.7374221163    -0.7835556838
   44      H      -5.5506197170    -2.5268093491    -2.1020091412
   45      H      -3.1592325490    -4.0127045190    -1.0757251035
   46      H      -3.1566137951    -2.8025284620    -2.3947803343
   47      H      -1.9056447321    -2.1329503800     0.0357695631
   48      H      -6.6668898027     2.9953719537     0.7296816500
   49      H      -6.1634581288     3.9557846328    -0.7189704453
   50      H       2.4820484506    -3.4283259465    -0.3341624021
   51      H       4.0814130960    -3.8492675982     0.3977379863
   52      H       3.9945500683    -3.3327714160    -1.3260601368
   53      H       0.5746907170    -0.7234148342     2.2736973983
   54      H      -0.1483695936    -0.9235069924     0.6297953603
   55      H      -1.1182599273     0.8769742279     2.8200684868
   56      H      -0.6575325036     1.8386653661     1.3596749717
 ----------------------------------------------------------------

    9   -1510.2633378503      2.45E-09 Convergence criterion met
 Total energy in the final basis set = -1510.26333785
 Final energy is   -1510.26333785030
 **  OPTIMIZATION CONVERGED  **

                    Orbital Energies (a.u.)
 --------------------------------------------------------------

 Alpha MOs
 -- Occupied --
-18.937 -18.932 -18.930 -18.926 -18.890 -18.884 -18.882 -18.875
-18.871 -18.870 -10.101 -10.100 -10.098 -10.096 -10.070 -10.066
-10.064 -10.063 -10.063 -10.061 -10.058 -10.056 -10.039 -10.039
-10.038 -10.036 -10.022 -10.021 -10.020 -10.018  -1.014  -1.011
 -1.008  -1.005  -0.971  -0.969  -0.939  -0.935  -0.933  -0.931
 -0.764  -0.762  -0.726  -0.722  -0.713  -0.706  -0.692  -0.662
 -0.661  -0.616  -0.598  -0.582  -0.549  -0.543  -0.539  -0.536
 -0.513  -0.511  -0.487  -0.478  -0.467  -0.461  -0.444  -0.438
 -0.436  -0.433  -0.423  -0.413  -0.411  -0.410  -0.407  -0.404
 -0.387  -0.386  -0.371  -0.370  -0.362  -0.358  -0.352  -0.348
 -0.345  -0.339  -0.337  -0.332  -0.329  -0.327  -0.317  -0.310
 -0.309  -0.308  -0.306  -0.301  -0.297  -0.295  -0.282  -0.276
 -0.271  -0.254  -0.250  -0.244  -0.241  -0.236  -0.233  -0.180
 -0.177  -0.173  -0.166  -0.157  -0.156  -0.149  -0.148  -0.145
 -0.141

          Ground-State Mulliken Net Atomic Charges

     Atom                 Charge (a.u.)
  ----------------------------------------
      1 O                    -0.204355
      2 C                     0.204352
      3 C                    -0.078639
      4 C                    -0.078992
      5 C                     0.204481
      6 O                    -0.168515
      7 C                    -0.050630
      8 C                    -0.056293
      9 O                    -0.175273
     10 C                     0.220171
     11 C                    -0.079680
     12 C                    -0.075727
     13 C                     0.213304
     14 O                    -0.217165
     15 O                    -0.170751
     16 O                    -0.166428
     17 O                    -0.217092
     18 C                    -0.125417
     19 C                     0.022854
     20 C                    -0.141359
     21 C                    -0.146011
     22 C                     0.023608
     23 O                    -0.193172
     24 H                     0.082692
     25 H                     0.086825
     26 H                     0.095781
     27 H                     0.078287
     28 H                     0.073152
     29 H                     0.078583
     30 H                     0.073515
     31 H                     0.086710
     32 O                    -0.204265
     33 C                    -0.129084
     34 C                     0.026355
     35 C                    -0.143933
     36 C                    -0.144010
     37 C                     0.027349
     38 O                    -0.182043
     39 H                     0.086432
     40 H                     0.085789
     41 H                     0.089462
     42 H                     0.085548
     43 H                     0.078385
     44 H                     0.074047
     45 H                     0.077964
     46 H                     0.074081
     47 H                     0.079131
     48 H                     0.088370
     49 H                     0.090199
     50 H                     0.089688
     51 H                     0.090352
     52 H                     0.092070
     53 H                     0.101482
     54 H                     0.079052
     55 H                     0.092911
     56 H                     0.095848
  ----------------------------------------
  Sum of atomic charges =    -0.000000

                    Cartesian Multipole Moments
 -----------------------------------------------------------------
    Charge (ESU x 10^10)
                -0.0000
    Dipole Moment (Debye)
         X      -1.0965      Y       0.6420      Z      -1.0494
       Tot       1.6479
    Quadrupole Moments (Debye-Ang)
        XX    -155.5014     XY       9.0409     YY    -149.6094
        XZ      10.1104     YZ       7.3291     ZZ    -165.9338

 Total job time:  68.53s(wall), 3265.07s(cpu)
        *  Thank you very much for using Q-Chem.  Have a nice day.  *
