 Q-Chem 5.0, Q-Chem, Inc., Pleasanton, CA (2017)
 Q-Chem 5.0.1 for Intel X86 EM64T Linux

User input:
--------------------------------------------------------------
$molecule
0  1
O -5.0336220024 1.0318784288 1.3447409272
C -5.0848850271 0.9289049226 0.1008297255
C -4.7005967362 -0.3044798364 -0.7869204693
C -3.1288906093 -0.489639886 -0.9736262416
C -2.2543095285 0.6107883322 -0.2742384445
O -2.2576195802 0.4211202424 1.153806436
C -0.9551997473 0.8303514486 1.7253388973
C 0.2075807881 -0.1801685591 1.3762515867
O 1.3328207334 0.5850643547 0.7926012868
C 2.5845481143 0.1467155664 1.342765726
C 3.7317069159 0.9707805214 0.6585365971
C 5.0988104029 0.2162003982 0.4214366655
C 5.0033156509 -1.3262476099 0.1032206202
O 5.9517372823 -2.0418177003 -0.2885294722
O -5.5062435633 1.9841191428 -0.7748875851
O 3.6434226599 -1.7646344216 0.1024776033
O 2.6829436167 -0.6293801467 2.3182577539
C 3.5593840718 -3.1810315692 -0.3172043096
C 3.4506254407 1.5890096318 -0.7830711392
C 4.2325201003 2.9563188486 -0.8403599838
C 5.7179515169 2.4333866795 -0.8220940746
C 5.5062245019 0.8738879438 -0.9706078508
O 4.2295182099 0.7431875022 -1.7180237216
H 3.9287981608 1.8038249827 1.3614530357
H 5.8329596989 0.3922842705 1.2274429696
H 2.3815792612 1.6195273479 -1.0684083451
H 4.006778662 3.4869906955 -1.7795201294
H 3.9976752975 3.6185151885 0.0082532965
H 6.3006874181 2.8272789525 -1.6694713544
H 6.2437139001 2.6856448778 0.1129995354
H 6.3202111829 0.3342530099 -1.4932430979
O -1.5781979451 1.4835985263 -0.8623181834
C -5.8432367767 3.1919365817 0.0132520316
C -5.0788740405 -1.6761025686 -0.082564516
C -5.038048024 -2.8193314246 -1.1717553989
C -3.4865224539 -3.0004651842 -1.3623100652
C -2.9267707012 -1.9323895658 -0.3412015317
O -3.9031121422 -1.9662566076 0.7694978906
H -5.1974469818 -0.1892967039 -1.7664152822
H -2.8645515274 -0.4696797765 -2.0461055488
H -4.9665573216 3.5661376913 0.5804861828
H -5.9988481587 -1.6372395745 0.5320468944
H -5.507081753 -3.7374221163 -0.7835556838
H -5.550619717 -2.5268093491 -2.1020091412
H -3.159232549 -4.012704519 -1.0757251035
H -3.1566137951 -2.802528462 -2.3947803343
H -1.9056447321 -2.13295038 0.0357695631
H -6.6668898027 2.9953719537 0.72968165
H -6.1634581288 3.9557846328 -0.7189704453
H 2.4820484506 -3.4283259465 -0.3341624021
H 4.081413096 -3.8492675982 0.3977379863
H 3.9945500683 -3.332771416 -1.3260601368
H 0.574690717 -0.7234148342 2.2736973983
H -0.1483695936 -0.9235069924 0.6297953603
H -1.1182599273 0.8769742279 2.8200684868
H -0.6575325036 1.8386653661 1.3596749717
$end

$rem
JOBTYPE                   OPT
METHOD                    B3LYP
DFT_D                     d3_op
BASIS                     STO-3G
GEOM_OPT_MAX_CYCLES       100
GEOM_OPT_TOL_GRADIENT     300
GEOM_OPT_TOL_DISPLACEMENT 1200
GEOM_OPT_TOL_ENERGY       100
SYMMETRY                  False
THRESH                    12
SCF_CONVERGENCE           8
MAX_SUB_FILE_NUM          128
MEM_STATIC                400
MEM_TOTAL                 4000
$end
--------------------------------------------------------------

   16   -1510.2632925413      5.44E-09 Convergence criterion met
 Total energy in the final basis set = -1510.26329254
   14   -1510.2678652457      4.84E-09 Convergence criterion met
 Total energy in the final basis set = -1510.26786525
   14   -1510.2707582860      6.66E-09 Convergence criterion met
 Total energy in the final basis set = -1510.27075829
   13   -1510.2730110387      6.18E-09 Convergence criterion met
 Total energy in the final basis set = -1510.27301104
   13   -1510.2745821099      4.49E-09 Convergence criterion met
 Total energy in the final basis set = -1510.27458211
   13   -1510.2759807361      8.59E-09 Convergence criterion met
 Total energy in the final basis set = -1510.27598074
   13   -1510.2770721956      4.20E-09 Convergence criterion met
 Total energy in the final basis set = -1510.27707220
   13   -1510.2780589079      9.44E-09 Convergence criterion met
   12   -1510.3049113587      2.62E-09 Convergence criterion met
 Total energy in the final basis set = -1510.30491136
   12   -1510.3049450218      1.57E-09 Convergence criterion met
 Total energy in the final basis set = -1510.30494502
   11   -1510.3049492686      9.49E-09 Convergence criterion met
 Total energy in the final basis set = -1510.30494927
   11   -1510.3049522787      7.12E-09 Convergence criterion met
 Total energy in the final basis set = -1510.30495228
   11   -1510.3049525652      6.99E-09 Convergence criterion met
 Total energy in the final basis set = -1510.30495257
   11   -1510.3049539737      1.91E-09 Convergence criterion met
 Total energy in the final basis set = -1510.30495397

             Standard Nuclear Orientation (Angstroms)
    I     Atom           X                Y                Z
 ----------------------------------------------------------------
    1      O      -4.2872369093    -0.6576938618     1.7492052484
    2      C      -3.9247842940     0.0491919988     0.7860894305
    3      C      -3.2754887659    -0.4240729197    -0.5630042166
    4      C      -1.9314841027     0.3272144102    -0.9390399126
    5      C      -1.3953064101     1.2629562305     0.1931749780
    6      O      -1.5772892219     0.5796352075     1.4443230940
    7      C      -0.9874935304     1.3450513796     2.5639072320
    8      C       0.4987797517     0.9025349667     2.7833992701
    9      O       1.1966215905     1.2491755033     1.5256594237
   10      C       2.4831085522     0.6374852651     1.4598432161
   11      C       3.1334449376     0.9752820853     0.0660123329
   12      C       3.6524406022    -0.3204477216    -0.6889112173
   13      C       3.1793946476    -1.6534829032    -0.0101432837
   14      O       3.8539282397    -2.6779760009     0.2263405156
   15      O      -4.1232190509     1.4701374216     0.7031666250
   16      O       1.7804896760    -1.5145574880     0.2466001001
   17      O       2.9993810408    -0.0176296638     2.3913686313
   18      C       1.2110320887    -2.7203291228     0.8917577087
   19      C       2.1246436968     1.5786985356    -1.0043976193
   20      C       2.9777441491     2.2966216761    -2.1201859856
   21      C       3.6020659200     1.0597334344    -2.8693550653
   22      C       2.9329429825    -0.1429626754    -2.0941254809
   23      O       1.6037261906     0.3864547917    -1.7167588432
   24      H       3.9711634338     1.6733167629     0.2498420394
   25      H       4.7519042556    -0.3412545422    -0.7822938031
   26      H       1.2808035559     2.1589799788    -0.5775192008
   27      H       2.3224307925     2.8806065452    -2.7860913447
   28      H       3.7405293856     2.9687014447    -1.6961790964
   29      H       3.3153913959     1.0414000745    -3.9327687606
   30      H       4.7011474139     1.0314174546    -2.7988869970
   31      H       2.8266268476    -1.0789349883    -2.6765400730
   32      O      -0.8652311194     2.3880131620     0.0682333685
   33      C      -4.7308740855     1.9681474571     1.9564395626
   34      C      -2.7826000278    -1.9283211901    -0.4871351090
   35      C      -2.6375529439    -2.4675410143    -1.9610332332
   36      C      -1.3541031661    -1.6885033980    -2.4354501260
   37      C      -0.9460385286    -0.9072638755    -1.1242442867
   38      O      -1.3765461418    -1.8106570636    -0.0324610674
   39      H      -4.0248391759    -0.2907441990    -1.3649763663
   40      H      -2.0289973618     0.9231918126    -1.8628565134
   41      H      -4.0891374916     1.7524150572     2.8347936919
   42      H      -3.3668314606    -2.5582703171     0.2119315298
   43      H      -2.4717420516    -3.5568131044    -1.9593438514
   44      H      -3.5251540977    -2.2458853371    -2.5749405393
   45      H      -0.5496308840    -2.3780797703    -2.7368264504
   46      H      -1.5602355447    -1.0035988958    -3.2733204292
   47      H       0.1369676319    -0.6383958848    -1.0566142468
   48      H      -5.7296878039     1.5195612409     2.1344801276
   49      H      -4.8339122827     3.0621147918     1.8340540164
   50      H       0.1143945605    -2.6447803719     0.7070808231
   51      H       1.4287638980    -2.7156496564     1.9791634313
   52      H       1.6290459509    -3.6458050585     0.4493634173
   53      H       0.9409978742     1.4399221957     3.6521428888
   54      H       0.5583614345    -0.1901173236     2.9773561562
   55      H      -1.5902116848     1.1120999746     3.4653071990
   56      H      -1.0248815923     2.4340674179     2.3466978374
 ----------------------------------------------------------------

   11   -1510.3049543825      4.02E-09 Convergence criterion met
 Total energy in the final basis set = -1510.30495438
 Final energy is   -1510.30495438246
 **  OPTIMIZATION CONVERGED  **

                    Orbital Energies (a.u.)
 --------------------------------------------------------------

 Alpha MOs
 -- Occupied --
-18.933 -18.932 -18.927 -18.924 -18.896 -18.887 -18.874 -18.869
-18.869 -18.866 -10.099 -10.098 -10.096 -10.092 -10.076 -10.074
-10.064 -10.063 -10.055 -10.055 -10.040 -10.036 -10.036 -10.035
-10.033 -10.031 -10.022 -10.019 -10.016 -10.012  -1.017  -1.009
 -1.002  -0.999  -0.975  -0.966  -0.938  -0.932  -0.932  -0.928
 -0.763  -0.760  -0.728  -0.721  -0.712  -0.701  -0.694  -0.660
 -0.646  -0.614  -0.595  -0.578  -0.545  -0.542  -0.538  -0.530
 -0.512  -0.506  -0.488  -0.477  -0.470  -0.461  -0.440  -0.437
 -0.433  -0.426  -0.421  -0.416  -0.406  -0.403  -0.402  -0.399
 -0.394  -0.375  -0.373  -0.362  -0.358  -0.353  -0.352  -0.345
 -0.344  -0.340  -0.338  -0.331  -0.328  -0.321  -0.319  -0.309
 -0.304  -0.303  -0.300  -0.293  -0.290  -0.288  -0.288  -0.275
 -0.266  -0.253  -0.250  -0.245  -0.244  -0.233  -0.222  -0.178
 -0.173  -0.172  -0.167  -0.157  -0.152  -0.149  -0.147  -0.142
 -0.142

          Ground-State Mulliken Net Atomic Charges

     Atom                 Charge (a.u.)
  ----------------------------------------
      1 O                    -0.216532
      2 C                     0.217124
      3 C                    -0.078696
      4 C                    -0.078012
      5 C                     0.222420
      6 O                    -0.169513
      7 C                    -0.047628
      8 C                    -0.045219
      9 O                    -0.173396
     10 C                     0.215789
     11 C                    -0.078731
     12 C                    -0.079457
     13 C                     0.210430
     14 O                    -0.211528
     15 O                    -0.176335
     16 O                    -0.175482
     17 O                    -0.220967
     18 C                    -0.145854
     19 C                     0.020623
     20 C                    -0.143169
     21 C                    -0.144072
     22 C                     0.026637
     23 O                    -0.190280
     24 H                     0.083676
     25 H                     0.085568
     26 H                     0.106017
     27 H                     0.078983
     28 H                     0.074011
     29 H                     0.077885
     30 H                     0.074926
     31 H                     0.082599
     32 O                    -0.214391
     33 C                    -0.128369
     34 C                     0.026071
     35 C                    -0.144254
     36 C                    -0.144718
     37 C                     0.011368
     38 O                    -0.193801
     39 H                     0.083084
     40 H                     0.085400
     41 H                     0.085224
     42 H                     0.089295
     43 H                     0.075947
     44 H                     0.072159
     45 H                     0.075088
     46 H                     0.072699
     47 H                     0.119630
     48 H                     0.087565
     49 H                     0.089319
     50 H                     0.117785
     51 H                     0.079536
     52 H                     0.084329
     53 H                     0.085904
     54 H                     0.095863
     55 H                     0.089525
     56 H                     0.097922
  ----------------------------------------
  Sum of atomic charges =     0.000000

                    Cartesian Multipole Moments
 -----------------------------------------------------------------
    Charge (ESU x 10^10)
                 0.0000
    Dipole Moment (Debye)
         X      -1.1131      Y       1.9867      Z      -1.4823
       Tot       2.7172
    Quadrupole Moments (Debye-Ang)
        XX    -158.6776     XY       6.2218     YY    -162.0297
        XZ      -6.0214     YZ       8.3953     ZZ    -151.8761

 Total job time:  229.04s(wall), 10929.99s(cpu)
        *  Thank you very much for using Q-Chem.  Have a nice day.  *
