 Q-Chem 5.0, Q-Chem, Inc., Pleasanton, CA (2017)
 Q-Chem 5.0.1 for Intel X86 EM64T Linux

User input:
--------------------------------------------------------------
$molecule
0  1
O -3.94934 -3.66094 2.70899
C -3.26408 -4.56952 2.26188
C -3.36658 -6.02376 2.66595
C -2.30597 -6.55813 3.64238
C -1.36727 -5.53595 4.2441
O -1.57909 -5.44736 5.59047
C -0.66964 -4.55735 6.24624
C 0.56695 -5.31884 6.71221
O 1.66253 -5.06696 5.81827
C 2.88426 -4.98644 6.40141
C 3.99285 -4.72193 5.41059
C 4.53079 -5.96855 4.69306
C 3.66968 -7.21161 4.79292
O 3.8944 -8.2762 4.2355
O -2.25665 -4.26677 1.40199
O 2.68473 -7.34601 5.72269
O 3.07258 -4.916 7.61007
C 1.97041 -8.51148 5.96339
C 3.59205 -3.84057 4.21208
C 4.83582 -3.18806 3.61061
C 5.50088 -4.38755 2.96623
C 4.44739 -5.46734 3.23792
O 3.22734 -4.76412 3.21658
H 4.81069 -4.21896 5.97594
H 5.56276 -6.25016 4.99723
H 2.83526 -3.06772 4.47024
H 4.48841 -2.50029 2.80652
H 5.46901 -2.62281 4.32784
H 5.58813 -4.19439 1.87386
H 6.49252 -4.66472 3.38505
H 4.54422 -6.29349 2.49902
O -0.52891 -4.90509 3.61155
C -1.97251 -2.99352 0.95495
C -4.65398 -6.32748 3.47087
C -5.03772 -7.79441 3.29562
C -3.93919 -8.46501 4.08857
C -3.23754 -7.23534 4.68063
O -4.2615 -6.28452 4.81995
H -3.42477 -6.60236 1.71636
H -1.6483 -7.31532 3.1616
H -1.71601 -2.33534 1.81252
H -5.51601 -5.68219 3.19275
H -6.00287 -7.93877 3.83289
H -5.1495 -8.14624 2.24751
H -4.41013 -9.0828 4.88527
H -3.23349 -9.08398 3.49325
H -2.70898 -7.53585 5.61167
H -2.84509 -2.57643 0.40811
H -1.10483 -3.03555 0.26517
H 1.27535 -8.369 6.81162
H 2.66302 -9.33491 6.24068
H 1.38879 -8.79672 5.06075
H 0.78631 -4.88395 7.71425
H 0.35219 -6.38995 6.87002
H -1.21946 -4.28119 7.17311
H -0.47951 -3.58314 5.74091
$end

$opt
CONSTRAINT
tors           1           2           3           4    -101.788
tors           3           4           5           6    +114.196
tors           4           5           6           7    +176.382
tors           5           6           7           8     -90.497
tors           6           7           8           9    +102.505
tors           7           8           9          10    +143.877
tors           8           9          10          11    +179.947
tors           9          10          11          12     -83.278
tors          11          12          13          14    +176.094
ENDCONSTRAINT
$end

$rem
JOBTYPE                   OPT
METHOD                    B3LYP
DFT_D                     d3_op
BASIS                     STO-3G
GEOM_OPT_MAX_CYCLES       100
GEOM_OPT_TOL_GRADIENT     300
GEOM_OPT_TOL_DISPLACEMENT 1200
GEOM_OPT_TOL_ENERGY       100
SYMMETRY                  False
THRESH                    12
SCF_CONVERGENCE           8
MAX_SUB_FILE_NUM          128
MEM_STATIC                400
MEM_TOTAL                 4000
$end
--------------------------------------------------------------

   15   -1510.1337703172      7.73E-09 Convergence criterion met
 Total energy in the final basis set = -1510.13377032
   14   -1510.2069515204      6.70E-09 Convergence criterion met
 Total energy in the final basis set = -1510.20695152
   14   -1510.2467294496      7.82E-09 Convergence criterion met
 Total energy in the final basis set = -1510.24672945
   14   -1510.2635444635      7.99E-09 Convergence criterion met
 Total energy in the final basis set = -1510.26354446
   14   -1510.2712279862      4.12E-09 Convergence criterion met
 Total energy in the final basis set = -1510.27122799
   14   -1510.2741739487      1.98E-09 Convergence criterion met
 Total energy in the final basis set = -1510.27417395
   13   -1510.2756324961      3.22E-09 Convergence criterion met
 Total energy in the final basis set = -1510.27563250
   12   -1510.2760188299      6.99E-09 Convergence criterion met
   11   -1510.2765621909      5.73E-09 Convergence criterion met
 Total energy in the final basis set = -1510.27656219
   11   -1510.2766051715      5.20E-09 Convergence criterion met
 Total energy in the final basis set = -1510.27660517
   11   -1510.2766208289      2.60E-09 Convergence criterion met
 Total energy in the final basis set = -1510.27662083
   11   -1510.2766353461      2.59E-09 Convergence criterion met
 Total energy in the final basis set = -1510.27663535
   10   -1510.2766376453      7.39E-09 Convergence criterion met
 Total energy in the final basis set = -1510.27663765
    9   -1510.2766421337      9.15E-09 Convergence criterion met
 Total energy in the final basis set = -1510.27664213

             Standard Nuclear Orientation (Angstroms)
    I     Atom           X                Y                Z
 ----------------------------------------------------------------
    1      O      -4.0995528681     2.3293620598     1.1400045866
    2      C      -3.6578061521     1.9740986874     0.0261151012
    3      C      -3.9776511479     0.6586798136    -0.7648889347
    4      C      -2.8319752791    -0.4443095189    -0.6655488562
    5      C      -1.6906802626    -0.0447724531     0.3428475091
    6      O      -1.6834720223    -0.9469009365     1.4588216744
    7      C      -0.5554108067    -0.6239920797     2.3631633525
    8      C       0.7363533288    -1.4302424272     1.9670672054
    9      O       1.6504709036    -0.5208894437     1.2419225414
   10      C       3.0157053979    -0.8126114019     1.5691060396
   11      C       3.9404932383     0.1772379352     0.7739533806
   12      C       4.2860979012    -0.2201825297    -0.7251170278
   13      C       3.6999268967    -1.5533185009    -1.3142806799
   14      O       3.8397698383    -1.9415685354    -2.4949298011
   15      O      -2.7841449042     2.7632298550    -0.7871519681
   16      O       3.0098646926    -2.3069752156    -0.3172830474
   17      O       3.3741178120    -1.6315969020     2.4443652382
   18      C       2.4560258268    -3.5527544308    -0.8921819669
   19      C       3.2400518633     1.5871589529     0.5435198448
   20      C       4.3552391226     2.6490731841     0.1882395681
   21      C       4.6844381961     2.2578708180    -1.2998926166
   22      C       3.7072595790     1.0364337314    -1.5141012060
   23      O       2.5086944805     1.4084481623    -0.7314333447
   24      H       4.8734360461     0.2770524139     1.3567004587
   25      H       5.3825551198    -0.2797025912    -0.8572890614
   26      H       2.5406347358     1.8855276820     1.3477001028
   27      H       3.9492229045     3.6707482346     0.2573306175
   28      H       5.2304574782     2.5712641267     0.8529062121
   29      H       4.4339728670     3.0730753490    -1.9972319774
   30      H       5.7401162381     1.9786526013    -1.4464868387
   31      H       3.4400891399     0.8210719110    -2.5671474380
   32      O      -0.9087484329     0.9246259659     0.2313770986
   33      C      -2.3547980550     3.9733363858    -0.0505736252
   34      C      -5.2185756024    -0.1399646439    -0.1832786169
   35      C      -5.7488528028    -1.0957460850    -1.3212347617
   36      C      -4.6080335558    -2.1805758005    -1.3519169114
   37      C      -3.6776008046    -1.6889603731    -0.1715869450
   38      O      -4.6204850914    -1.0778850210     0.7946005754
   39      H      -4.1388844604     0.9358693195    -1.8221270423
   40      H      -2.3673452634    -0.6135652921    -1.6540539101
   41      H      -1.7449872451     3.7065026295     0.8365690499
   42      H      -5.9804537848     0.4955185915     0.3082618845
   43      H      -6.7162782320    -1.5367134139    -1.0324971317
   44      H      -5.8698530157    -0.5746709099    -2.2843933731
   45      H      -5.0006378287    -3.1874609402    -1.1392489032
   46      H      -4.0738796589    -2.2065046307    -2.3152494360
   47      H      -3.0778540142    -2.4782437441     0.3195232638
   48      H      -3.2215392306     4.5805624333     0.2819861908
   49      H      -1.7379861586     4.5580564144    -0.7573234834
   50      H       2.0106995157    -4.1053564509    -0.0444456600
   51      H       3.2461223379    -4.1689642464    -1.3672642803
   52      H       1.6736047754    -3.3354077807    -1.6480050427
   53      H       1.2611778530    -1.8350475016     2.8600728368
   54      H       0.4538460039    -2.2826061952     1.3103603398
   55      H      -0.8920922915    -0.9097151461     3.3800063558
   56      H      -0.3295761962     0.4631923071     2.3236857345
 ----------------------------------------------------------------

    9   -1510.2766415524      8.84E-09 Convergence criterion met
 Total energy in the final basis set = -1510.27664155
 Final energy is   -1510.27664155235
 **  OPTIMIZATION CONVERGED  **

                    Orbital Energies (a.u.)
 --------------------------------------------------------------

 Alpha MOs
 -- Occupied --
-18.945 -18.931 -18.928 -18.923 -18.886 -18.882 -18.875 -18.874
-18.869 -18.863 -10.104 -10.096 -10.095 -10.093 -10.071 -10.068
-10.064 -10.058 -10.057 -10.057 -10.055 -10.055 -10.039 -10.036
-10.035 -10.033 -10.019 -10.018 -10.018 -10.017  -1.018  -1.011
 -1.003  -1.001  -0.968  -0.965  -0.940  -0.935  -0.929  -0.927
 -0.761  -0.759  -0.725  -0.720  -0.711  -0.703  -0.690  -0.667
 -0.656  -0.613  -0.596  -0.577  -0.543  -0.543  -0.535  -0.534
 -0.513  -0.507  -0.489  -0.476  -0.468  -0.456  -0.443  -0.439
 -0.432  -0.428  -0.420  -0.416  -0.411  -0.408  -0.405  -0.400
 -0.391  -0.379  -0.372  -0.368  -0.361  -0.354  -0.350  -0.345
 -0.341  -0.335  -0.333  -0.330  -0.327  -0.325  -0.323  -0.312
 -0.307  -0.305  -0.303  -0.298  -0.293  -0.287  -0.279  -0.275
 -0.273  -0.250  -0.245  -0.243  -0.241  -0.231  -0.229  -0.184
 -0.175  -0.171  -0.164  -0.157  -0.152  -0.146  -0.144  -0.140
 -0.139

          Ground-State Mulliken Net Atomic Charges

     Atom                 Charge (a.u.)
  ----------------------------------------
      1 O                    -0.213760
      2 C                     0.207190
      3 C                    -0.079358
      4 C                    -0.076787
      5 C                     0.206256
      6 O                    -0.170134
      7 C                    -0.052260
      8 C                    -0.054037
      9 O                    -0.170617
     10 C                     0.219120
     11 C                    -0.080566
     12 C                    -0.078374
     13 C                     0.211934
     14 O                    -0.215693
     15 O                    -0.165656
     16 O                    -0.166114
     17 O                    -0.223175
     18 C                    -0.125537
     19 C                     0.027793
     20 C                    -0.144691
     21 C                    -0.143686
     22 C                     0.025194
     23 O                    -0.182826
     24 H                     0.083164
     25 H                     0.085602
     26 H                     0.086641
     27 H                     0.077615
     28 H                     0.072794
     29 H                     0.078204
     30 H                     0.073194
     31 H                     0.086394
     32 O                    -0.204602
     33 C                    -0.126651
     34 C                     0.023954
     35 C                    -0.143284
     36 C                    -0.145171
     37 C                     0.024026
     38 O                    -0.188202
     39 H                     0.084913
     40 H                     0.085904
     41 H                     0.090506
     42 H                     0.087184
     43 H                     0.077380
     44 H                     0.072747
     45 H                     0.076913
     46 H                     0.072148
     47 H                     0.088521
     48 H                     0.087170
     49 H                     0.090734
     50 H                     0.092562
     51 H                     0.093232
     52 H                     0.090171
     53 H                     0.096906
     54 H                     0.082456
     55 H                     0.090157
     56 H                     0.102501
  ----------------------------------------
  Sum of atomic charges =    -0.000000

                    Cartesian Multipole Moments
 -----------------------------------------------------------------
    Charge (ESU x 10^10)
                -0.0000
    Dipole Moment (Debye)
         X       0.8043      Y      -0.1091      Z      -1.2509
       Tot       1.4911
    Quadrupole Moments (Debye-Ang)
        XX    -156.2305     XY       8.2147     YY    -150.4403
        XZ       9.9095     YZ       2.3075     ZZ    -164.3984

 Total job time:  52.86s(wall), 2516.19s(cpu)
        *  Thank you very much for using Q-Chem.  Have a nice day.  *
