 Q-Chem 5.0, Q-Chem, Inc., Pleasanton, CA (2017)
 Q-Chem 5.0.1 for Intel X86 EM64T Linux

User input:
--------------------------------------------------------------
$molecule
0  1
O -4.0995528681 2.3293620598 1.1400045866
C -3.6578061521 1.9740986874 0.0261151012
C -3.9776511479 0.6586798136 -0.7648889347
C -2.8319752791 -0.4443095189 -0.6655488562
C -1.6906802626 -0.0447724531 0.3428475091
O -1.6834720223 -0.9469009365 1.4588216744
C -0.5554108067 -0.6239920797 2.3631633525
C 0.7363533288 -1.4302424272 1.9670672054
O 1.6504709036 -0.5208894437 1.2419225414
C 3.0157053979 -0.8126114019 1.5691060396
C 3.9404932383 0.1772379352 0.7739533806
C 4.2860979012 -0.2201825297 -0.7251170278
C 3.6999268967 -1.5533185009 -1.3142806799
O 3.8397698383 -1.9415685354 -2.4949298011
O -2.7841449042 2.763229855 -0.7871519681
O 3.0098646926 -2.3069752156 -0.3172830474
O 3.374117812 -1.631596902 2.4443652382
C 2.4560258268 -3.5527544308 -0.8921819669
C 3.2400518633 1.5871589529 0.5435198448
C 4.3552391226 2.6490731841 0.1882395681
C 4.6844381961 2.257870818 -1.2998926166
C 3.707259579 1.0364337314 -1.514101206
O 2.5086944805 1.4084481623 -0.7314333447
H 4.8734360461 0.2770524139 1.3567004587
H 5.3825551198 -0.2797025912 -0.8572890614
H 2.5406347358 1.885527682 1.3477001028
H 3.9492229045 3.6707482346 0.2573306175
H 5.2304574782 2.5712641267 0.8529062121
H 4.433972867 3.073075349 -1.9972319774
H 5.7401162381 1.9786526013 -1.4464868387
H 3.4400891399 0.821071911 -2.567147438
O -0.9087484329 0.9246259659 0.2313770986
C -2.354798055 3.9733363858 -0.0505736252
C -5.2185756024 -0.1399646439 -0.1832786169
C -5.7488528028 -1.095746085 -1.3212347617
C -4.6080335558 -2.1805758005 -1.3519169114
C -3.6776008046 -1.6889603731 -0.171586945
O -4.6204850914 -1.077885021 0.7946005754
H -4.1388844604 0.9358693195 -1.8221270423
H -2.3673452634 -0.6135652921 -1.6540539101
H -1.7449872451 3.7065026295 0.8365690499
H -5.9804537848 0.4955185915 0.3082618845
H -6.716278232 -1.5367134139 -1.0324971317
H -5.8698530157 -0.5746709099 -2.2843933731
H -5.0006378287 -3.1874609402 -1.1392489032
H -4.0738796589 -2.2065046307 -2.315249436
H -3.0778540142 -2.4782437441 0.3195232638
H -3.2215392306 4.5805624333 0.2819861908
H -1.7379861586 4.5580564144 -0.7573234834
H 2.0106995157 -4.1053564509 -0.04444566
H 3.2461223379 -4.1689642464 -1.3672642803
H 1.6736047754 -3.3354077807 -1.6480050427
H 1.261177853 -1.8350475016 2.8600728368
H 0.4538460039 -2.2826061952 1.3103603398
H -0.8920922915 -0.9097151461 3.3800063558
H -0.3295761962 0.4631923071 2.3236857345
$end

$rem
JOBTYPE                   OPT
METHOD                    B3LYP
DFT_D                     d3_op
BASIS                     STO-3G
GEOM_OPT_MAX_CYCLES       100
GEOM_OPT_TOL_GRADIENT     300
GEOM_OPT_TOL_DISPLACEMENT 1200
GEOM_OPT_TOL_ENERGY       100
SYMMETRY                  False
THRESH                    12
SCF_CONVERGENCE           8
MAX_SUB_FILE_NUM          128
MEM_STATIC                400
MEM_TOTAL                 4000
$end
--------------------------------------------------------------

   16   -1510.2765777448      5.36E-09 Convergence criterion met
 Total energy in the final basis set = -1510.27657774
   13   -1510.2773141427      3.84E-09 Convergence criterion met
 Total energy in the final basis set = -1510.27731414
   13   -1510.2782126324      8.92E-09 Convergence criterion met
 Total energy in the final basis set = -1510.27821263
   13   -1510.2791641597      6.65E-09 Convergence criterion met
 Total energy in the final basis set = -1510.27916416
   13   -1510.2802787904      7.79E-09 Convergence criterion met
 Total energy in the final basis set = -1510.28027879
   14   -1510.2753053533      7.52E-09 Convergence criterion met
 Total energy in the final basis set = -1510.27530535
   13   -1510.2806881031      7.80E-09 Convergence criterion met
 Total energy in the final basis set = -1510.28068810
   14   -1510.2832620877      3.85E-09 Convergence criterion met
   12   -1510.3032186204      5.72E-09 Convergence criterion met
 Total energy in the final basis set = -1510.30321862
   12   -1510.3032564112      4.55E-09 Convergence criterion met
 Total energy in the final basis set = -1510.30325641
   11   -1510.3032573330      8.81E-09 Convergence criterion met
 Total energy in the final basis set = -1510.30325733
   11   -1510.3032548423      8.91E-09 Convergence criterion met
 Total energy in the final basis set = -1510.30325484
   11   -1510.3032617876      6.99E-09 Convergence criterion met
 Total energy in the final basis set = -1510.30326179
   10   -1510.3032621556      8.10E-09 Convergence criterion met
 Total energy in the final basis set = -1510.30326216

             Standard Nuclear Orientation (Angstroms)
    I     Atom           X                Y                Z
 ----------------------------------------------------------------
    1      O      -3.2892073831     2.2889398849     1.6091091947
    2      C      -2.4803622489     2.0733196746     0.6841815116
    3      C      -2.6596953331     1.1397331237    -0.5662506985
    4      C      -2.0055892819    -0.2934252989    -0.3980090172
    5      C      -1.4357755161    -0.5145933395     1.0389412976
    6      O      -1.3128654967    -1.9139430543     1.3075806419
    7      C      -0.4706219570    -2.1033761678     2.5126263543
    8      C       1.0266968072    -2.2626480562     2.0505684511
    9      O       1.3264123192    -1.3218854538     0.9459423004
   10      C       1.8693405074    -0.0828779008     1.4368441029
   11      C       2.2892777214     0.7798690497     0.1987355348
   12      C       3.0065114212    -0.0729863003    -0.9321786568
   13      C       3.2985631025    -1.5673106798    -0.5495587492
   14      O       2.9898175202    -2.5929252334    -1.1914034751
   15      O      -1.2293701182     2.7811263423     0.5289982393
   16      O       4.0975705017    -1.5706051802     0.6454652285
   17      O       1.9792130035     0.2006819403     2.6474327258
   18      C       4.4503363918    -2.9594174940     1.0138101227
   19      C       1.0374148318     1.3322232918    -0.6124000367
   20      C       1.5582397553     2.3848777260    -1.6720638306
   21      C       2.1520253440     1.4526457670    -2.7927055061
   22      C       1.9651076391     0.0392388982    -2.1231121349
   23      O       0.6556530315     0.1662185974    -1.4418210027
   24      H       2.9308184103     1.6006313481     0.5638749042
   25      H       3.9702549884     0.3947306106    -1.2055609815
   26      H       0.1769312990     1.7113813096    -0.0077918915
   27      H       0.7194231810     2.9915858236    -2.0481546992
   28      H       2.3132503653     3.0598304173    -1.2388343571
   29      H       1.5678236812     1.5185655176    -3.7246527550
   30      H       3.2070342737     1.6725233089    -3.0207119837
   31      H       1.9675677489    -0.8346285886    -2.8037650995
   32      O      -1.1017801755     0.3818421380     1.8497206062
   33      C      -0.9364605952     3.5654727177     1.7482036008
   34      C      -4.1756488954     0.7425342845    -0.8267691154
   35      C      -4.2974437002     0.2614018547    -2.3251029161
   36      C      -3.5745343692    -1.1350347419    -2.2512691344
   37      C      -3.2399545016    -1.2292216777    -0.7097284575
   38      O      -4.3592169174    -0.5088345989    -0.0551575254
   39      H      -2.2218764879     1.6575890042    -1.4381434651
   40      H      -1.1429131689    -0.4198826372    -1.0905777035
   41      H      -0.7442206089     2.8933864564     2.6097219858
   42      H      -4.9115531589     1.5044581784    -0.5041729615
   43      H      -5.3567756482     0.1512270915    -2.6070564356
   44      H      -3.8141768365     0.9567705594    -3.0296502438
   45      H      -4.2434913202    -1.9556101938    -2.5552317352
   46      H      -2.6631425769    -1.1733049940    -2.8689328098
   47      H      -3.1421987879    -2.2542756342    -0.3032805858
   48      H      -1.7735192278     4.2456864613     2.0037070268
   49      H      -0.0278727250     4.1550215060     1.5266296045
   50      H       4.9520530989    -2.8987320504     1.9971387811
   51      H       5.1423852329    -3.4132814686     0.2747369791
   52      H       3.5527164161    -3.6048865798     1.0922639118
   53      H       1.7086019621    -2.0922425244     2.9108359763
   54      H       1.1874499164    -3.2753207558     1.6294312690
   55      H      -0.8199200704    -3.0216713399     3.0250149292
   56      H      -0.5738460928    -1.2200669317     3.1774083749
 ----------------------------------------------------------------

    9   -1510.3032648449      6.50E-09 Convergence criterion met
 Total energy in the final basis set = -1510.30326484
 Final energy is   -1510.30326484493
 **  OPTIMIZATION CONVERGED  **

                    Orbital Energies (a.u.)
 --------------------------------------------------------------

 Alpha MOs
 -- Occupied --
-18.937 -18.937 -18.929 -18.928 -18.890 -18.881 -18.879 -18.877
-18.872 -18.867 -10.103 -10.101 -10.099 -10.094 -10.075 -10.071
-10.065 -10.059 -10.057 -10.052 -10.051 -10.045 -10.037 -10.036
-10.028 -10.023 -10.019 -10.016 -10.014 -10.013  -1.023  -1.012
 -1.004  -1.001  -0.971  -0.962  -0.944  -0.935  -0.934  -0.929
 -0.764  -0.756  -0.728  -0.718  -0.709  -0.701  -0.692  -0.663
 -0.655  -0.617  -0.596  -0.579  -0.546  -0.540  -0.535  -0.531
 -0.511  -0.505  -0.486  -0.474  -0.468  -0.457  -0.444  -0.439
 -0.430  -0.427  -0.425  -0.424  -0.412  -0.406  -0.404  -0.402
 -0.398  -0.378  -0.372  -0.366  -0.361  -0.358  -0.349  -0.347
 -0.345  -0.341  -0.336  -0.327  -0.326  -0.324  -0.319  -0.309
 -0.305  -0.304  -0.300  -0.296  -0.295  -0.291  -0.275  -0.274
 -0.271  -0.255  -0.252  -0.247  -0.245  -0.234  -0.222  -0.187
 -0.176  -0.173  -0.168  -0.159  -0.156  -0.150  -0.147  -0.145
 -0.137

          Ground-State Mulliken Net Atomic Charges

     Atom                 Charge (a.u.)
  ----------------------------------------
      1 O                    -0.211745
      2 C                     0.218003
      3 C                    -0.083298
      4 C                    -0.089317
      5 C                     0.219426
      6 O                    -0.168077
      7 C                    -0.054711
      8 C                    -0.050922
      9 O                    -0.172253
     10 C                     0.216642
     11 C                    -0.078745
     12 C                    -0.078880
     13 C                     0.216308
     14 O                    -0.216575
     15 O                    -0.176218
     16 O                    -0.177325
     17 O                    -0.207931
     18 C                    -0.129062
     19 C                     0.007494
     20 C                    -0.145116
     21 C                    -0.143937
     22 C                     0.026045
     23 O                    -0.197241
     24 H                     0.085770
     25 H                     0.083639
     26 H                     0.111237
     27 H                     0.076836
     28 H                     0.071741
     29 H                     0.075911
     30 H                     0.072884
     31 H                     0.089817
     32 O                    -0.220064
     33 C                    -0.128730
     34 C                     0.024353
     35 C                    -0.143292
     36 C                    -0.144073
     37 C                     0.022879
     38 O                    -0.191408
     39 H                     0.083460
     40 H                     0.116374
     41 H                     0.096480
     42 H                     0.085365
     43 H                     0.076519
     44 H                     0.072287
     45 H                     0.076384
     46 H                     0.075543
     47 H                     0.088935
     48 H                     0.090181
     49 H                     0.086423
     50 H                     0.089476
     51 H                     0.086595
     52 H                     0.087007
     53 H                     0.096089
     54 H                     0.088709
     55 H                     0.090237
     56 H                     0.103872
  ----------------------------------------
  Sum of atomic charges =     0.000000

                    Cartesian Multipole Moments
 -----------------------------------------------------------------
    Charge (ESU x 10^10)
                 0.0000
    Dipole Moment (Debye)
         X       2.6803      Y      -0.0104      Z      -1.4901
       Tot       3.0667
    Quadrupole Moments (Debye-Ang)
        XX    -162.5602     XY      -0.2947     YY    -151.5184
        XZ       6.9707     YZ     -10.5130     ZZ    -158.8053

 Total job time:  130.23s(wall), 6206.37s(cpu)
        *  Thank you very much for using Q-Chem.  Have a nice day.  *
