 Q-Chem 5.0, Q-Chem, Inc., Pleasanton, CA (2017)
 Q-Chem 5.0.1 for Intel X86 EM64T Linux

User input:
--------------------------------------------------------------
$molecule
0  1
O -2.3949114499 1.5077691565 0.5067478578
C -3.6095845266 1.4774176797 0.2107488912
C -4.511359305 0.2335869896 -0.0893027886
C -3.7601090756 -0.9705065773 -0.8011520946
C -2.1974582188 -0.768973925 -0.8917103192
O -1.6413346619 -1.1489761658 0.3603131033
C -0.1599555169 -1.1232308712 0.4923958179
C 0.7163596524 -1.2288144207 -0.8056695813
O 2.0771438726 -0.846693381 -0.3616844533
C 3.005609062 -1.0064812778 -1.4397951167
C 4.4303754646 -0.5630986826 -0.9475097303
C 4.4904054396 0.8467871357 -0.2290671079
C 3.3256529247 1.8709019444 -0.485449962
O 3.2429912274 3.0132223754 0.0178682864
O -4.4362017106 2.6445609955 0.1265113142
O 2.4682229586 1.4103424534 -1.5336193571
O 2.7159527608 -1.4835459106 -2.5581957273
C 1.3652998667 2.3683840185 -1.7695520775
C 4.8548430054 -1.4979234679 0.2702900216
C 6.3634838087 -1.2220069222 0.6572694156
C 6.2339590424 0.1125049907 1.4825452384
C 4.6973363657 0.4239413402 1.2937038585
O 4.0847258295 -0.9187221577 1.3955211242
H 5.1277675275 -0.6242125908 -1.8005229689
H 5.4015825922 1.3750327046 -0.5695093245
H 4.5949658528 -2.5658136306 0.1348553439
H 6.7621979092 -2.0439184794 1.2726347429
H 7.0012605534 -1.1095678583 -0.2342889828
H 6.4605234097 -0.0520289001 2.5482956655
H 6.8815290948 0.9185926939 1.1026943924
H 4.2530114364 1.1195049484 2.0319418809
O -1.6019621767 -0.3203466623 -1.8989720756
C -3.6388201135 3.8534749811 0.4388620249
C -5.07430771 -0.4871544017 1.218421984
C -6.3515124111 -1.3098037072 0.7866499552
C -5.6870773106 -2.4912239806 -0.0131160549
C -4.1504248662 -2.1641290151 0.1685923058
O -4.0795552652 -1.5391883595 1.5110959319
H -5.3522662027 0.587295703 -0.7115692153
H -4.1374234089 -1.1185579378 -1.8282442548
H -2.8098095824 3.9925172127 -0.2847833239
H -5.2106793304 0.1778353852 2.0932152814
H -6.8872441265 -1.6767904132 1.6767752439
H -7.0473350821 -0.7147105708 0.1739510701
H -5.9288359995 -3.4689777312 0.4325843736
H -5.9839323564 -2.5034463952 -1.0740578793
H -3.473930523 -3.038359401 0.1145791228
H -3.2093533617 3.8072076461 1.4604447265
H -4.3381140923 4.7067567675 0.3687237717
H 0.8085433784 1.9795886338 -2.6421074929
H 1.7477718493 3.3862100474 -1.9880159665
H 0.6850008571 2.4226403269 -0.8946971127
H 0.7027156363 -2.2596743568 -1.2198470228
H 0.3112133355 -0.5396099774 -1.5764526831
H 0.0821153886 -1.954454103 1.1870301764
H 0.1103991691 -0.1688189914 0.9983082172
$end

$rem
JOBTYPE                   OPT
METHOD                    B3LYP
DFT_D                     d3_op
BASIS                     STO-3G
GEOM_OPT_MAX_CYCLES       100
GEOM_OPT_TOL_GRADIENT     300
GEOM_OPT_TOL_DISPLACEMENT 1200
GEOM_OPT_TOL_ENERGY       100
SYMMETRY                  False
THRESH                    12
SCF_CONVERGENCE           8
MAX_SUB_FILE_NUM          128
MEM_STATIC                400
MEM_TOTAL                 4000
$end
--------------------------------------------------------------

   16   -1510.2712459137      4.42E-09 Convergence criterion met
 Total energy in the final basis set = -1510.27124591
   13   -1510.2740807949      6.38E-09 Convergence criterion met
 Total energy in the final basis set = -1510.27408079
   13   -1510.2765930591      8.33E-09 Convergence criterion met
 Total energy in the final basis set = -1510.27659306
   13   -1510.2790837011      5.62E-09 Convergence criterion met
 Total energy in the final basis set = -1510.27908370
   13   -1510.2813644706      2.71E-09 Convergence criterion met
 Total energy in the final basis set = -1510.28136447
   13   -1510.2834439408      2.04E-09 Convergence criterion met
 Total energy in the final basis set = -1510.28344394
   13   -1510.2851535322      3.73E-09 Convergence criterion met
 Total energy in the final basis set = -1510.28515353
   13   -1510.2871746874      2.52E-09 Convergence criterion met
   12   -1510.2938942853      4.52E-09 Convergence criterion met
 Total energy in the final basis set = -1510.29389429
   12   -1510.2939056081      5.60E-09 Convergence criterion met
 Total energy in the final basis set = -1510.29390561
   12   -1510.2939256387      6.05E-09 Convergence criterion met
 Total energy in the final basis set = -1510.29392564
   11   -1510.2939394409      9.04E-09 Convergence criterion met
 Total energy in the final basis set = -1510.29393944
   11   -1510.2939437387      6.34E-09 Convergence criterion met
 Total energy in the final basis set = -1510.29394374
   11   -1510.2939482363      5.43E-09 Convergence criterion met
 Total energy in the final basis set = -1510.29394824

             Standard Nuclear Orientation (Angstroms)
    I     Atom           X                Y                Z
 ----------------------------------------------------------------
    1      O       2.1775421385    -1.6586042507     0.2677982586
    2      C       3.4301768627    -1.6536238057     0.2891301668
    3      C       4.3793552024    -0.5827133396    -0.3444527346
    4      C       3.5915675603     0.6447067571    -0.9626442725
    5      C       2.0273536918     0.5245485329    -0.8270611506
    6      O       1.6371700674     1.0357886120     0.4498198844
    7      C       0.1948813110     0.8116981314     0.7088407821
    8      C      -0.7419086805     1.7030301978    -0.1846765172
    9      O      -2.1232344778     1.2562368383     0.1099183402
   10      C      -2.9708450982     1.4052450703    -1.0364917660
   11      C      -4.3608379138     0.7858812223    -0.6679963971
   12      C      -4.2415129489    -0.6918835802    -0.1018316048
   13      C      -2.7765145321    -1.2632753222    -0.1207630443
   14      O      -2.1278127160    -1.7326958465     0.8396588256
   15      O       4.2204142020    -2.6635467140     0.9129237312
   16      O      -2.3214143546    -1.2230441152    -1.4757640376
   17      O      -2.6262864721     1.9426547144    -2.1099695315
   18      C      -0.9658979963    -1.8149838885    -1.6052091012
   19      C      -5.0157220629     1.5182218512     0.5826586429
   20      C      -6.5240853012     1.0581268149     0.7008861775
   21      C      -6.3585437740    -0.3852397442     1.3073096847
   22      C      -4.7861840526    -0.5041021018     1.3740314665
   23      O      -4.3576659656     0.8673725433     1.7369179523
   24      H      -5.0063544596     0.8337304164    -1.5619901721
   25      H      -4.8820270715    -1.3801163113    -0.6838014334
   26      H      -4.8552733163     2.6134653095     0.6101855006
   27      H      -7.0782121984     1.7233033727     1.3820526172
   28      H      -7.0321732824     1.0510749244    -0.2766536794
   29      H      -6.7924238885    -0.4504143427     2.3179063025
   30      H      -6.8112378575    -1.1672318095     0.6769954223
   31      H      -4.3832811028    -1.2387577214     2.0982075547
   32      O       1.2458228649     0.1656897760    -1.7404927257
   33      C       3.3423506826    -3.6918357881     1.5215970718
   34      C       5.2765489756     0.1467293991     0.7468988075
   35      C       6.4417992223     0.9032933603    -0.0050002729
   36      C       5.6617351216     2.1246596184    -0.6188685197
   37      C       4.1938595002     1.8397255641    -0.1078296354
   38      O       4.4029429326     1.2386613936     1.2302156164
   39      H       5.0098164144    -1.0841872580    -1.1013266024
   40      H       3.8198752583     0.7517448573    -2.0377259568
   41      H       2.7709194068    -4.2448203360     0.7482117535
   42      H       5.5922881015    -0.5066610410     1.5833911234
   43      H       7.2126958917     1.2320420251     0.7101861493
   44      H       6.9165805058     0.2704561868    -0.7716749611
   45      H       6.0301591649     3.0822899678    -0.2179509364
   46      H       5.7186511489     2.1567092489    -1.7186691635
   47      H       3.5370318798     2.7273857321    -0.0346587996
   48      H       2.6244507327    -3.2421877933     2.2370359186
   49      H       4.0150256612    -4.3889058937     2.0540931939
   50      H      -0.9680931871    -2.4366887321    -2.5201893496
   51      H      -0.7381611997    -2.4404422471    -0.7196843642
   52      H      -0.1944930964    -1.0127235009    -1.6973562456
   53      H      -0.6200245690     2.7789090015     0.0663083296
   54      H      -0.5075086226     1.5557631851    -1.2599457232
   55      H       0.0489897842     1.0676645100     1.7772231371
   56      H      -0.0706472037    -0.2574700972     0.5648753799
 ----------------------------------------------------------------

    9   -1510.2939491664      6.09E-09 Convergence criterion met
 Total energy in the final basis set = -1510.29394917
 Final energy is   -1510.29394916637
 **  OPTIMIZATION CONVERGED  **

                    Orbital Energies (a.u.)
 --------------------------------------------------------------

 Alpha MOs
 -- Occupied --
-18.948 -18.930 -18.925 -18.917 -18.891 -18.890 -18.882 -18.870
-18.869 -18.862 -10.111 -10.103 -10.092 -10.089 -10.072 -10.064
-10.062 -10.062 -10.059 -10.056 -10.051 -10.044 -10.038 -10.031
-10.029 -10.029 -10.023 -10.022 -10.016 -10.015  -1.024  -1.008
 -1.004  -0.994  -0.973  -0.964  -0.947  -0.935  -0.929  -0.923
 -0.767  -0.757  -0.727  -0.721  -0.713  -0.701  -0.689  -0.669
 -0.643  -0.610  -0.594  -0.578  -0.549  -0.540  -0.539  -0.531
 -0.516  -0.505  -0.487  -0.471  -0.466  -0.455  -0.449  -0.439
 -0.436  -0.429  -0.425  -0.418  -0.412  -0.398  -0.397  -0.395
 -0.385  -0.381  -0.373  -0.364  -0.361  -0.356  -0.351  -0.341
 -0.337  -0.336  -0.334  -0.329  -0.326  -0.321  -0.320  -0.316
 -0.308  -0.304  -0.302  -0.299  -0.289  -0.285  -0.283  -0.276
 -0.267  -0.263  -0.248  -0.239  -0.236  -0.235  -0.228  -0.189
 -0.176  -0.168  -0.164  -0.159  -0.150  -0.148  -0.144  -0.141
 -0.137

          Ground-State Mulliken Net Atomic Charges

     Atom                 Charge (a.u.)
  ----------------------------------------
      1 O                    -0.206757
      2 C                     0.215796
      3 C                    -0.078327
      4 C                    -0.081299
      5 C                     0.222815
      6 O                    -0.168307
      7 C                    -0.049322
      8 C                    -0.055440
      9 O                    -0.171774
     10 C                     0.213886
     11 C                    -0.078037
     12 C                    -0.077683
     13 C                     0.213422
     14 O                    -0.220350
     15 O                    -0.167512
     16 O                    -0.177900
     17 O                    -0.211309
     18 C                    -0.152098
     19 C                     0.025714
     20 C                    -0.144153
     21 C                    -0.143798
     22 C                     0.024311
     23 O                    -0.186371
     24 H                     0.084872
     25 H                     0.082887
     26 H                     0.081541
     27 H                     0.076985
     28 H                     0.073230
     29 H                     0.076960
     30 H                     0.072489
     31 H                     0.089246
     32 O                    -0.223635
     33 C                    -0.128127
     34 C                     0.025129
     35 C                    -0.143553
     36 C                    -0.144303
     37 C                     0.026857
     38 O                    -0.186400
     39 H                     0.087490
     40 H                     0.084594
     41 H                     0.090740
     42 H                     0.087635
     43 H                     0.078746
     44 H                     0.073780
     45 H                     0.078598
     46 H                     0.073991
     47 H                     0.087338
     48 H                     0.095217
     49 H                     0.093163
     50 H                     0.078685
     51 H                     0.089653
     52 H                     0.109547
     53 H                     0.080910
     54 H                     0.103514
     55 H                     0.093738
     56 H                     0.102976
  ----------------------------------------
  Sum of atomic charges =    -0.000000

                    Cartesian Multipole Moments
 -----------------------------------------------------------------
    Charge (ESU x 10^10)
                 0.0000
    Dipole Moment (Debye)
         X       1.8359      Y      -1.2280      Z      -0.2233
       Tot       2.2200
    Quadrupole Moments (Debye-Ang)
        XX    -131.6697     XY      -1.0399     YY    -151.6981
        XZ      -4.0221     YZ      -1.2340     ZZ    -168.0939

 Total job time:  92.88s(wall), 4426.34s(cpu)
        *  Thank you very much for using Q-Chem.  Have a nice day.  *
