 Q-Chem 5.0, Q-Chem, Inc., Pleasanton, CA (2017)
 Q-Chem 5.0.1 for Intel X86 EM64T Linux

User input:
--------------------------------------------------------------
$molecule
0  1
O -3.94934 -3.66094 2.70899
C -3.26408 -4.56952 2.26188
C -3.36658 -6.02376 2.66595
C -3.7512 -6.32237 4.12429
C -4.16364 -5.13739 4.96916
O -5.47232 -4.82918 4.72876
C -5.96138 -3.76664 5.55404
C -5.11947 -3.65491 6.82086
O -5.40477 -2.41672 7.49047
C -4.78809 -2.24478 8.686
C -5.10371 -0.91321 9.32471
C -4.92839 0.3038 8.40469
C -4.81858 0.00211 6.92359
O -4.6802 0.83455 6.03903
O -2.21807 -4.25326 1.45387
O -3.82347 -0.92081 6.71277
O -4.01186 -3.04905 9.18811
C -3.11915 -1.15451 5.54048
C -6.59435 -0.75369 9.69394
C -6.73581 0.28509 10.80551
C -6.39312 1.55505 10.05088
C -6.2775 1.00329 8.62442
O -7.17211 -0.0828 8.6
H -4.50458 -0.83805 10.26103
H -4.0365 0.90619 8.68669
H -7.07719 -1.70978 9.99304
H -7.81551 0.31407 11.07787
H -6.13543 0.10232 11.72252
H -7.24894 2.25977 10.14359
H -5.44964 2.05316 10.36337
H -6.46459 1.80573 7.87682
O -3.26339 -4.31151 5.07002
C -1.92114 -2.97392 1.03246
C -4.52847 -6.74055 1.93924
C -4.24681 -8.2413 1.8689
C -4.43571 -8.63169 3.32086
C -4.92496 -7.29923 3.90127
O -5.61211 -6.69422 2.83353
H -2.4242 -6.52567 2.34741
H -2.9112 -6.80869 4.66919
H -1.71038 -2.32169 1.90704
H -4.72035 -6.34011 0.91939
H -5.07008 -8.69417 1.27063
H -3.272 -8.53201 1.42168
H -5.23136 -9.40744 3.37538
H -3.51938 -8.98707 3.84008
H -5.51019 -7.46754 4.83217
H -2.76979 -2.55716 0.44888
H -1.02178 -3.00393 0.38385
H -2.38193 -1.96282 5.71604
H -2.55969 -0.24475 5.23519
H -3.81352 -1.45837 4.72961
H -5.39372 -4.52 7.46706
H -4.03184 -3.62156 6.84332
H -7.02903 -3.9283 5.81333
H -5.88191 -2.82581 4.96899
$end

$opt
CONSTRAINT
tors           1           2           3           4     -33.173
tors           3           4           5           6     +81.630
tors           4           5           6           7    +176.382
tors           5           6           7           8     -23.048
tors           6           7           8           9    +166.755
tors           7           8           9          10    +175.356
tors           8           9          10          11    +178.732
tors           9          10          11          12     -49.718
tors          11          12          13          14    +179.747
ENDCONSTRAINT
$end

$rem
JOBTYPE                   OPT
METHOD                    B3LYP
DFT_D                     d3_op
BASIS                     STO-3G
GEOM_OPT_MAX_CYCLES       100
GEOM_OPT_TOL_GRADIENT     300
GEOM_OPT_TOL_DISPLACEMENT 1200
GEOM_OPT_TOL_ENERGY       100
SYMMETRY                  False
THRESH                    12
SCF_CONVERGENCE           8
MAX_SUB_FILE_NUM          128
MEM_STATIC                400
MEM_TOTAL                 4000
$end
--------------------------------------------------------------

   15   -1510.0545552680      9.99E-09 Convergence criterion met
 Total energy in the final basis set = -1510.05455527
   15   -1510.1379558117      2.56E-09 Convergence criterion met
 Total energy in the final basis set = -1510.13795581
   15   -1510.1862929635      1.80E-09 Convergence criterion met
 Total energy in the final basis set = -1510.18629296
   15   -1510.2178726939      2.14E-09 Convergence criterion met
 Total energy in the final basis set = -1510.21787269
   14   -1510.2356691667      7.07E-09 Convergence criterion met
 Total energy in the final basis set = -1510.23566917
   13   -1510.2470053290      7.33E-09 Convergence criterion met
 Total energy in the final basis set = -1510.24700533
   13   -1510.2548184504      9.98E-09 Convergence criterion met
 Total energy in the final basis set = -1510.25481845
   13   -1510.2601690722      7.15E-09 Convergence criterion met
   12   -1510.2709398452      4.59E-09 Convergence criterion met
 Total energy in the final basis set = -1510.27093985
   11   -1510.2710424223      7.05E-09 Convergence criterion met
 Total energy in the final basis set = -1510.27104242
   11   -1510.2711254111      5.30E-09 Convergence criterion met
 Total energy in the final basis set = -1510.27112541
   10   -1510.2711781114      7.57E-09 Convergence criterion met
 Total energy in the final basis set = -1510.27117811
   11   -1510.2711948885      3.72E-09 Convergence criterion met
 Total energy in the final basis set = -1510.27119489
    9   -1510.2711986275      5.53E-09 Convergence criterion met
 Total energy in the final basis set = -1510.27119863

             Standard Nuclear Orientation (Angstroms)
    I     Atom           X                Y                Z
 ----------------------------------------------------------------
    1      O      -2.3949114499     1.5077691565     0.5067478578
    2      C      -3.6095845266     1.4774176797     0.2107488912
    3      C      -4.5113593050     0.2335869896    -0.0893027886
    4      C      -3.7601090756    -0.9705065773    -0.8011520946
    5      C      -2.1974582188    -0.7689739250    -0.8917103192
    6      O      -1.6413346619    -1.1489761658     0.3603131033
    7      C      -0.1599555169    -1.1232308712     0.4923958179
    8      C       0.7163596524    -1.2288144207    -0.8056695813
    9      O       2.0771438726    -0.8466933810    -0.3616844533
   10      C       3.0056090620    -1.0064812778    -1.4397951167
   11      C       4.4303754646    -0.5630986826    -0.9475097303
   12      C       4.4904054396     0.8467871357    -0.2290671079
   13      C       3.3256529247     1.8709019444    -0.4854499620
   14      O       3.2429912274     3.0132223754     0.0178682864
   15      O      -4.4362017106     2.6445609955     0.1265113142
   16      O       2.4682229586     1.4103424534    -1.5336193571
   17      O       2.7159527608    -1.4835459106    -2.5581957273
   18      C       1.3652998667     2.3683840185    -1.7695520775
   19      C       4.8548430054    -1.4979234679     0.2702900216
   20      C       6.3634838087    -1.2220069222     0.6572694156
   21      C       6.2339590424     0.1125049907     1.4825452384
   22      C       4.6973363657     0.4239413402     1.2937038585
   23      O       4.0847258295    -0.9187221577     1.3955211242
   24      H       5.1277675275    -0.6242125908    -1.8005229689
   25      H       5.4015825922     1.3750327046    -0.5695093245
   26      H       4.5949658528    -2.5658136306     0.1348553439
   27      H       6.7621979092    -2.0439184794     1.2726347429
   28      H       7.0012605534    -1.1095678583    -0.2342889828
   29      H       6.4605234097    -0.0520289001     2.5482956655
   30      H       6.8815290948     0.9185926939     1.1026943924
   31      H       4.2530114364     1.1195049484     2.0319418809
   32      O      -1.6019621767    -0.3203466623    -1.8989720756
   33      C      -3.6388201135     3.8534749811     0.4388620249
   34      C      -5.0743077100    -0.4871544017     1.2184219840
   35      C      -6.3515124111    -1.3098037072     0.7866499552
   36      C      -5.6870773106    -2.4912239806    -0.0131160549
   37      C      -4.1504248662    -2.1641290151     0.1685923058
   38      O      -4.0795552652    -1.5391883595     1.5110959319
   39      H      -5.3522662027     0.5872957030    -0.7115692153
   40      H      -4.1374234089    -1.1185579378    -1.8282442548
   41      H      -2.8098095824     3.9925172127    -0.2847833239
   42      H      -5.2106793304     0.1778353852     2.0932152814
   43      H      -6.8872441265    -1.6767904132     1.6767752439
   44      H      -7.0473350821    -0.7147105708     0.1739510701
   45      H      -5.9288359995    -3.4689777312     0.4325843736
   46      H      -5.9839323564    -2.5034463952    -1.0740578793
   47      H      -3.4739305230    -3.0383594010     0.1145791228
   48      H      -3.2093533617     3.8072076461     1.4604447265
   49      H      -4.3381140923     4.7067567675     0.3687237717
   50      H       0.8085433784     1.9795886338    -2.6421074929
   51      H       1.7477718493     3.3862100474    -1.9880159665
   52      H       0.6850008571     2.4226403269    -0.8946971127
   53      H       0.7027156363    -2.2596743568    -1.2198470228
   54      H       0.3112133355    -0.5396099774    -1.5764526831
   55      H       0.0821153886    -1.9544541030     1.1870301764
   56      H       0.1103991691    -0.1688189914     0.9983082172
 ----------------------------------------------------------------

    9   -1510.2711992420      2.02E-09 Convergence criterion met
 Total energy in the final basis set = -1510.27119924
 Final energy is   -1510.27119924199
 **  OPTIMIZATION CONVERGED  **

                    Orbital Energies (a.u.)
 --------------------------------------------------------------

 Alpha MOs
 -- Occupied --
-18.938 -18.935 -18.932 -18.916 -18.889 -18.886 -18.879 -18.870
-18.869 -18.857 -10.102 -10.101 -10.098 -10.088 -10.067 -10.064
-10.062 -10.061 -10.059 -10.057 -10.057 -10.051 -10.039 -10.036
-10.034 -10.031 -10.021 -10.020 -10.018 -10.017  -1.015  -1.010
 -1.004  -0.995  -0.970  -0.967  -0.939  -0.935  -0.933  -0.921
 -0.763  -0.759  -0.726  -0.720  -0.711  -0.702  -0.690  -0.665
 -0.658  -0.610  -0.595  -0.579  -0.547  -0.542  -0.538  -0.534
 -0.513  -0.508  -0.485  -0.471  -0.463  -0.458  -0.443  -0.438
 -0.434  -0.430  -0.420  -0.414  -0.410  -0.406  -0.405  -0.394
 -0.380  -0.378  -0.376  -0.370  -0.362  -0.351  -0.347  -0.345
 -0.343  -0.337  -0.334  -0.328  -0.327  -0.322  -0.319  -0.311
 -0.311  -0.306  -0.304  -0.300  -0.291  -0.286  -0.281  -0.278
 -0.274  -0.258  -0.241  -0.241  -0.238  -0.234  -0.230  -0.181
 -0.178  -0.170  -0.162  -0.155  -0.150  -0.144  -0.142  -0.138
 -0.136

          Ground-State Mulliken Net Atomic Charges

     Atom                 Charge (a.u.)
  ----------------------------------------
      1 O                    -0.211731
      2 C                     0.208080
      3 C                    -0.080154
      4 C                    -0.079080
      5 C                     0.216234
      6 O                    -0.161723
      7 C                    -0.047004
      8 C                    -0.060412
      9 O                    -0.172747
     10 C                     0.217651
     11 C                    -0.078916
     12 C                    -0.078928
     13 C                     0.211349
     14 O                    -0.216939
     15 O                    -0.169825
     16 O                    -0.166656
     17 O                    -0.220094
     18 C                    -0.127564
     19 C                     0.025453
     20 C                    -0.145299
     21 C                    -0.142105
     22 C                     0.026256
     23 O                    -0.185977
     24 H                     0.084420
     25 H                     0.083719
     26 H                     0.081513
     27 H                     0.077472
     28 H                     0.073498
     29 H                     0.077579
     30 H                     0.073618
     31 H                     0.087006
     32 O                    -0.219551
     33 C                    -0.128922
     34 C                     0.026484
     35 C                    -0.142705
     36 C                    -0.145129
     37 C                     0.027171
     38 O                    -0.183477
     39 H                     0.086350
     40 H                     0.084007
     41 H                     0.089360
     42 H                     0.083530
     43 H                     0.078146
     44 H                     0.074077
     45 H                     0.077973
     46 H                     0.073538
     47 H                     0.085010
     48 H                     0.090014
     49 H                     0.091148
     50 H                     0.096153
     51 H                     0.090066
     52 H                     0.091931
     53 H                     0.080983
     54 H                     0.111052
     55 H                     0.090390
     56 H                     0.093705
  ----------------------------------------
  Sum of atomic charges =     0.000000

                    Cartesian Multipole Moments
 -----------------------------------------------------------------
    Charge (ESU x 10^10)
                 0.0000
    Dipole Moment (Debye)
         X      -1.3976      Y       0.4302      Z       0.0375
       Tot       1.4628
    Quadrupole Moments (Debye-Ang)
        XX    -131.9903     XY      -2.3516     YY    -154.0720
        XZ       2.9715     YZ      -1.2270     ZZ    -168.0146

 Total job time:  62.41s(wall), 2970.69s(cpu)
        *  Thank you very much for using Q-Chem.  Have a nice day.  *
