 Q-Chem 5.0, Q-Chem, Inc., Pleasanton, CA (2017)
 Q-Chem 5.0.1 for Intel X86 EM64T Linux

User input:
--------------------------------------------------------------
$molecule
0  1
O -3.94934 -3.66094 2.70899
C -3.26408 -4.56952 2.26188
C -3.36658 -6.02376 2.66595
C -3.19236 -6.35246 4.15775
C -3.1122 -5.1743 5.10305
O -4.36904 -4.72323 5.38993
C -4.38042 -3.65798 6.34615
C -4.64884 -4.20835 7.74299
O -3.55925 -3.87591 8.61772
C -3.91453 -3.39354 9.83437
C -2.72715 -3.09394 10.71814
C -2.26672 -4.26246 11.6018
C -2.80702 -5.62767 11.22635
O -2.55236 -6.67429 11.80454
O -2.32344 -4.27588 1.32574
O -3.72919 -5.81706 10.24431
O -5.05872 -3.3951 10.27361
C -4.32268 -7.03186 9.93287
C -1.40683 -2.81706 9.95395
C -0.46342 -1.99558 10.83214
C -0.07419 -3.02743 11.87029
C -0.76244 -4.26892 11.29219
O -0.74817 -4.05841 9.9018
H -2.97241 -2.16606 11.28241
H -2.51122 -4.10006 12.67417
H -1.55921 -2.30073 8.98078
H 0.43139 -1.76336 10.21067
H -0.87926 -1.04814 11.2373
H 1.03265 -3.13955 11.85618
H -0.4252 -2.81744 12.904
H -0.26021 -5.19521 11.6495
O -2.10699 -4.9041 5.75019
C -2.08199 -3.00892 0.83717
C -4.76768 -6.61835 2.4157
C -4.66568 -8.13455 2.2516
C -4.35692 -8.55396 3.67536
C -4.4596 -7.20218 4.39142
O -5.43189 -6.50257 3.65091
H -2.62909 -6.58257 2.04464
H -2.26302 -6.94354 4.32074
H -1.77081 -2.3334 1.66259
H -5.28188 -6.16891 1.53796
H -5.68336 -8.5021 1.98762
H -3.94157 -8.4853 1.48514
H -5.16005 -9.24237 4.02047
H -3.36138 -9.02444 3.82692
H -4.67219 -7.34735 5.47369
H -2.99448 -2.60751 0.34663
H -1.26542 -3.05737 0.08793
H -5.0721 -6.89927 9.13058
H -4.85275 -7.43658 10.82158
H -3.554 -7.75735 9.59087
H -5.66111 -3.89742 8.0861
H -4.67754 -5.31084 7.65913
H -5.2006 -2.96098 6.07145
H -3.46834 -3.01647 6.31744
$end

$opt
CONSTRAINT
tors           1           2           3           4     -56.830
tors           3           4           5           6     +81.630
tors           4           5           6           7    +176.382
tors           5           6           7           8     -96.625
tors           6           7           8           9    +121.079
tors           7           8           9          10    +134.306
tors           8           9          10          11    +178.645
tors           9          10          11          12     -90.193
tors          11          12          13          14    +179.747
ENDCONSTRAINT
$end

$rem
JOBTYPE                   OPT
METHOD                    B3LYP
DFT_D                     d3_op
BASIS                     STO-3G
GEOM_OPT_MAX_CYCLES       100
GEOM_OPT_TOL_GRADIENT     300
GEOM_OPT_TOL_DISPLACEMENT 1200
GEOM_OPT_TOL_ENERGY       100
SYMMETRY                  False
THRESH                    12
SCF_CONVERGENCE           8
MAX_SUB_FILE_NUM          128
MEM_STATIC                400
MEM_TOTAL                 4000
$end
--------------------------------------------------------------

   15   -1510.1334162301      8.31E-09 Convergence criterion met
 Total energy in the final basis set = -1510.13341623
   14   -1510.2061811310      7.61E-09 Convergence criterion met
 Total energy in the final basis set = -1510.20618113
   14   -1510.2452305909      7.38E-09 Convergence criterion met
 Total energy in the final basis set = -1510.24523059
   14   -1510.2615942407      8.31E-09 Convergence criterion met
 Total energy in the final basis set = -1510.26159424
   13   -1510.2703578142      8.20E-09 Convergence criterion met
 Total energy in the final basis set = -1510.27035781
   13   -1510.2735521658      4.58E-09 Convergence criterion met
 Total energy in the final basis set = -1510.27355217
   13   -1510.2750886751      2.96E-09 Convergence criterion met
 Total energy in the final basis set = -1510.27508868
   12   -1510.2754641880      7.76E-09 Convergence criterion met
   11   -1510.2762023559      6.87E-09 Convergence criterion met
 Total energy in the final basis set = -1510.27620236
   11   -1510.2762294561      7.34E-09 Convergence criterion met
 Total energy in the final basis set = -1510.27622946
   10   -1510.2762410670      7.05E-09 Convergence criterion met
 Total energy in the final basis set = -1510.27624107
    9   -1510.2762503951      9.79E-09 Convergence criterion met
 Total energy in the final basis set = -1510.27625040
    9   -1510.2762546282      6.65E-09 Convergence criterion met
 Total energy in the final basis set = -1510.27625463
    9   -1510.2762581029      5.03E-09 Convergence criterion met
 Total energy in the final basis set = -1510.27625810

             Standard Nuclear Orientation (Angstroms)
    I     Atom           X                Y                Z
 ----------------------------------------------------------------
    1      O      -3.9713738890     1.6711976122     1.2121676204
    2      C      -4.4610747678     1.4805401389     0.0782169434
    3      C      -4.5089195881     0.1539333103    -0.7527543442
    4      C      -3.0842453988    -0.5014959864    -1.0229468827
    5      C      -1.8998217590     0.2631029536    -0.3353862661
    6      O      -1.8083149386    -0.1324274509     1.0377131054
    7      C      -0.6396656233     0.5171298925     1.6752522647
    8      C       0.6070894936    -0.4490668865     1.6810451815
    9      O       1.7182338049     0.1990983374     0.9494693839
   10      C       2.9469039446     0.0735471616     1.6786855877
   11      C       4.0957764250     0.7463722359     0.8426597358
   12      C       4.8750118820    -0.1911291160    -0.1778512648
   13      C       4.4258472106    -1.6888465420    -0.3318012822
   14      O       4.9517196180    -2.5238608523    -1.1003903208
   15      O      -5.1117252933     2.5020579583    -0.6907189735
   16      O       3.3133215979    -1.9889441778     0.5092948604
   17      O       3.0369611698    -0.3873574300     2.8385225209
   18      C       2.8855490868    -3.3944427925     0.3354758904
   19      C       3.5442826316     1.8627536273    -0.1473622311
   20      C       4.7451209852     2.8055323204    -0.5544877762
   21      C       5.5262104215     1.8837130588    -1.5618316669
   22      C       4.6261820285     0.5866621666    -1.5468212061
   23      O       3.2534295393     1.1142426213    -1.3917957598
   24      H       4.8100714940     1.1729583079     1.5695655364
   25      H       5.9539929989    -0.2064489533     0.0624755491
   26      H       2.6349223765     2.3807818290     0.2115442525
   27      H       4.3688383461     3.7155000127    -1.0482374413
   28      H       5.3546234807     3.1009201924     0.3145046197
   29      H       5.5504414048     2.3199077781    -2.5732198494
   30      H       6.5600158058     1.6776776543    -1.2413957722
   31      H       4.7042045162    -0.0530372624    -2.4475133343
   32      O      -1.1516571985     1.1067935768    -0.8778301485
   33      C      -5.0992025218     3.7819608133     0.0550222504
   34      C      -5.2399266215    -1.0313276058     0.0207047263
   35      C      -5.6571393635    -2.1191703662    -1.0453510802
   36      C      -4.2598768631    -2.7595929355    -1.3832825375
   37      C      -3.3081955511    -1.9501950803    -0.4146624216
   38      O      -4.1522852414    -1.6907143577     0.7744196123
   39      H      -5.0202025301     0.3790589487    -1.7051237410
   40      H      -2.8725483306    -0.5328083504    -2.1064155711
   41      H      -4.0642563249     4.1230702393     0.2617738226
   42      H      -6.0461892089    -0.7069993234     0.7068154598
   43      H      -6.3385558688    -2.8563274287    -0.5913176394
   44      H      -6.1504066782    -1.6772600703    -1.9258881001
   45      H      -4.2365537740    -3.8335360030    -1.1395351860
   46      H      -3.9785610577    -2.6311606944    -2.4407309656
   47      H      -2.3776688896    -2.4729735236    -0.1218107252
   48      H      -5.6405899167     3.6978309531     1.0195151687
   49      H      -5.6091449767     4.5183671354    -0.5928299507
   50      H       2.0732264271    -3.5555535144     1.0678868183
   51      H       3.7160818468    -4.1013229337     0.5362712139
   52      H       2.5046570520    -3.5770436930    -0.6903334613
   53      H       0.9509039947    -0.6861098610     2.7113080924
   54      H       0.3386650671    -1.3964891846     1.1639722633
   55      H      -0.9491606563     0.7742238100     2.7076915232
   56      H      -0.3752375351     1.4388118900     1.1124984034
 ----------------------------------------------------------------

    9   -1510.2762581181      6.57E-09 Convergence criterion met
 Total energy in the final basis set = -1510.27625812
 Final energy is   -1510.27625811809
 **  OPTIMIZATION CONVERGED  **

                    Orbital Energies (a.u.)
 --------------------------------------------------------------

 Alpha MOs
 -- Occupied --
-18.943 -18.933 -18.928 -18.921 -18.888 -18.885 -18.874 -18.874
-18.870 -18.862 -10.102 -10.096 -10.095 -10.094 -10.069 -10.063
-10.061 -10.061 -10.059 -10.058 -10.058 -10.055 -10.038 -10.037
-10.036 -10.034 -10.021 -10.020 -10.018 -10.017  -1.017  -1.011
 -1.005  -0.999  -0.969  -0.967  -0.938  -0.934  -0.932  -0.925
 -0.762  -0.760  -0.724  -0.721  -0.711  -0.704  -0.688  -0.665
 -0.662  -0.611  -0.596  -0.576  -0.546  -0.542  -0.537  -0.534
 -0.512  -0.510  -0.488  -0.476  -0.467  -0.458  -0.441  -0.436
 -0.432  -0.431  -0.420  -0.414  -0.411  -0.409  -0.407  -0.403
 -0.388  -0.378  -0.373  -0.369  -0.358  -0.353  -0.350  -0.346
 -0.340  -0.337  -0.332  -0.331  -0.330  -0.323  -0.321  -0.311
 -0.308  -0.305  -0.304  -0.300  -0.295  -0.293  -0.278  -0.276
 -0.273  -0.254  -0.242  -0.241  -0.238  -0.234  -0.230  -0.183
 -0.177  -0.172  -0.160  -0.155  -0.152  -0.146  -0.146  -0.143
 -0.140

          Ground-State Mulliken Net Atomic Charges

     Atom                 Charge (a.u.)
  ----------------------------------------
      1 O                    -0.209501
      2 C                     0.204681
      3 C                    -0.079530
      4 C                    -0.078625
      5 C                     0.206738
      6 O                    -0.162771
      7 C                    -0.053674
      8 C                    -0.055307
      9 O                    -0.171399
     10 C                     0.219881
     11 C                    -0.080450
     12 C                    -0.078338
     13 C                     0.211663
     14 O                    -0.216022
     15 O                    -0.169654
     16 O                    -0.165753
     17 O                    -0.223327
     18 C                    -0.125120
     19 C                     0.027083
     20 C                    -0.144629
     21 C                    -0.143871
     22 C                     0.025265
     23 O                    -0.185567
     24 H                     0.083037
     25 H                     0.085816
     26 H                     0.088730
     27 H                     0.077895
     28 H                     0.072708
     29 H                     0.078167
     30 H                     0.073328
     31 H                     0.085642
     32 O                    -0.212062
     33 C                    -0.129161
     34 C                     0.026485
     35 C                    -0.143329
     36 C                    -0.144684
     37 C                     0.027177
     38 O                    -0.183089
     39 H                     0.086638
     40 H                     0.085491
     41 H                     0.089977
     42 H                     0.083430
     43 H                     0.077907
     44 H                     0.074043
     45 H                     0.077473
     46 H                     0.073728
     47 H                     0.083479
     48 H                     0.088286
     49 H                     0.090211
     50 H                     0.092686
     51 H                     0.092875
     52 H                     0.090774
     53 H                     0.098634
     54 H                     0.081688
     55 H                     0.091255
     56 H                     0.102993
  ----------------------------------------
  Sum of atomic charges =    -0.000000

                    Cartesian Multipole Moments
 -----------------------------------------------------------------
    Charge (ESU x 10^10)
                -0.0000
    Dipole Moment (Debye)
         X      -0.9168      Y       0.3410      Z      -1.0093
       Tot       1.4055
    Quadrupole Moments (Debye-Ang)
        XX    -144.5011     XY       5.5056     YY    -148.8775
        XZ       6.3009     YZ       3.6630     ZZ    -167.3740

 Total job time:  51.28s(wall), 2441.15s(cpu)
        *  Thank you very much for using Q-Chem.  Have a nice day.  *
