 Q-Chem 5.0, Q-Chem, Inc., Pleasanton, CA (2017)
 Q-Chem 5.0.1 for Intel X86 EM64T Linux

User input:
--------------------------------------------------------------
$molecule
0  1
O -3.971373889 1.6711976122 1.2121676204
C -4.4610747678 1.4805401389 0.0782169434
C -4.5089195881 0.1539333103 -0.7527543442
C -3.0842453988 -0.5014959864 -1.0229468827
C -1.899821759 0.2631029536 -0.3353862661
O -1.8083149386 -0.1324274509 1.0377131054
C -0.6396656233 0.5171298925 1.6752522647
C 0.6070894936 -0.4490668865 1.6810451815
O 1.7182338049 0.1990983374 0.9494693839
C 2.9469039446 0.0735471616 1.6786855877
C 4.095776425 0.7463722359 0.8426597358
C 4.875011882 -0.191129116 -0.1778512648
C 4.4258472106 -1.688846542 -0.3318012822
O 4.951719618 -2.5238608523 -1.1003903208
O -5.1117252933 2.5020579583 -0.6907189735
O 3.3133215979 -1.9889441778 0.5092948604
O 3.0369611698 -0.38735743 2.8385225209
C 2.8855490868 -3.3944427925 0.3354758904
C 3.5442826316 1.8627536273 -0.1473622311
C 4.7451209852 2.8055323204 -0.5544877762
C 5.5262104215 1.8837130588 -1.5618316669
C 4.6261820285 0.5866621666 -1.5468212061
O 3.2534295393 1.1142426213 -1.3917957598
H 4.810071494 1.1729583079 1.5695655364
H 5.9539929989 -0.2064489533 0.0624755491
H 2.6349223765 2.380781829 0.2115442525
H 4.3688383461 3.7155000127 -1.0482374413
H 5.3546234807 3.1009201924 0.3145046197
H 5.5504414048 2.3199077781 -2.5732198494
H 6.5600158058 1.6776776543 -1.2413957722
H 4.7042045162 -0.0530372624 -2.4475133343
O -1.1516571985 1.1067935768 -0.8778301485
C -5.0992025218 3.7819608133 0.0550222504
C -5.2399266215 -1.0313276058 0.0207047263
C -5.6571393635 -2.1191703662 -1.0453510802
C -4.2598768631 -2.7595929355 -1.3832825375
C -3.3081955511 -1.9501950803 -0.4146624216
O -4.1522852414 -1.6907143577 0.7744196123
H -5.0202025301 0.3790589487 -1.705123741
H -2.8725483306 -0.5328083504 -2.1064155711
H -4.0642563249 4.1230702393 0.2617738226
H -6.0461892089 -0.7069993234 0.7068154598
H -6.3385558688 -2.8563274287 -0.5913176394
H -6.1504066782 -1.6772600703 -1.9258881001
H -4.236553774 -3.833536003 -1.139535186
H -3.9785610577 -2.6311606944 -2.4407309656
H -2.3776688896 -2.4729735236 -0.1218107252
H -5.6405899167 3.6978309531 1.0195151687
H -5.6091449767 4.5183671354 -0.5928299507
H 2.0732264271 -3.5555535144 1.0678868183
H 3.7160818468 -4.1013229337 0.5362712139
H 2.504657052 -3.577043693 -0.6903334613
H 0.9509039947 -0.686109861 2.7113080924
H 0.3386650671 -1.3964891846 1.1639722633
H -0.9491606563 0.77422381 2.7076915232
H -0.3752375351 1.43881189 1.1124984034
$end

$rem
JOBTYPE                   OPT
METHOD                    B3LYP
DFT_D                     d3_op
BASIS                     STO-3G
GEOM_OPT_MAX_CYCLES       100
GEOM_OPT_TOL_GRADIENT     300
GEOM_OPT_TOL_DISPLACEMENT 1200
GEOM_OPT_TOL_ENERGY       100
SYMMETRY                  False
THRESH                    12
SCF_CONVERGENCE           8
MAX_SUB_FILE_NUM          128
MEM_STATIC                400
MEM_TOTAL                 4000
$end
--------------------------------------------------------------

   16   -1510.2763300478      5.32E-09 Convergence criterion met
 Total energy in the final basis set = -1510.27633005
   14   -1510.2767890020      4.55E-09 Convergence criterion met
 Total energy in the final basis set = -1510.27678900
   13   -1510.2771786144      3.85E-09 Convergence criterion met
 Total energy in the final basis set = -1510.27717861
   12   -1510.2777245505      9.69E-09 Convergence criterion met
 Total energy in the final basis set = -1510.27772455
   12   -1510.2782784678      7.86E-09 Convergence criterion met
 Total energy in the final basis set = -1510.27827847
   13   -1510.2788655613      4.06E-09 Convergence criterion met
 Total energy in the final basis set = -1510.27886556
   13   -1510.2795707233      7.61E-09 Convergence criterion met
 Total energy in the final basis set = -1510.27957072
   13   -1510.2803020029      8.57E-09 Convergence criterion met
   12   -1510.2985747935      7.19E-09 Convergence criterion met
 Total energy in the final basis set = -1510.29857479
   12   -1510.2985726383      5.25E-09 Convergence criterion met
 Total energy in the final basis set = -1510.29857264
   10   -1510.2985962557      7.61E-09 Convergence criterion met
 Total energy in the final basis set = -1510.29859626
   12   -1510.2985997158      2.27E-09 Convergence criterion met
 Total energy in the final basis set = -1510.29859972
   10   -1510.2985957934      7.65E-09 Convergence criterion met
 Total energy in the final basis set = -1510.29859579
   10   -1510.2986017135      8.66E-09 Convergence criterion met
 Total energy in the final basis set = -1510.29860171

             Standard Nuclear Orientation (Angstroms)
    I     Atom           X                Y                Z
 ----------------------------------------------------------------
    1      O      -3.2811703559     1.6913327237     1.3257974834
    2      C      -3.4833643716     1.7332281347     0.0902559655
    3      C      -2.7948237958     0.8394733661    -0.9930188858
    4      C      -1.5916667608     0.0215258799    -0.3807399652
    5      C      -1.1139406797     0.5141092791     1.0326419738
    6      O      -1.3547585732    -0.4939443647     2.0258167644
    7      C      -0.4309825561    -0.2904892294     3.1639928422
    8      C       0.9168559929    -1.0445045780     2.8514082060
    9      O       1.4025877722    -0.6592025247     1.5034825969
   10      C       2.4224232128     0.3484786021     1.6059309426
   11      C       2.8561508472     0.8021227255     0.1727594021
   12      C       3.3145735401    -0.3646331659    -0.8026649159
   13      C       3.0702692129    -1.7998351950    -0.2133701527
   14      O       2.3327338186    -2.6973735398    -0.6710223161
   15      O      -4.4300333019     2.5977680168    -0.5395217650
   16      O       3.8843398232    -1.9397681166     0.9592435391
   17      O       2.8578900448     0.7895611586     2.6914776409
   18      C       3.6664777333    -3.2710972253     1.5681138124
   19      C       1.6551925449     1.4362836313    -0.6611394920
   20      C       2.2828072703     2.3213826650    -1.8047906926
   21      C       2.8330681990     1.2126730314    -2.7821749874
   22      C       2.3734355055    -0.1083697802    -2.0469792952
   23      O       1.0999500714     0.2845231719    -1.4062635347
   24      H       3.6678273574     1.5378609799     0.3071703991
   25      H       4.3856727348    -0.2644455526    -1.0567865746
   26      H       0.8475544399     1.8767620475    -0.0277260393
   27      H       1.5058995454     2.9340938141    -2.2894792154
   28      H       3.0752519387     2.9871150753    -1.4279276142
   29      H       2.3668464670     1.2828544081    -3.7777978182
   30      H       3.9274138937     1.2589291504    -2.9016337096
   31      H       2.2252942589    -0.9965407456    -2.6918144861
   32      O      -0.4616823208     1.5647811353     1.2570300951
   33      C      -5.1336036568     3.4085084718     0.4821670315
   34      C      -3.7713257774    -0.3455856405    -1.4063574813
   35      C      -3.1336609952    -1.1270212196    -2.6243489695
   36      C      -2.0248897895    -1.9770544854    -1.8987562089
   37      C      -2.1724557427    -1.4532939492    -0.4174691239
   38      O      -3.6381652646    -1.2801971394    -0.2669328153
   39      H      -2.5046300052     1.4596864888    -1.8597746726
   40      H      -0.6817902211     0.0893230287    -1.0191632390
   41      H      -4.4226847767     4.0018721763     1.0922194932
   42      H      -4.8265199527    -0.0377904961    -1.5427362179
   43      H      -3.8872430495    -1.7679011169    -3.1089265138
   44      H      -2.7154348129    -0.4411228502    -3.3783062611
   45      H      -2.2449626428    -3.0552500588    -1.9523158490
   46      H      -1.0148154403    -1.7981502931    -2.3003006116
   47      H      -1.7753019073    -2.1197863813     0.3708583075
   48      H      -5.7347668807     2.7708252741     1.1623171176
   49      H      -5.8034842511     4.0879549194    -0.0762289972
   50      H       4.2439912446    -3.2759217898     2.5107641986
   51      H       4.0292680274    -4.0857664858     0.9081167611
   52      H       2.5940640553    -3.4486368367     1.7861224479
   53      H       1.6831077068    -0.7924134326     3.6157050936
   54      H       0.7413259035    -2.1386956194     2.8223894403
   55      H      -0.9121568552    -0.7210133007     4.0648430540
   56      H      -0.2357934138     0.7931473502     3.3098057681
 ----------------------------------------------------------------

    9   -1510.2985987913      9.09E-09 Convergence criterion met
 Total energy in the final basis set = -1510.29859879
 Final energy is   -1510.29859879126
 **  OPTIMIZATION CONVERGED  **

                    Orbital Energies (a.u.)
 --------------------------------------------------------------

 Alpha MOs
 -- Occupied --
-18.937 -18.932 -18.931 -18.920 -18.893 -18.878 -18.876 -18.875
-18.875 -18.855 -10.100 -10.099 -10.097 -10.091 -10.068 -10.064
-10.064 -10.064 -10.062 -10.052 -10.047 -10.043 -10.039 -10.035
-10.030 -10.021 -10.018 -10.011 -10.011 -10.006  -1.016  -1.012
 -1.007  -0.995  -0.974  -0.959  -0.937  -0.935  -0.935  -0.922
 -0.764  -0.751  -0.725  -0.713  -0.709  -0.701  -0.687  -0.663
 -0.660  -0.612  -0.592  -0.576  -0.546  -0.538  -0.535  -0.525
 -0.510  -0.503  -0.484  -0.475  -0.463  -0.459  -0.442  -0.440
 -0.431  -0.424  -0.419  -0.418  -0.413  -0.410  -0.405  -0.400
 -0.389  -0.373  -0.370  -0.365  -0.361  -0.358  -0.350  -0.350
 -0.343  -0.340  -0.334  -0.325  -0.323  -0.320  -0.315  -0.307
 -0.305  -0.302  -0.298  -0.294  -0.291  -0.288  -0.275  -0.272
 -0.266  -0.254  -0.253  -0.247  -0.235  -0.232  -0.217  -0.183
 -0.178  -0.177  -0.160  -0.154  -0.151  -0.151  -0.148  -0.141
 -0.132

          Ground-State Mulliken Net Atomic Charges

     Atom                 Charge (a.u.)
  ----------------------------------------
      1 O                    -0.205979
      2 C                     0.213628
      3 C                    -0.079177
      4 C                    -0.096354
      5 C                     0.226519
      6 O                    -0.170033
      7 C                    -0.052120
      8 C                    -0.054404
      9 O                    -0.175773
     10 C                     0.215677
     11 C                    -0.079928
     12 C                    -0.078219
     13 C                     0.215177
     14 O                    -0.212102
     15 O                    -0.169149
     16 O                    -0.173835
     17 O                    -0.211767
     18 C                    -0.128329
     19 C                     0.012396
     20 C                    -0.144057
     21 C                    -0.144675
     22 C                     0.026963
     23 O                    -0.196275
     24 H                     0.085850
     25 H                     0.085361
     26 H                     0.111238
     27 H                     0.077187
     28 H                     0.074605
     29 H                     0.076968
     30 H                     0.073599
     31 H                     0.088482
     32 O                    -0.235670
     33 C                    -0.128335
     34 C                     0.024649
     35 C                    -0.144255
     36 C                    -0.143124
     37 C                     0.024560
     38 O                    -0.193632
     39 H                     0.085031
     40 H                     0.114787
     41 H                     0.091599
     42 H                     0.081157
     43 H                     0.075302
     44 H                     0.072380
     45 H                     0.074961
     46 H                     0.078466
     47 H                     0.089955
     48 H                     0.089969
     49 H                     0.090763
     50 H                     0.090293
     51 H                     0.087361
     52 H                     0.088891
     53 H                     0.099003
     54 H                     0.084982
     55 H                     0.089070
     56 H                     0.100361
  ----------------------------------------
  Sum of atomic charges =    -0.000000

                    Cartesian Multipole Moments
 -----------------------------------------------------------------
    Charge (ESU x 10^10)
                -0.0000
    Dipole Moment (Debye)
         X       1.1310      Y       0.2548      Z      -1.4636
       Tot       1.8671
    Quadrupole Moments (Debye-Ang)
        XX    -152.4888     XY      -9.6058     YY    -155.2900
        XZ      -1.6928     YZ      -7.8287     ZZ    -154.3814

 Total job time:  121.75s(wall), 5503.98s(cpu)
        *  Thank you very much for using Q-Chem.  Have a nice day.  *
