 Q-Chem 5.0, Q-Chem, Inc., Pleasanton, CA (2017)
 Q-Chem 5.0.1 for Intel X86 EM64T Linux

User input:
--------------------------------------------------------------
$molecule
0  1
O -3.9496449391 1.7173983011 1.4198519028
C -4.3504127577 1.4819451437 0.2594450791
C -4.4306467194 0.0993380085 -0.4720314272
C -3.0149854006 -0.6080417354 -0.6367313776
C -1.8253535679 0.1887804715 0.0117741729
O -1.6579377208 -0.1934864027 1.3814305867
C -0.2460589351 -0.0009598309 1.7971753796
C 0.6818476003 -1.0805936951 1.1352486639
O 2.060577596 -0.5454350721 1.2069766549
C 2.9862051086 -1.5257542881 0.7172153252
C 4.3599167579 -0.8310423904 0.4134167489
C 4.5181326674 -0.1034944181 -0.9917057482
C 3.3083850072 -0.0209454705 -1.9910721516
O 3.3675232517 0.5410801203 -3.1092544179
O -4.8369537616 2.4863468097 -0.6396542547
O 2.1315820634 -0.6410071024 -1.4789827999
O 2.7195688225 -2.7389616493 0.5760812969
C 0.9843713792 -0.4264691613 -2.3976961662
C 4.6543083633 0.375979705 1.4081611899
C 6.2086110759 0.6563888157 1.4116517428
C 6.3900028612 1.3585842633 0.0150112186
C 4.903110181 1.3696269276 -0.5158753249
O 4.092491254 1.552477405 0.7069503217
H 5.1333318534 -1.6153685591 0.5007804798
H 5.3564893254 -0.5536954526 -1.5548066269
H 4.19088523 0.2648931856 2.4071055924
H 6.4753068445 1.3310308546 2.2406803558
H 6.7987834065 -0.2691744926 1.5048656666
H 6.7662755945 2.3880779568 0.1252044252
H 7.0660612276 0.8057750781 -0.6565408047
H 4.6735951085 2.155351511 -1.2619161982
O -1.0545064083 0.9640495396 -0.6034190136
C -4.7700307588 3.8187374249 0.0048245372
C -5.2137581373 -0.998928881 0.3725023321
C -5.6151472539 -2.1692448453 -0.6084710773
C -4.2226347873 -2.8686323098 -0.8289080021
C -3.2873315856 -1.9896094017 0.0928630507
O -4.1652538833 -1.6057752615 1.2219610126
H -4.903931615 0.2652048981 -1.4556413544
H -2.7684619922 -0.7376083293 -1.7059038135
H -3.7284417715 4.0881553848 0.274534412
H -6.0356050948 -0.6000810672 0.997968123
H -6.3339219622 -2.8468001469 -0.1206749224
H -6.0601062051 -1.7967776358 -1.5448611387
H -4.2341524704 -3.9131646884 -0.4790749939
H -3.90025354 -2.8533050664 -1.8824356745
H -2.3775518019 -2.4974979262 0.4659015999
H -5.3925363127 3.8603240021 0.9218733599
H -5.1576914954 4.5381652071 -0.7396486308
H 0.5687466703 -1.4150358916 -2.6736226954
H 1.3430511846 0.1038997647 -3.3021611978
H 0.2116149461 0.1769409354 -1.867118088
H 0.5978148273 -2.0555321792 1.6625645162
H 0.3947042399 -1.2387892354 0.0751525887
H -0.2406421521 -0.092397659 2.9006195857
H 0.1201589389 1.0085076567 1.5085842932
$end

$rem
JOBTYPE                   OPT
METHOD                    B3LYP
DFT_D                     d3_op
BASIS                     STO-3G
GEOM_OPT_MAX_CYCLES       100
GEOM_OPT_TOL_GRADIENT     300
GEOM_OPT_TOL_DISPLACEMENT 1200
GEOM_OPT_TOL_ENERGY       100
SYMMETRY                  False
THRESH                    12
SCF_CONVERGENCE           8
MAX_SUB_FILE_NUM          128
MEM_STATIC                400
MEM_TOTAL                 4000
$end
--------------------------------------------------------------

   16   -1510.2755779906      5.27E-09 Convergence criterion met
 Total energy in the final basis set = -1510.27557799
   15   -1510.2787206215      3.81E-09 Convergence criterion met
 Total energy in the final basis set = -1510.27872062
   14   -1510.2795125044      8.85E-09 Convergence criterion met
 Total energy in the final basis set = -1510.27951250
   14   -1510.2798887288      3.54E-09 Convergence criterion met
 Total energy in the final basis set = -1510.27988873
   13   -1510.2830441056      6.14E-09 Convergence criterion met
 Total energy in the final basis set = -1510.28304411
   13   -1510.2836120641      5.14E-09 Convergence criterion met
 Total energy in the final basis set = -1510.28361206
   13   -1510.2843429391      8.69E-09 Convergence criterion met
 Total energy in the final basis set = -1510.28434294
   13   -1510.2849856207      9.51E-09 Convergence criterion met
   14   -1510.2936489941      2.51E-09 Convergence criterion met
 Total energy in the final basis set = -1510.29364899
   13   -1510.2938826626      7.97E-09 Convergence criterion met
 Total energy in the final basis set = -1510.29388266
   11   -1510.2938774904      5.65E-09 Convergence criterion met
 Total energy in the final basis set = -1510.29387749
   13   -1510.2938188304      2.77E-09 Convergence criterion met
 Total energy in the final basis set = -1510.29381883
   12   -1510.2938532612      4.75E-09 Convergence criterion met
 Total energy in the final basis set = -1510.29385326
   10   -1510.2938488558      7.33E-09 Convergence criterion met
 Total energy in the final basis set = -1510.29384886

             Standard Nuclear Orientation (Angstroms)
    I     Atom           X                Y                Z
 ----------------------------------------------------------------
    1      O      -2.0463817038     1.1035813555    -0.8228073260
    2      C      -3.2862380427     1.0470459437    -0.9943925612
    3      C      -4.1950752940    -0.2247202116    -0.9060654340
    4      C      -3.3847425001    -1.5348508041    -0.5320917047
    5      C      -1.8321840125    -1.2987810012    -0.4103510288
    6      O      -1.5131958744    -0.9766325376     0.9438992543
    7      C      -0.1119206762    -0.5122177635     1.0858597222
    8      C       0.9683468276    -1.6231997921     0.8156892774
    9      O       2.2667130508    -0.9097179600     0.8419471728
   10      C       3.2149991414    -1.5027679448    -0.0534706820
   11      C       4.4652509261    -0.5597436086    -0.0808945937
   12      C       4.0788579807     0.9474078819    -0.4014812772
   13      C       2.5567225601     1.1496496964    -0.7412326313
   14      O       1.7330531383     1.8959531927    -0.1671108091
   15      O      -4.0982696003     2.1758298791    -1.3094555883
   16      O       2.2746016343     0.3566073803    -1.8958273236
   17      O       3.0347919724    -2.5698515292    -0.6769465107
   18      C       0.8697745399     0.5350815951    -2.3412724643
   19      C       5.1017369085    -0.3881756848     1.3665891381
   20      C       6.5053012159     0.3249606127     1.2131869003
   21      C       6.0668356419     1.8151165553     0.9561989280
   22      C       4.4956067970     1.6674995009     0.9460279387
   23      O       4.2465206182     0.6454067008     1.9897902741
   24      H       5.1890814035    -0.9647098255    -0.8093184720
   25      H       4.6695156714     1.3211228261    -1.2578292819
   26      H       5.1056631858    -1.3106749430     1.9790116030
   27      H       7.0914055013     0.2285639152     2.1409517023
   28      H       7.0910401881    -0.0954880371     0.3801570367
   29      H       6.3862254759     2.4757513862     1.7779339569
   30      H       6.4563693660     2.2167891773     0.0071545223
   31      H       3.9188671253     2.5879233235     1.1623301350
   32      O      -1.0046178493    -1.4991300158    -1.3326667855
   33      C      -3.2596812369     3.3959852072    -1.3907867834
   34      C      -5.2127737699    -0.1387966746     0.3143606710
   35      C      -6.3085029430    -1.2611774097     0.1266609714
   36      C      -5.4933053370    -2.5494999246     0.5168427940
   37      C      -4.0771839351    -1.9282022307     0.8412196263
   38      O      -4.4066392866    -0.6214683328     1.4569378582
   39      H      -4.7330796711    -0.3348584897    -1.8654053988
   40      H      -3.5371085180    -2.3119989841    -1.3016485692
   41      H      -2.5070881494     3.3173565568    -2.2018005401
   42      H      -5.6026043056     0.8794488161     0.5079189080
   43      H      -7.1530091220    -1.0918213664     0.8133743256
   44      H      -6.6938220252    -1.2959914765    -0.9050078941
   45      H      -5.9136987159    -3.0370651775     1.4108071780
   46      H      -5.4449340163    -3.2872939056    -0.2998958233
   47      H      -3.4408785098    -2.5260518067     1.5211769774
   48      H      -2.7300882611     3.5898033960    -0.4358540670
   49      H      -3.9542258806     4.2279151170    -1.6084284073
   50      H       0.8802988960     0.5206109840    -3.4470862992
   51      H       0.4679653994     1.4999432855    -1.9745793851
   52      H       0.2254528778    -0.2936862670    -1.9594295976
   53      H       0.9396816675    -2.4098270839     1.6004937452
   54      H       0.7987332556    -2.0932256242    -0.1756823127
   55      H      -0.0327754693    -0.1616959788     2.1342975376
   56      H       0.0837794937     0.3524540480     0.4137328479
 ----------------------------------------------------------------

   10   -1510.2938467158      3.87E-09 Convergence criterion met
 Total energy in the final basis set = -1510.29384672
 Final energy is   -1510.29384671584
 **  OPTIMIZATION CONVERGED  **

                    Orbital Energies (a.u.)
 --------------------------------------------------------------

 Alpha MOs
 -- Occupied --
-18.948 -18.930 -18.924 -18.918 -18.891 -18.890 -18.882 -18.870
-18.869 -18.862 -10.111 -10.103 -10.092 -10.089 -10.072 -10.064
-10.061 -10.060 -10.058 -10.056 -10.052 -10.044 -10.037 -10.031
-10.029 -10.029 -10.023 -10.021 -10.016 -10.015  -1.024  -1.008
 -1.004  -0.994  -0.973  -0.964  -0.947  -0.935  -0.929  -0.923
 -0.766  -0.757  -0.727  -0.721  -0.712  -0.701  -0.688  -0.669
 -0.644  -0.610  -0.594  -0.578  -0.549  -0.540  -0.539  -0.531
 -0.515  -0.504  -0.487  -0.471  -0.465  -0.455  -0.449  -0.439
 -0.436  -0.429  -0.425  -0.418  -0.413  -0.399  -0.397  -0.395
 -0.383  -0.380  -0.374  -0.364  -0.360  -0.356  -0.351  -0.342
 -0.339  -0.336  -0.334  -0.328  -0.326  -0.321  -0.320  -0.316
 -0.308  -0.305  -0.302  -0.299  -0.290  -0.284  -0.283  -0.274
 -0.267  -0.263  -0.248  -0.239  -0.236  -0.235  -0.228  -0.189
 -0.177  -0.168  -0.164  -0.157  -0.150  -0.148  -0.144  -0.141
 -0.137

          Ground-State Mulliken Net Atomic Charges

     Atom                 Charge (a.u.)
  ----------------------------------------
      1 O                    -0.206371
      2 C                     0.215777
      3 C                    -0.078161
      4 C                    -0.081482
      5 C                     0.223657
      6 O                    -0.168203
      7 C                    -0.050998
      8 C                    -0.056444
      9 O                    -0.172078
     10 C                     0.212970
     11 C                    -0.077753
     12 C                    -0.077663
     13 C                     0.213229
     14 O                    -0.220294
     15 O                    -0.167382
     16 O                    -0.177503
     17 O                    -0.210624
     18 C                    -0.151884
     19 C                     0.025774
     20 C                    -0.144208
     21 C                    -0.143732
     22 C                     0.024462
     23 O                    -0.186008
     24 H                     0.084790
     25 H                     0.082872
     26 H                     0.081740
     27 H                     0.076906
     28 H                     0.073162
     29 H                     0.076985
     30 H                     0.072425
     31 H                     0.088900
     32 O                    -0.224970
     33 C                    -0.128057
     34 C                     0.025227
     35 C                    -0.143696
     36 C                    -0.144136
     37 C                     0.026471
     38 O                    -0.187039
     39 H                     0.087608
     40 H                     0.084370
     41 H                     0.091171
     42 H                     0.086912
     43 H                     0.078815
     44 H                     0.073895
     45 H                     0.078534
     46 H                     0.073905
     47 H                     0.088573
     48 H                     0.094775
     49 H                     0.093153
     50 H                     0.078347
     51 H                     0.089180
     52 H                     0.109732
     53 H                     0.080439
     54 H                     0.105162
     55 H                     0.092807
     56 H                     0.105962
  ----------------------------------------
  Sum of atomic charges =    -0.000000

                    Cartesian Multipole Moments
 -----------------------------------------------------------------
    Charge (ESU x 10^10)
                 0.0000
    Dipole Moment (Debye)
         X      -1.7892      Y       0.9243      Z      -1.1613
       Tot       2.3247
    Quadrupole Moments (Debye-Ang)
        XX    -134.2754     XY       5.8935     YY    -155.0750
        XZ       5.8724     YZ      -7.7314     ZZ    -163.3452

 Total job time:  146.89s(wall), 7003.11s(cpu)
        *  Thank you very much for using Q-Chem.  Have a nice day.  *
