 Q-Chem 5.0, Q-Chem, Inc., Pleasanton, CA (2017)
 Q-Chem 5.0.1 for Intel X86 EM64T Linux

User input:
--------------------------------------------------------------
$molecule
0  1
O -3.94934 -3.66094 2.70899
C -3.26408 -4.56952 2.26188
C -3.36658 -6.02376 2.66595
C -3.09138 -6.36459 4.13971
C -2.91895 -5.19381 5.08185
O -4.13238 -4.82146 5.5862
C -4.04139 -4.20508 6.87502
C -3.69367 -5.24737 7.93277
O -3.1661 -4.60105 9.10188
C -2.91 -5.41748 10.15402
C -2.0204 -4.77704 11.19282
C -0.51598 -4.85794 10.89542
C -0.14236 -5.23141 9.47499
O 0.99771 -5.34145 9.04756
O -2.34775 -4.28115 1.30023
O -0.96705 -6.05302 8.76909
O -3.48809 -6.48087 10.3397
C -0.58291 -6.82743 7.67628
C -2.20581 -3.25667 11.35904
C -1.71743 -2.82397 12.7408
C -0.21964 -2.98494 12.57494
C -0.14538 -3.37622 11.09486
O -1.23319 -2.69927 10.50998
H -2.25158 -5.28103 12.15911
H 0.03228 -5.54539 11.57654
H -3.25398 -2.92291 11.1965
H -1.94835 -1.7395 12.84508
H -2.16225 -3.37696 13.5959
H 0.2593 -1.99425 12.74033
H 0.2525 -3.75077 13.22774
H 0.85814 -3.13173 10.6812
O -1.88823 -4.54375 5.1958
C -2.12108 -3.01751 0.79629
C -4.7877 -6.58535 2.48542
C -4.72971 -8.10278 2.31684
C -4.36731 -8.52793 3.72417
C -4.38363 -7.17051 4.43668
O -5.377 -6.44481 3.75282
H -2.66667 -6.58492 2.00504
H -2.2073 -7.02272 4.29163
H -1.79119 -2.33513 1.60866
H -5.33487 -6.12256 1.63485
H -5.76435 -8.4509 2.0965
H -4.044 -8.46311 1.52003
H -5.18226 -9.17753 4.1144
H -3.38829 -9.04339 3.82932
H -4.54539 -7.31824 5.52752
H -3.04621 -2.62168 0.32524
H -1.32319 -3.07012 0.02746
H -1.42579 -7.45883 7.33069
H 0.23898 -7.51713 7.96484
H -0.24818 -6.17449 6.84219
H -4.60729 -5.84415 8.15181
H -2.95145 -5.93179 7.52593
H -5.00236 -3.71982 7.14737
H -3.273 -3.39866 6.85074
$end

$opt
CONSTRAINT
tors           1           2           3           4     -61.159
tors           3           4           5           6     +88.846
tors           4           5           6           7    +152.591
tors           5           6           7           8     -71.886
tors           6           7           8           9    +160.613
tors           7           8           9          10    +175.356
tors           8           9          10          11    +164.079
tors           9          10          11          12     -83.278
tors          11          12          13          14    +179.762
ENDCONSTRAINT
$end

$rem
JOBTYPE                   OPT
METHOD                    B3LYP
DFT_D                     d3_op
BASIS                     STO-3G
GEOM_OPT_MAX_CYCLES       100
GEOM_OPT_TOL_GRADIENT     300
GEOM_OPT_TOL_DISPLACEMENT 1200
GEOM_OPT_TOL_ENERGY       100
SYMMETRY                  False
THRESH                    12
SCF_CONVERGENCE           8
MAX_SUB_FILE_NUM          128
MEM_STATIC                400
MEM_TOTAL                 4000
$end
--------------------------------------------------------------

   15   -1510.1257925593      6.22E-09 Convergence criterion met
 Total energy in the final basis set = -1510.12579256
   14   -1510.1996549033      8.56E-09 Convergence criterion met
 Total energy in the final basis set = -1510.19965490
   14   -1510.2398504993      2.75E-09 Convergence criterion met
 Total energy in the final basis set = -1510.23985050
   14   -1510.2587834167      7.50E-09 Convergence criterion met
 Total energy in the final basis set = -1510.25878342
   14   -1510.2661106044      5.30E-09 Convergence criterion met
 Total energy in the final basis set = -1510.26611060
   13   -1510.2691954316      9.45E-09 Convergence criterion met
 Total energy in the final basis set = -1510.26919543
    3   -1510.2691954314      6.25E-10 Convergence criterion met
 Total energy in the final basis set = -1510.26919543
   13   -1510.2712807827      3.68E-09 Convergence criterion met
   11   -1510.2755015715      7.65E-09 Convergence criterion met
 Total energy in the final basis set = -1510.27550157
    9   -1510.2755224365      5.41E-09 Convergence criterion met
 Total energy in the final basis set = -1510.27552244
   11   -1510.2755502309      4.04E-09 Convergence criterion met
 Total energy in the final basis set = -1510.27555023
   10   -1510.2755676721      4.14E-09 Convergence criterion met
 Total energy in the final basis set = -1510.27556767
   10   -1510.2755862567      6.66E-09 Convergence criterion met
 Total energy in the final basis set = -1510.27558626
    9   -1510.2755929054      5.56E-09 Convergence criterion met
 Total energy in the final basis set = -1510.27559291

             Standard Nuclear Orientation (Angstroms)
    I     Atom           X                Y                Z
 ----------------------------------------------------------------
    1      O      -3.9496449391     1.7173983011     1.4198519028
    2      C      -4.3504127577     1.4819451437     0.2594450791
    3      C      -4.4306467194     0.0993380085    -0.4720314272
    4      C      -3.0149854006    -0.6080417354    -0.6367313776
    5      C      -1.8253535679     0.1887804715     0.0117741729
    6      O      -1.6579377208    -0.1934864027     1.3814305867
    7      C      -0.2460589351    -0.0009598309     1.7971753796
    8      C       0.6818476003    -1.0805936951     1.1352486639
    9      O       2.0605775960    -0.5454350721     1.2069766549
   10      C       2.9862051086    -1.5257542881     0.7172153252
   11      C       4.3599167579    -0.8310423904     0.4134167489
   12      C       4.5181326674    -0.1034944181    -0.9917057482
   13      C       3.3083850072    -0.0209454705    -1.9910721516
   14      O       3.3675232517     0.5410801203    -3.1092544179
   15      O      -4.8369537616     2.4863468097    -0.6396542547
   16      O       2.1315820634    -0.6410071024    -1.4789827999
   17      O       2.7195688225    -2.7389616493     0.5760812969
   18      C       0.9843713792    -0.4264691613    -2.3976961662
   19      C       4.6543083633     0.3759797050     1.4081611899
   20      C       6.2086110759     0.6563888157     1.4116517428
   21      C       6.3900028612     1.3585842633     0.0150112186
   22      C       4.9031101810     1.3696269276    -0.5158753249
   23      O       4.0924912540     1.5524774050     0.7069503217
   24      H       5.1333318534    -1.6153685591     0.5007804798
   25      H       5.3564893254    -0.5536954526    -1.5548066269
   26      H       4.1908852300     0.2648931856     2.4071055924
   27      H       6.4753068445     1.3310308546     2.2406803558
   28      H       6.7987834065    -0.2691744926     1.5048656666
   29      H       6.7662755945     2.3880779568     0.1252044252
   30      H       7.0660612276     0.8057750781    -0.6565408047
   31      H       4.6735951085     2.1553515110    -1.2619161982
   32      O      -1.0545064083     0.9640495396    -0.6034190136
   33      C      -4.7700307588     3.8187374249     0.0048245372
   34      C      -5.2137581373    -0.9989288810     0.3725023321
   35      C      -5.6151472539    -2.1692448453    -0.6084710773
   36      C      -4.2226347873    -2.8686323098    -0.8289080021
   37      C      -3.2873315856    -1.9896094017     0.0928630507
   38      O      -4.1652538833    -1.6057752615     1.2219610126
   39      H      -4.9039316150     0.2652048981    -1.4556413544
   40      H      -2.7684619922    -0.7376083293    -1.7059038135
   41      H      -3.7284417715     4.0881553848     0.2745344120
   42      H      -6.0356050948    -0.6000810672     0.9979681230
   43      H      -6.3339219622    -2.8468001469    -0.1206749224
   44      H      -6.0601062051    -1.7967776358    -1.5448611387
   45      H      -4.2341524704    -3.9131646884    -0.4790749939
   46      H      -3.9002535400    -2.8533050664    -1.8824356745
   47      H      -2.3775518019    -2.4974979262     0.4659015999
   48      H      -5.3925363127     3.8603240021     0.9218733599
   49      H      -5.1576914954     4.5381652071    -0.7396486308
   50      H       0.5687466703    -1.4150358916    -2.6736226954
   51      H       1.3430511846     0.1038997647    -3.3021611978
   52      H       0.2116149461     0.1769409354    -1.8671180880
   53      H       0.5978148273    -2.0555321792     1.6625645162
   54      H       0.3947042399    -1.2387892354     0.0751525887
   55      H      -0.2406421521    -0.0923976590     2.9006195857
   56      H       0.1201589389     1.0085076567     1.5085842932
 ----------------------------------------------------------------

    9   -1510.2755921757      3.10E-09 Convergence criterion met
 Total energy in the final basis set = -1510.27559218
 Final energy is   -1510.27559217573
 **  OPTIMIZATION CONVERGED  **

                    Orbital Energies (a.u.)
 --------------------------------------------------------------

 Alpha MOs
 -- Occupied --
-18.937 -18.936 -18.935 -18.924 -18.891 -18.887 -18.884 -18.876
-18.870 -18.867 -10.107 -10.099 -10.099 -10.096 -10.072 -10.067
-10.064 -10.063 -10.063 -10.058 -10.057 -10.047 -10.042 -10.040
-10.039 -10.034 -10.023 -10.022 -10.019 -10.018  -1.017  -1.012
 -1.010  -1.001  -0.972  -0.969  -0.943  -0.936  -0.933  -0.929
 -0.766  -0.760  -0.728  -0.722  -0.713  -0.707  -0.693  -0.664
 -0.655  -0.614  -0.598  -0.582  -0.550  -0.542  -0.540  -0.536
 -0.515  -0.512  -0.489  -0.475  -0.466  -0.460  -0.454  -0.438
 -0.435  -0.432  -0.424  -0.413  -0.411  -0.410  -0.406  -0.399
 -0.396  -0.385  -0.378  -0.368  -0.360  -0.354  -0.350  -0.350
 -0.344  -0.340  -0.334  -0.331  -0.331  -0.327  -0.323  -0.311
 -0.311  -0.308  -0.305  -0.303  -0.294  -0.287  -0.283  -0.280
 -0.274  -0.256  -0.249  -0.247  -0.237  -0.236  -0.233  -0.182
 -0.178  -0.172  -0.165  -0.161  -0.156  -0.151  -0.146  -0.146
 -0.141

          Ground-State Mulliken Net Atomic Charges

     Atom                 Charge (a.u.)
  ----------------------------------------
      1 O                    -0.207591
      2 C                     0.204229
      3 C                    -0.079385
      4 C                    -0.079053
      5 C                     0.211864
      6 O                    -0.160868
      7 C                    -0.048575
      8 C                    -0.048542
      9 O                    -0.170854
     10 C                     0.217567
     11 C                    -0.080688
     12 C                    -0.077518
     13 C                     0.212149
     14 O                    -0.219188
     15 O                    -0.169233
     16 O                    -0.171034
     17 O                    -0.217203
     18 C                    -0.147573
     19 C                     0.026471
     20 C                    -0.144312
     21 C                    -0.144030
     22 C                     0.025779
     23 O                    -0.187336
     24 H                     0.082528
     25 H                     0.085900
     26 H                     0.085522
     27 H                     0.077617
     28 H                     0.073310
     29 H                     0.078190
     30 H                     0.073837
     31 H                     0.086951
     32 O                    -0.213891
     33 C                    -0.129139
     34 C                     0.026302
     35 C                    -0.143481
     36 C                    -0.144577
     37 C                     0.026972
     38 O                    -0.182357
     39 H                     0.086901
     40 H                     0.084702
     41 H                     0.090969
     42 H                     0.084672
     43 H                     0.078797
     44 H                     0.074299
     45 H                     0.078986
     46 H                     0.073331
     47 H                     0.085364
     48 H                     0.089063
     49 H                     0.090759
     50 H                     0.078944
     51 H                     0.101261
     52 H                     0.102416
     53 H                     0.087873
     54 H                     0.086389
     55 H                     0.094683
     56 H                     0.101832
  ----------------------------------------
  Sum of atomic charges =    -0.000000

                    Cartesian Multipole Moments
 -----------------------------------------------------------------
    Charge (ESU x 10^10)
                 0.0000
    Dipole Moment (Debye)
         X      -0.7277      Y      -0.4094      Z      -0.8057
       Tot       1.1603
    Quadrupole Moments (Debye-Ang)
        XX    -137.2719     XY      -0.5651     YY    -159.9275
        XZ      11.9247     YZ       3.6990     ZZ    -165.0854

 Total job time:  70.90s(wall), 3373.21s(cpu)
        *  Thank you very much for using Q-Chem.  Have a nice day.  *
