 Q-Chem 5.0, Q-Chem, Inc., Pleasanton, CA (2017)
 Q-Chem 5.0.1 for Intel X86 EM64T Linux

User input:
--------------------------------------------------------------
$molecule
0  1
O -4.1927655644 1.7458805775 1.0952196363
C -4.2412378921 1.4145562745 -0.1088302209
C -3.8864852954 0.0273835902 -0.7446364872
C -2.3552676908 -0.3716369967 -0.5714278038
C -1.4911806435 0.691454138 0.2024239001
O -1.5809996975 0.4762407926 1.6230741476
C -0.2999306935 0.8399598859 2.2706725817
C 0.7182554214 -0.3642268989 2.2371512778
O 1.8850573596 0.092574372 1.4492831348
C 2.9498523069 -0.8633833394 1.525826446
C 4.1446247588 -0.3446557239 0.6457929512
C 3.9890549184 -0.5139025177 -0.9249915323
C 2.7646873956 -1.308662571 -1.5006551777
O 2.540927761 -1.4991854368 -2.716490821
O -4.6523896014 2.2923376102 -1.1654639215
O 1.9518252226 -1.858057235 -0.4615590108
O 2.9398735426 -1.8752409728 2.2598330629
C 0.823593777 -2.6205873152 -1.0404638165
C 4.2858476739 1.2358086717 0.7476424512
C 5.6982082722 1.6639547817 0.1796751724
C 5.4557148502 1.5441407752 -1.3705743878
C 3.9711366697 1.0093594754 -1.398561517
O 3.3310516497 1.7243693895 -0.2738816596
H 5.0540576881 -0.8639589228 0.9961421777
H 4.8878314489 -1.0131551636 -1.3328425922
H 4.034569297 1.6522305772 1.7418330234
H 5.9341228123 2.6989400802 0.4736293509
H 6.5041510339 1.0031324908 0.5369087798
H 5.5167471964 2.526689969 -1.8652765101
H 6.159498357 0.8553458199 -1.8642636827
H 3.4192122602 1.1846812797 -2.3427516677
O -0.7687081145 1.5618385942 -0.3307417856
C -4.9781046387 3.6287135627 -0.6155385532
C -4.5951221686 -1.1811408023 0.0075658817
C -4.5206265397 -2.4531694896 -0.9265572986
C -3.004069943 -2.8474750308 -0.7804107342
C -2.4958994615 -1.737050225 0.2224332555
O -3.6593683609 -1.5041166002 1.1068987729
H -4.1660254733 0.0624602494 -1.8122027987
H -1.8818755185 -0.5084655313 -1.5600990466
H -4.0964144608 4.0948604023 -0.1299888101
H -5.5993621904 -0.9469687553 0.4106184099
H -5.182662635 -3.2473116184 -0.5461332886
H -4.803548499 -2.2248363046 -1.9664770879
H -2.8868738694 -3.849286675 -0.3375473128
H -2.4636303491 -2.8210119361 -1.7402696497
H -1.6086808591 -2.0116276923 0.8226414033
H -5.8010018089 3.576329245 0.1264221436
H -5.2944623873 4.244833938 -1.4771649418
H 0.3153227257 -3.107945472 -0.188520307
H 1.1750665291 -3.3909931711 -1.7563905518
H 0.1112336886 -1.9508365165 -1.5638974953
H 1.0282515387 -0.6596940319 3.2627928816
H 0.2450678392 -1.2510889623 1.7602940285
H -0.5496820537 1.1096589009 3.3158770785
H 0.1649330603 1.713066984 1.7617251403
$end

$rem
JOBTYPE                   OPT
METHOD                    B3LYP
DFT_D                     d3_op
BASIS                     STO-3G
GEOM_OPT_MAX_CYCLES       100
GEOM_OPT_TOL_GRADIENT     300
GEOM_OPT_TOL_DISPLACEMENT 1200
GEOM_OPT_TOL_ENERGY       100
SYMMETRY                  False
THRESH                    12
SCF_CONVERGENCE           8
MAX_SUB_FILE_NUM          128
MEM_STATIC                400
MEM_TOTAL                 4000
$end
--------------------------------------------------------------

   16   -1510.2721187713      4.02E-09 Convergence criterion met
 Total energy in the final basis set = -1510.27211877
   15   -1510.2751850895      1.90E-09 Convergence criterion met
 Total energy in the final basis set = -1510.27518509
   14   -1510.2762537268      2.58E-09 Convergence criterion met
 Total energy in the final basis set = -1510.27625373
   14   -1510.2785121632      4.94E-09 Convergence criterion met
 Total energy in the final basis set = -1510.27851216
   14   -1510.2796067183      5.46E-09 Convergence criterion met
 Total energy in the final basis set = -1510.27960672
   13   -1510.2807123488      6.71E-09 Convergence criterion met
 Total energy in the final basis set = -1510.28071235
   14   -1510.2818342362      5.79E-09 Convergence criterion met
 Total energy in the final basis set = -1510.28183424
   14   -1510.2822665609      7.44E-09 Convergence criterion met
   12   -1510.3047957601      6.95E-09 Convergence criterion met
 Total energy in the final basis set = -1510.30479576
   12   -1510.3048320550      9.60E-09 Convergence criterion met
 Total energy in the final basis set = -1510.30483206
   13   -1510.3048284780      2.95E-09 Convergence criterion met
 Total energy in the final basis set = -1510.30482848
   12   -1510.3048693566      2.96E-09 Convergence criterion met
 Total energy in the final basis set = -1510.30486936
   11   -1510.3048815809      4.90E-09 Convergence criterion met
 Total energy in the final basis set = -1510.30488158
   10   -1510.3048796980      9.61E-09 Convergence criterion met
 Total energy in the final basis set = -1510.30487970

             Standard Nuclear Orientation (Angstroms)
    I     Atom           X                Y                Z
 ----------------------------------------------------------------
    1      O      -3.3379106060     2.1846804443    -0.5609221408
    2      C      -2.4807525004     1.3997514971    -1.0196492371
    3      C      -2.6131964683    -0.1451152208    -1.2653127334
    4      C      -1.8778497789    -1.0479369427    -0.1934932334
    5      C      -1.3424939620    -0.2412545986     1.0313564415
    6      O      -0.8168045123    -1.1749627323     1.9988243818
    7      C      -0.2940276371    -0.4456382019     3.1806367021
    8      C       1.2707551900    -0.4493322106     3.1786118210
    9      O       1.6844228008     0.1756100659     1.9013607552
   10      C       3.0700946504    -0.0936404120     1.6424455543
   11      C       3.4483614982     0.5427562405     0.2575321172
   12      C       2.6429201987    -0.0339671997    -0.9817481128
   13      C       1.7058308033    -1.2594115016    -0.7043204983
   14      O       0.6785698320    -1.5464959760    -1.3637738543
   15      O      -1.2005122776     1.7919386090    -1.5340917036
   16      O       2.2065941913    -2.0432688336     0.3733423581
   17      O       3.8360137044    -0.6710092870     2.4432772050
   18      C       1.1969296425    -3.0489994884     0.7946064567
   19      C       3.0040477699     2.0677775706     0.1999388701
   20      C       3.6582984006     2.7517399274    -1.0664734396
   21      C       2.7407599451     2.2053599770    -2.2239445494
   22      C       1.7920801727     1.2357993620    -1.4221476934
   23      O       1.5705427464     1.9689433569    -0.1522587565
   24      H       4.5369515344     0.4199102687     0.1200824177
   25      H       3.3427814124    -0.3278995219    -1.7866640214
   26      H       3.1332441429     2.6186203066     1.1517583047
   27      H       3.6015837814     3.8488187866    -0.9858653640
   28      H       4.7136610054     2.4610097089    -1.1901815946
   29      H       2.1531090225     3.0142283609    -2.6868721054
   30      H       3.3094330733     1.6856416870    -3.0113897183
   31      H       0.8095999509     1.0027711206    -1.8839608554
   32      O      -1.3614973546     0.9954547549     1.2089063392
   33      C      -0.8999004393     3.2018837289    -1.1883182811
   34      C      -4.1024961046    -0.6807296434    -1.1403781472
   35      C      -4.1825975493    -2.0500025047    -1.9227011078
   36      C      -3.3796723514    -2.9951249985    -0.9526782282
   37      C      -3.0578224232    -2.0111548505     0.2417238730
   38      O      -4.2231886159    -1.0973813321     0.2770099445
   39      H      -2.1999567936    -0.3567023575    -2.2673846390
   40      H      -1.0107551395    -1.5745209430    -0.6495824499
   41      H      -1.7210242952     3.6212086917    -0.5748964300
   42      H      -4.8808837368     0.0662264728    -1.3894579016
   43      H      -5.2302200530    -2.3752241315    -2.0258298476
   44      H      -3.7298331732    -1.9843131218    -2.9248233440
   45      H      -3.9964746965    -3.8387886830    -0.6044783471
   46      H      -2.4616976064    -3.3936578412    -1.4136175529
   47      H      -2.9074711259    -2.4939633689     1.2268122060
   48      H      -0.7932831873     3.7898669613    -2.1216002945
   49      H       0.0610093162     3.1911965888    -0.6288017191
   50      H       1.7080016210    -3.7004950837     1.5260552525
   51      H       0.8467360256    -3.6529421240    -0.0657492616
   52      H       0.3323713753    -2.5278264118     1.2742948695
   53      H       1.6457295744     0.1335372408     4.0496717487
   54      H       1.6704542978    -1.4823906520     3.2606533306
   55      H      -0.6744514449    -0.9562340061     4.0893637358
   56      H      -0.6684477099     0.5997839862     3.1359694286
 ----------------------------------------------------------------

    9   -1510.3048806748      5.60E-09 Convergence criterion met
 Total energy in the final basis set = -1510.30488067
 Final energy is   -1510.30488067483
 **  OPTIMIZATION CONVERGED  **

                    Orbital Energies (a.u.)
 --------------------------------------------------------------

 Alpha MOs
 -- Occupied --
-18.948 -18.941 -18.928 -18.909 -18.894 -18.889 -18.887 -18.879
-18.870 -18.854 -10.112 -10.103 -10.099 -10.083 -10.075 -10.074
-10.064 -10.058 -10.056 -10.054 -10.050 -10.043 -10.040 -10.031
-10.024 -10.023 -10.023 -10.021 -10.015 -10.013  -1.025  -1.018
 -1.006  -0.989  -0.974  -0.963  -0.947  -0.944  -0.932  -0.916
 -0.766  -0.755  -0.730  -0.721  -0.711  -0.704  -0.693  -0.664
 -0.641  -0.616  -0.598  -0.574  -0.547  -0.540  -0.538  -0.530
 -0.518  -0.506  -0.492  -0.479  -0.470  -0.452  -0.448  -0.443
 -0.435  -0.426  -0.420  -0.416  -0.412  -0.409  -0.406  -0.395
 -0.390  -0.383  -0.373  -0.369  -0.359  -0.353  -0.351  -0.347
 -0.341  -0.339  -0.333  -0.328  -0.327  -0.323  -0.319  -0.314
 -0.309  -0.307  -0.306  -0.297  -0.294  -0.285  -0.280  -0.270
 -0.266  -0.256  -0.251  -0.250  -0.239  -0.228  -0.227  -0.190
 -0.176  -0.174  -0.166  -0.160  -0.156  -0.149  -0.145  -0.138
 -0.137

          Ground-State Mulliken Net Atomic Charges

     Atom                 Charge (a.u.)
  ----------------------------------------
      1 O                    -0.218601
      2 C                     0.217252
      3 C                    -0.081731
      4 C                    -0.091614
      5 C                     0.219437
      6 O                    -0.177892
      7 C                    -0.053615
      8 C                    -0.048257
      9 O                    -0.174917
     10 C                     0.215973
     11 C                    -0.078602
     12 C                    -0.079107
     13 C                     0.219912
     14 O                    -0.218140
     15 O                    -0.181170
     16 O                    -0.166111
     17 O                    -0.217566
     18 C                    -0.143943
     19 C                     0.026530
     20 C                    -0.145148
     21 C                    -0.143859
     22 C                     0.020491
     23 O                    -0.184358
     24 H                     0.085262
     25 H                     0.086342
     26 H                     0.083699
     27 H                     0.078130
     28 H                     0.074120
     29 H                     0.078738
     30 H                     0.073597
     31 H                     0.105871
     32 O                    -0.196101
     33 C                    -0.144551
     34 C                     0.023889
     35 C                    -0.143013
     36 C                    -0.144265
     37 C                     0.022727
     38 O                    -0.191836
     39 H                     0.084768
     40 H                     0.110280
     41 H                     0.096721
     42 H                     0.087154
     43 H                     0.076153
     44 H                     0.073200
     45 H                     0.075711
     46 H                     0.074382
     47 H                     0.082561
     48 H                     0.072020
     49 H                     0.103521
     50 H                     0.088187
     51 H                     0.087214
     52 H                     0.107959
     53 H                     0.085993
     54 H                     0.090599
     55 H                     0.088048
     56 H                     0.107953
  ----------------------------------------
  Sum of atomic charges =    -0.000000

                    Cartesian Multipole Moments
 -----------------------------------------------------------------
    Charge (ESU x 10^10)
                -0.0000
    Dipole Moment (Debye)
         X       2.6152      Y      -1.4510      Z      -0.8737
       Tot       3.1158
    Quadrupole Moments (Debye-Ang)
        XX    -169.4663     XY      12.0118     YY    -154.9236
        XZ      -2.7675     YZ      -1.9293     ZZ    -151.6597

 Total job time:  176.28s(wall), 8408.12s(cpu)
        *  Thank you very much for using Q-Chem.  Have a nice day.  *
