 Q-Chem 5.0, Q-Chem, Inc., Pleasanton, CA (2017)
 Q-Chem 5.0.1 for Intel X86 EM64T Linux

User input:
--------------------------------------------------------------
$molecule
0  1
O -3.94934 -3.66094 2.70899
C -3.26408 -4.56952 2.26188
C -3.36658 -6.02376 2.66595
C -3.03196 -6.37274 4.12543
C -2.80473 -5.20724 5.06248
O -3.99852 -4.78146 5.57141
C -3.89514 -4.28563 6.91033
C -3.99658 -5.43628 7.90625
O -2.78302 -5.53228 8.66844
C -2.81503 -6.40175 9.70869
C -1.50147 -6.48142 10.44955
C -0.40973 -7.30024 9.74534
C -0.65555 -7.60883 8.2821
O 0.09667 -8.24133 7.55501
O -2.36275 -4.28415 1.2851
O -1.9481 -7.82897 7.91629
O -3.84111 -6.92145 10.13065
C -2.37921 -8.71424 6.94472
C -0.78412 -5.13294 10.6396
C 0.17383 -5.22146 11.82678
C 1.24929 -6.12524 11.25663
C 0.74462 -6.28355 9.81777
O 0.1003 -5.06007 9.54805
H -1.72686 -6.92456 11.44674
H -0.18992 -8.26386 10.25568
H -1.48488 -4.2789 10.76604
H 0.6056 -4.20566 11.97494
H -0.28105 -5.56838 12.77948
H 2.21524 -5.57316 11.27305
H 1.36289 -7.1084 11.76271
H 1.58575 -6.54991 9.13999
O -1.71839 -4.99694 5.58956
C -2.14715 -3.02294 0.77028
C -4.79117 -6.57971 2.52414
C -4.74023 -8.09566 2.34173
C -4.33141 -8.53067 3.73255
C -4.31874 -7.17805 4.45377
O -5.33428 -6.44614 3.81041
H -2.6904 -6.58282 1.97825
H -2.12163 -7.00834 4.17849
H -1.80793 -2.33448 1.5736
H -5.36425 -6.10806 1.69581
H -5.78109 -8.443 2.15172
H -4.07957 -8.44876 1.52086
H -5.13692 -9.17776 4.14627
H -3.35271 -9.05222 3.80228
H -4.46956 -7.33548 5.53017
H -3.08012 -2.63289 0.30996
H -1.3602 -3.07792 -0.00958
H -3.48449 -8.72562 6.92655
H -2.04378 -9.74305 7.19565
H -1.97576 -8.43046 5.95425
H -4.80416 -5.15339 8.62186
H -4.303 -6.3976 7.45812
H -4.819 -3.68103 7.04364
H -3.06988 -3.56052 7.09385
$end

$opt
CONSTRAINT
tors           1           2           3           4     -63.742
tors           3           4           5           6     +85.999
tors           4           5           6           7    +146.793
tors           5           6           7           8     -85.394
tors           6           7           8           9    +118.180
tors           7           8           9          10    +171.570
tors           8           9          10          11    +178.645
tors           9          10          11          12     -76.787
tors          11          12          13          14    +179.747
ENDCONSTRAINT
$end

$rem
JOBTYPE                   OPT
METHOD                    B3LYP
DFT_D                     d3_op
BASIS                     STO-3G
GEOM_OPT_MAX_CYCLES       100
GEOM_OPT_TOL_GRADIENT     300
GEOM_OPT_TOL_DISPLACEMENT 1200
GEOM_OPT_TOL_ENERGY       100
SYMMETRY                  False
THRESH                    12
SCF_CONVERGENCE           8
MAX_SUB_FILE_NUM          128
MEM_STATIC                400
MEM_TOTAL                 4000
$end
--------------------------------------------------------------

   15   -1510.1160450054      6.51E-09 Convergence criterion met
 Total energy in the final basis set = -1510.11604501
   14   -1510.1900497672      6.75E-09 Convergence criterion met
 Total energy in the final basis set = -1510.19004977
   14   -1510.2294134316      8.54E-09 Convergence criterion met
 Total energy in the final basis set = -1510.22941343
   14   -1510.2486655034      9.16E-09 Convergence criterion met
 Total energy in the final basis set = -1510.24866550
   14   -1510.2595412115      3.42E-09 Convergence criterion met
 Total energy in the final basis set = -1510.25954121
   14   -1510.2648833598      2.96E-09 Convergence criterion met
 Total energy in the final basis set = -1510.26488336
   12   -1510.2681373523      9.07E-09 Convergence criterion met
 Total energy in the final basis set = -1510.26813735
   12   -1510.2699507616      8.79E-09 Convergence criterion met
    9   -1510.2719441788      5.53E-09 Convergence criterion met
 Total energy in the final basis set = -1510.27194418
    9   -1510.2719459362      5.70E-09 Convergence criterion met
 Total energy in the final basis set = -1510.27194594
    9   -1510.2719471471      6.82E-09 Convergence criterion met
 Total energy in the final basis set = -1510.27194715
    9   -1510.2719492303      7.10E-09 Convergence criterion met
 Total energy in the final basis set = -1510.27194923
    9   -1510.2719516735      5.11E-09 Convergence criterion met
 Total energy in the final basis set = -1510.27195167
    9   -1510.2719537234      5.25E-09 Convergence criterion met
 Total energy in the final basis set = -1510.27195372

             Standard Nuclear Orientation (Angstroms)
    I     Atom           X                Y                Z
 ----------------------------------------------------------------
    1      O      -4.1927655644     1.7458805775     1.0952196363
    2      C      -4.2412378921     1.4145562745    -0.1088302209
    3      C      -3.8864852954     0.0273835902    -0.7446364872
    4      C      -2.3552676908    -0.3716369967    -0.5714278038
    5      C      -1.4911806435     0.6914541380     0.2024239001
    6      O      -1.5809996975     0.4762407926     1.6230741476
    7      C      -0.2999306935     0.8399598859     2.2706725817
    8      C       0.7182554214    -0.3642268989     2.2371512778
    9      O       1.8850573596     0.0925743720     1.4492831348
   10      C       2.9498523069    -0.8633833394     1.5258264460
   11      C       4.1446247588    -0.3446557239     0.6457929512
   12      C       3.9890549184    -0.5139025177    -0.9249915323
   13      C       2.7646873956    -1.3086625710    -1.5006551777
   14      O       2.5409277610    -1.4991854368    -2.7164908210
   15      O      -4.6523896014     2.2923376102    -1.1654639215
   16      O       1.9518252226    -1.8580572350    -0.4615590108
   17      O       2.9398735426    -1.8752409728     2.2598330629
   18      C       0.8235937770    -2.6205873152    -1.0404638165
   19      C       4.2858476739     1.2358086717     0.7476424512
   20      C       5.6982082722     1.6639547817     0.1796751724
   21      C       5.4557148502     1.5441407752    -1.3705743878
   22      C       3.9711366697     1.0093594754    -1.3985615170
   23      O       3.3310516497     1.7243693895    -0.2738816596
   24      H       5.0540576881    -0.8639589228     0.9961421777
   25      H       4.8878314489    -1.0131551636    -1.3328425922
   26      H       4.0345692970     1.6522305772     1.7418330234
   27      H       5.9341228123     2.6989400802     0.4736293509
   28      H       6.5041510339     1.0031324908     0.5369087798
   29      H       5.5167471964     2.5266899690    -1.8652765101
   30      H       6.1594983570     0.8553458199    -1.8642636827
   31      H       3.4192122602     1.1846812797    -2.3427516677
   32      O      -0.7687081145     1.5618385942    -0.3307417856
   33      C      -4.9781046387     3.6287135627    -0.6155385532
   34      C      -4.5951221686    -1.1811408023     0.0075658817
   35      C      -4.5206265397    -2.4531694896    -0.9265572986
   36      C      -3.0040699430    -2.8474750308    -0.7804107342
   37      C      -2.4958994615    -1.7370502250     0.2224332555
   38      O      -3.6593683609    -1.5041166002     1.1068987729
   39      H      -4.1660254733     0.0624602494    -1.8122027987
   40      H      -1.8818755185    -0.5084655313    -1.5600990466
   41      H      -4.0964144608     4.0948604023    -0.1299888101
   42      H      -5.5993621904    -0.9469687553     0.4106184099
   43      H      -5.1826626350    -3.2473116184    -0.5461332886
   44      H      -4.8035484990    -2.2248363046    -1.9664770879
   45      H      -2.8868738694    -3.8492866750    -0.3375473128
   46      H      -2.4636303491    -2.8210119361    -1.7402696497
   47      H      -1.6086808591    -2.0116276923     0.8226414033
   48      H      -5.8010018089     3.5763292450     0.1264221436
   49      H      -5.2944623873     4.2448339380    -1.4771649418
   50      H       0.3153227257    -3.1079454720    -0.1885203070
   51      H       1.1750665291    -3.3909931711    -1.7563905518
   52      H       0.1112336886    -1.9508365165    -1.5638974953
   53      H       1.0282515387    -0.6596940319     3.2627928816
   54      H       0.2450678392    -1.2510889623     1.7602940285
   55      H      -0.5496820537     1.1096589009     3.3158770785
   56      H       0.1649330603     1.7130669840     1.7617251403
 ----------------------------------------------------------------

    9   -1510.2719545628      3.26E-09 Convergence criterion met
 Total energy in the final basis set = -1510.27195456
 Final energy is   -1510.27195456275
 **  OPTIMIZATION CONVERGED  **

                    Orbital Energies (a.u.)
 --------------------------------------------------------------

 Alpha MOs
 -- Occupied --
-18.945 -18.932 -18.924 -18.923 -18.890 -18.887 -18.879 -18.876
-18.873 -18.863 -10.105 -10.097 -10.096 -10.095 -10.073 -10.067
-10.066 -10.062 -10.062 -10.062 -10.059 -10.058 -10.040 -10.039
-10.037 -10.035 -10.023 -10.022 -10.020 -10.018  -1.019  -1.010
 -1.006  -1.001  -0.971  -0.969  -0.941  -0.935  -0.933  -0.927
 -0.764  -0.762  -0.726  -0.723  -0.712  -0.706  -0.692  -0.669
 -0.662  -0.612  -0.598  -0.579  -0.548  -0.544  -0.540  -0.536
 -0.516  -0.511  -0.491  -0.477  -0.467  -0.460  -0.445  -0.437
 -0.434  -0.433  -0.423  -0.418  -0.411  -0.410  -0.409  -0.404
 -0.395  -0.383  -0.372  -0.368  -0.361  -0.355  -0.349  -0.346
 -0.343  -0.338  -0.335  -0.332  -0.330  -0.327  -0.325  -0.314
 -0.309  -0.308  -0.306  -0.300  -0.296  -0.293  -0.279  -0.277
 -0.277  -0.253  -0.247  -0.244  -0.241  -0.235  -0.233  -0.185
 -0.176  -0.168  -0.166  -0.158  -0.155  -0.147  -0.145  -0.144
 -0.142

          Ground-State Mulliken Net Atomic Charges

     Atom                 Charge (a.u.)
  ----------------------------------------
      1 O                    -0.206453
      2 C                     0.204387
      3 C                    -0.078997
      4 C                    -0.079145
      5 C                     0.207979
      6 O                    -0.168769
      7 C                    -0.051729
      8 C                    -0.048825
      9 O                    -0.170976
     10 C                     0.217089
     11 C                    -0.080336
     12 C                    -0.078959
     13 C                     0.211727
     14 O                    -0.215585
     15 O                    -0.169574
     16 O                    -0.166622
     17 O                    -0.220791
     18 C                    -0.126145
     19 C                     0.026883
     20 C                    -0.144983
     21 C                    -0.143198
     22 C                     0.026207
     23 O                    -0.183649
     24 H                     0.083324
     25 H                     0.085738
     26 H                     0.083991
     27 H                     0.077889
     28 H                     0.073152
     29 H                     0.078518
     30 H                     0.073509
     31 H                     0.087525
     32 O                    -0.201970
     33 C                    -0.129076
     34 C                     0.026340
     35 C                    -0.143553
     36 C                    -0.145234
     37 C                     0.026914
     38 O                    -0.182153
     39 H                     0.086602
     40 H                     0.083149
     41 H                     0.090638
     42 H                     0.084571
     43 H                     0.078577
     44 H                     0.074432
     45 H                     0.077385
     46 H                     0.072060
     47 H                     0.080091
     48 H                     0.088541
     49 H                     0.090214
     50 H                     0.091004
     51 H                     0.093735
     52 H                     0.087552
     53 H                     0.089068
     54 H                     0.081855
     55 H                     0.090624
     56 H                     0.105449
  ----------------------------------------
  Sum of atomic charges =     0.000000

                    Cartesian Multipole Moments
 -----------------------------------------------------------------
    Charge (ESU x 10^10)
                -0.0000
    Dipole Moment (Debye)
         X       0.3029      Y      -0.5600      Z      -1.3015
       Tot       1.4489
    Quadrupole Moments (Debye-Ang)
        XX    -142.3224     XY       3.3305     YY    -156.3381
        XZ       7.7073     YZ       4.9411     ZZ    -165.9632

 Total job time:  67.90s(wall), 3233.76s(cpu)
        *  Thank you very much for using Q-Chem.  Have a nice day.  *
