 Q-Chem 5.0, Q-Chem, Inc., Pleasanton, CA (2017)
 Q-Chem 5.0.1 for Intel X86 EM64T Linux

User input:
--------------------------------------------------------------
$molecule
0  1
O -3.94934 -3.66094 2.70899
C -3.26408 -4.56952 2.26188
C -3.36658 -6.02376 2.66595
C -3.3109 -6.34088 4.16934
C -3.33778 -5.1565 5.10988
O -4.61884 -4.91781 5.51894
C -4.71571 -3.85986 6.47843
C -4.73011 -4.43207 7.89212
O -3.96291 -3.59139 8.76821
C -3.98129 -3.94316 10.07781
C -3.02463 -3.13158 10.91852
C -1.57067 -3.62558 10.90371
C -1.21706 -4.60596 9.80347
O -0.08481 -4.95425 9.5014
O -2.29485 -4.26956 1.35746
O -2.15995 -5.49051 9.37555
O -4.8322 -4.67442 10.56918
C -1.9165 -6.57734 8.55082
C -2.85378 -1.6691 10.46942
C -2.3532 -0.82332 11.63922
C -0.92939 -1.32599 11.76146
C -0.87269 -2.28945 10.57066
O -1.73365 -1.70555 9.62163
H -3.42518 -3.15225 11.95789
H -1.22209 -4.05661 11.86777
H -3.78265 -1.23074 10.04326
H -2.32789 0.23506 11.2937
H -2.96198 -0.89229 12.56633
H -0.24039 -0.46757 11.59793
H -0.68362 -1.8349 12.71859
H 0.18185 -2.43006 10.2453
O -2.37079 -4.42748 5.29684
C -2.04461 -3.0007 0.87836
C -4.73399 -6.62681 2.28876
C -4.60595 -8.1402 2.12783
C -4.41595 -8.559 3.56967
C -4.59379 -7.20818 4.27424
O -5.5048 -6.51546 3.45731
H -2.57506 -6.57197 2.10517
H -2.43018 -6.95365 4.46307
H -1.76404 -2.32419 1.71381
H -5.17166 -6.17916 1.3693
H -5.59418 -8.51487 1.7763
H -3.81516 -8.48169 1.42575
H -5.23894 -9.25629 3.84298
H -3.4325 -9.01971 3.80606
H -4.90547 -7.37403 5.3294
H -2.94318 -2.60408 0.35897
H -1.20432 -3.04387 0.1555
H -2.85513 -7.14555 8.39308
H -1.1802 -7.26174 9.02362
H -1.53207 -6.23188 7.56729
H -5.78398 -4.57376 8.22049
H -4.247 -5.4253 7.87593
H -5.61178 -3.23052 6.29407
H -3.87586 -3.13356 6.3964
$end

$opt
CONSTRAINT
tors           1           2           3           4     -51.815
tors           3           4           5           6     +94.864
tors           4           5           6           7    +176.382
tors           5           6           7           8     -95.674
tors           6           7           8           9    +141.203
tors           7           8           9          10    +175.356
tors           8           9          10          11    +172.820
tors           9          10          11          12     -82.921
tors          11          12          13          14    +168.345
ENDCONSTRAINT
$end

$rem
JOBTYPE                   OPT
METHOD                    B3LYP
DFT_D                     d3_op
BASIS                     STO-3G
GEOM_OPT_MAX_CYCLES       100
GEOM_OPT_TOL_GRADIENT     300
GEOM_OPT_TOL_DISPLACEMENT 1200
GEOM_OPT_TOL_ENERGY       100
SYMMETRY                  False
THRESH                    12
SCF_CONVERGENCE           8
MAX_SUB_FILE_NUM          128
MEM_STATIC                400
MEM_TOTAL                 4000
$end
--------------------------------------------------------------

   15   -1510.1416848523      6.51E-09 Convergence criterion met
 Total energy in the final basis set = -1510.14168485
   14   -1510.2133310940      8.26E-09 Convergence criterion met
 Total energy in the final basis set = -1510.21333109
   14   -1510.2520390311      9.56E-09 Convergence criterion met
 Total energy in the final basis set = -1510.25203903
   14   -1510.2689805036      6.94E-09 Convergence criterion met
 Total energy in the final basis set = -1510.26898050
   14   -1510.2734749068      7.42E-09 Convergence criterion met
 Total energy in the final basis set = -1510.27347491
   13   -1510.2770507319      8.61E-09 Convergence criterion met
 Total energy in the final basis set = -1510.27705073
   13   -1510.2778591340      5.87E-09 Convergence criterion met
 Total energy in the final basis set = -1510.27785913
   12   -1510.2782389253      7.94E-09 Convergence criterion met
   11   -1510.2794279841      7.81E-09 Convergence criterion met
 Total energy in the final basis set = -1510.27942798
   11   -1510.2794453405      2.84E-09 Convergence criterion met
 Total energy in the final basis set = -1510.27944534
   11   -1510.2794639890      3.38E-09 Convergence criterion met
 Total energy in the final basis set = -1510.27946399
    9   -1510.2794782168      6.83E-09 Convergence criterion met
 Total energy in the final basis set = -1510.27947822
   10   -1510.2794886060      9.15E-09 Convergence criterion met
 Total energy in the final basis set = -1510.27948861
    9   -1510.2794922346      8.06E-09 Convergence criterion met
 Total energy in the final basis set = -1510.27949223

             Standard Nuclear Orientation (Angstroms)
    I     Atom           X                Y                Z
 ----------------------------------------------------------------
    1      O      -3.3919164597     1.8774118524     1.1100197753
    2      C      -3.9990221074     1.6372716248     0.0431922536
    3      C      -4.3520063461     0.2382599669    -0.5639545106
    4      C      -3.0964912347    -0.7319258073    -0.6703112916
    5      C      -1.7891707928    -0.0945535986    -0.0776224813
    6      O      -1.6147514210    -0.4998365794     1.2792537347
    7      C      -0.3351893419     0.0310244644     1.8132599683
    8      C       0.7994897193    -1.0483741184     1.6875126601
    9      O       2.0241711334    -0.3060198677     1.3040463340
   10      C       3.1450657218    -1.1969843353     1.2699049382
   11      C       4.3922636868    -0.4445333645     0.6882430332
   12      C       4.5192510426    -0.3520520757    -0.8928365949
   13      C       3.2939259169    -0.7588646707    -1.7931386905
   14      O       3.2199117401    -0.5255736903    -3.0209630875
   15      O      -4.5147902358     2.6470182283    -0.8309775214
   16      O       2.2846904884    -1.4430369618    -1.0536379122
   17      O       3.1181026725    -2.3774573622     1.6816488767
   18      C       1.0503979738    -1.5838450812    -1.8639838261
   19      C       4.4418606267     1.0976883050     1.0842980891
   20      C       5.9482443996     1.5663914786     1.0256513267
   21      C       6.1904850923     1.5896700128    -0.5291364614
   22      C       4.7550280984     1.2112230935    -1.0705288268
   23      O       3.8289786290     1.7905415796    -0.0713010103
   24      H       5.2786609646    -0.9719504559     1.0842166492
   25      H       5.3933989458    -0.9304799845    -1.2449906699
   26      H       3.9010690381     1.3487355449     2.0168147121
   27      H       6.0539180721     2.5717131658     1.4638998979
   28      H       6.6239517990     0.8759910371     1.5550888071
   29      H       6.4847702011     2.5914973957    -0.8801386606
   30      H       6.9547353134     0.8639822319    -0.8508097308
   31      H       4.5181199849     1.5804341924    -2.0875904116
   32      O      -0.9643615036     0.6007713586    -0.7175115353
   33      C      -4.2011714840     3.9914422941    -0.2923815092
   34      C      -5.3136890234    -0.6192889271     0.3709805227
   35      C      -5.9497748237    -1.7607342202    -0.5159155776
   36      C      -4.7177329746    -2.7242511824    -0.6925608074
   37      C      -3.6165979537    -1.9779743008     0.1613707555
   38      O      -4.3868738060    -1.3514293216     1.2609387934
   39      H      -4.8086708672     0.4070095709    -1.5549114054
   40      H      -2.8905590618    -0.9876632309    -1.7251095444
   41      H      -3.1075587401     4.1400597124    -0.1828828642
   42      H      -6.0333639659    -0.0233867584     0.9650845359
   43      H      -6.7732042659    -2.2539662540     0.0251272719
   44      H      -6.3347745752    -1.3788362988    -1.4749799389
   45      H      -4.9203671997    -3.7218447852    -0.2718877678
   46      H      -4.4167336749    -2.8396998379    -1.7460764478
   47      H      -2.8153916425    -2.6229076736     0.5698205864
   48      H      -4.6796836672     4.1568500718     0.6945213313
   49      H      -4.6027556754     4.7152452542    -1.0251048883
   50      H       0.6122366325    -2.5733211408    -1.6346704296
   51      H       1.2962587259    -1.5082136210    -2.9416635719
   52      H       0.3346885252    -0.7774683422    -1.5843666995
   53      H       0.9474816787    -1.6036278755     2.6383997101
   54      H       0.5339889034    -1.7863936309     0.8994842235
   55      H      -0.5219848628     0.3033903951     2.8703156458
   56      H      -0.0322834796     0.9282615930     1.2314594691
 ----------------------------------------------------------------

    9   -1510.2794929704      2.80E-09 Convergence criterion met
 Total energy in the final basis set = -1510.27949297
 Final energy is   -1510.27949297039
 **  OPTIMIZATION CONVERGED  **

                    Orbital Energies (a.u.)
 --------------------------------------------------------------

 Alpha MOs
 -- Occupied --
-18.938 -18.937 -18.935 -18.923 -18.891 -18.884 -18.876 -18.875
-18.869 -18.862 -10.103 -10.100 -10.098 -10.094 -10.067 -10.066
-10.065 -10.063 -10.062 -10.056 -10.056 -10.052 -10.041 -10.039
-10.037 -10.032 -10.023 -10.022 -10.018 -10.017  -1.016  -1.012
 -1.010  -1.000  -0.972  -0.967  -0.939  -0.937  -0.933  -0.927
 -0.766  -0.759  -0.727  -0.721  -0.713  -0.705  -0.691  -0.665
 -0.657  -0.613  -0.597  -0.578  -0.549  -0.540  -0.540  -0.534
 -0.516  -0.511  -0.488  -0.474  -0.466  -0.458  -0.449  -0.439
 -0.435  -0.432  -0.422  -0.414  -0.411  -0.409  -0.406  -0.403
 -0.394  -0.380  -0.375  -0.369  -0.359  -0.352  -0.350  -0.349
 -0.343  -0.340  -0.333  -0.330  -0.327  -0.325  -0.322  -0.311
 -0.310  -0.306  -0.304  -0.301  -0.294  -0.285  -0.282  -0.279
 -0.273  -0.257  -0.248  -0.245  -0.237  -0.236  -0.231  -0.181
 -0.179  -0.173  -0.161  -0.159  -0.154  -0.151  -0.146  -0.144
 -0.139

          Ground-State Mulliken Net Atomic Charges

     Atom                 Charge (a.u.)
  ----------------------------------------
      1 O                    -0.211019
      2 C                     0.206233
      3 C                    -0.079637
      4 C                    -0.078922
      5 C                     0.211871
      6 O                    -0.161379
      7 C                    -0.051754
      8 C                    -0.047419
      9 O                    -0.170342
     10 C                     0.216914
     11 C                    -0.081473
     12 C                    -0.076953
     13 C                     0.213798
     14 O                    -0.217819
     15 O                    -0.168278
     16 O                    -0.169568
     17 O                    -0.219470
     18 C                    -0.140760
     19 C                     0.025914
     20 C                    -0.143641
     21 C                    -0.144689
     22 C                     0.024969
     23 O                    -0.188304
     24 H                     0.082442
     25 H                     0.085347
     26 H                     0.085185
     27 H                     0.077246
     28 H                     0.073087
     29 H                     0.077958
     30 H                     0.073270
     31 H                     0.088424
     32 O                    -0.219519
     33 C                    -0.128980
     34 C                     0.026161
     35 C                    -0.143133
     36 C                    -0.144716
     37 C                     0.026388
     38 O                    -0.183434
     39 H                     0.087052
     40 H                     0.084840
     41 H                     0.092096
     42 H                     0.083935
     43 H                     0.078626
     44 H                     0.074370
     45 H                     0.078564
     46 H                     0.073368
     47 H                     0.086929
     48 H                     0.088872
     49 H                     0.091147
     50 H                     0.081964
     51 H                     0.099613
     52 H                     0.097575
     53 H                     0.088734
     54 H                     0.086472
     55 H                     0.092980
     56 H                     0.108864
  ----------------------------------------
  Sum of atomic charges =     0.000000

                    Cartesian Multipole Moments
 -----------------------------------------------------------------
    Charge (ESU x 10^10)
                 0.0000
    Dipole Moment (Debye)
         X      -1.1608      Y       0.1036      Z      -0.5929
       Tot       1.3075
    Quadrupole Moments (Debye-Ang)
        XX    -137.8359     XY       2.9176     YY    -157.0418
        XZ       9.4859     YZ       5.8420     ZZ    -165.4092

 Total job time:  66.41s(wall), 3161.53s(cpu)
        *  Thank you very much for using Q-Chem.  Have a nice day.  *
