 Q-Chem 5.0, Q-Chem, Inc., Pleasanton, CA (2017)
 Q-Chem 5.0.1 for Intel X86 EM64T Linux

User input:
--------------------------------------------------------------
$molecule
0  1
O -3.3919164597 1.8774118524 1.1100197753
C -3.9990221074 1.6372716248 0.0431922536
C -4.3520063461 0.2382599669 -0.5639545106
C -3.0964912347 -0.7319258073 -0.6703112916
C -1.7891707928 -0.0945535986 -0.0776224813
O -1.614751421 -0.4998365794 1.2792537347
C -0.3351893419 0.0310244644 1.8132599683
C 0.7994897193 -1.0483741184 1.6875126601
O 2.0241711334 -0.3060198677 1.304046334
C 3.1450657218 -1.1969843353 1.2699049382
C 4.3922636868 -0.4445333645 0.6882430332
C 4.5192510426 -0.3520520757 -0.8928365949
C 3.2939259169 -0.7588646707 -1.7931386905
O 3.2199117401 -0.5255736903 -3.0209630875
O -4.5147902358 2.6470182283 -0.8309775214
O 2.2846904884 -1.4430369618 -1.0536379122
O 3.1181026725 -2.3774573622 1.6816488767
C 1.0503979738 -1.5838450812 -1.8639838261
C 4.4418606267 1.097688305 1.0842980891
C 5.9482443996 1.5663914786 1.0256513267
C 6.1904850923 1.5896700128 -0.5291364614
C 4.7550280984 1.2112230935 -1.0705288268
O 3.828978629 1.7905415796 -0.0713010103
H 5.2786609646 -0.9719504559 1.0842166492
H 5.3933989458 -0.9304799845 -1.2449906699
H 3.9010690381 1.3487355449 2.0168147121
H 6.0539180721 2.5717131658 1.4638998979
H 6.623951799 0.8759910371 1.5550888071
H 6.4847702011 2.5914973957 -0.8801386606
H 6.9547353134 0.8639822319 -0.8508097308
H 4.5181199849 1.5804341924 -2.0875904116
O -0.9643615036 0.6007713586 -0.7175115353
C -4.201171484 3.9914422941 -0.2923815092
C -5.3136890234 -0.6192889271 0.3709805227
C -5.9497748237 -1.7607342202 -0.5159155776
C -4.7177329746 -2.7242511824 -0.6925608074
C -3.6165979537 -1.9779743008 0.1613707555
O -4.386873806 -1.3514293216 1.2609387934
H -4.8086708672 0.4070095709 -1.5549114054
H -2.8905590618 -0.9876632309 -1.7251095444
H -3.1075587401 4.1400597124 -0.1828828642
H -6.0333639659 -0.0233867584 0.9650845359
H -6.7732042659 -2.253966254 0.0251272719
H -6.3347745752 -1.3788362988 -1.4749799389
H -4.9203671997 -3.7218447852 -0.2718877678
H -4.4167336749 -2.8396998379 -1.7460764478
H -2.8153916425 -2.6229076736 0.5698205864
H -4.6796836672 4.1568500718 0.6945213313
H -4.6027556754 4.7152452542 -1.0251048883
H 0.6122366325 -2.5733211408 -1.6346704296
H 1.2962587259 -1.508213621 -2.9416635719
H 0.3346885252 -0.7774683422 -1.5843666995
H 0.9474816787 -1.6036278755 2.6383997101
H 0.5339889034 -1.7863936309 0.8994842235
H -0.5219848628 0.3033903951 2.8703156458
H -0.0322834796 0.928261593 1.2314594691
$end

$rem
JOBTYPE                   OPT
METHOD                    B3LYP
DFT_D                     d3_op
BASIS                     STO-3G
GEOM_OPT_MAX_CYCLES       100
GEOM_OPT_TOL_GRADIENT     300
GEOM_OPT_TOL_DISPLACEMENT 1200
GEOM_OPT_TOL_ENERGY       100
SYMMETRY                  False
THRESH                    12
SCF_CONVERGENCE           8
MAX_SUB_FILE_NUM          128
MEM_STATIC                400
MEM_TOTAL                 4000
$end
--------------------------------------------------------------

   16   -1510.2794765887      5.61E-09 Convergence criterion met
 Total energy in the final basis set = -1510.27947659
   15   -1510.2731538594      5.52E-09 Convergence criterion met
 Total energy in the final basis set = -1510.27315386
   14   -1510.2797115903      7.10E-09 Convergence criterion met
 Total energy in the final basis set = -1510.27971159
   15   -1510.2816877758      2.85E-09 Convergence criterion met
 Total energy in the final basis set = -1510.28168778
   14   -1510.2833058827      1.95E-09 Convergence criterion met
 Total energy in the final basis set = -1510.28330588
   13   -1510.2842759882      8.21E-09 Convergence criterion met
 Total energy in the final basis set = -1510.28427599
   13   -1510.2852784447      5.14E-09 Convergence criterion met
 Total energy in the final basis set = -1510.28527844
   13   -1510.2863064033      3.84E-09 Convergence criterion met
   11   -1510.2938322548      5.71E-09 Convergence criterion met
 Total energy in the final basis set = -1510.29383225
   12   -1510.2937850956      5.17E-09 Convergence criterion met
 Total energy in the final basis set = -1510.29378510
    9   -1510.2937892722      7.87E-09 Convergence criterion met
 Total energy in the final basis set = -1510.29378927
   11   -1510.2937717182      6.78E-09 Convergence criterion met
 Total energy in the final basis set = -1510.29377172
    9   -1510.2937832017      9.32E-09 Convergence criterion met
 Total energy in the final basis set = -1510.29378320
    9   -1510.2937720910      9.06E-09 Convergence criterion met
 Total energy in the final basis set = -1510.29377209

             Standard Nuclear Orientation (Angstroms)
    I     Atom           X                Y                Z
 ----------------------------------------------------------------
    1      O      -2.0331822737     0.9534123402    -1.1567362496
    2      C      -3.2839192333     0.9387568229    -1.2288807936
    3      C      -4.2374512330    -0.2474381393    -0.8598340006
    4      C      -3.4652972395    -1.4956499059    -0.2610217735
    5      C      -1.9064959348    -1.2851020599    -0.1762853235
    6      O      -1.5947098151    -0.6347437546     1.0571761866
    7      C      -0.1851931055    -0.1765003388     1.0983272018
    8      C       0.8694049838    -1.3422290447     1.1450494456
    9      O       2.1839247612    -0.6686386644     1.0310024950
   10      C       3.1549914795    -1.5081199101     0.3956144673
   11      C       4.4306136203    -0.6306525870     0.1631873973
   12      C       4.1047890270     0.7242508183    -0.5988615680
   13      C       2.5989301823     0.8640897097    -1.0323737199
   14      O       1.7955175030     1.7710249093    -0.7211916051
   15      O      -4.0678519409     2.0398894904    -1.6828274860
   16      O       2.3084482129    -0.2146481245    -1.9233949855
   17      O       2.9738989890    -2.7076245480     0.0990234412
   18      C       0.9223223262    -0.1188388201    -2.4477234426
   19      C       5.0083686430    -0.0555062436     1.5303013673
   20      C       6.4441108432     0.5468964624     1.2519412574
   21      C       6.0757915853     1.8988806387     0.5344100469
   22      C       4.5014569080     1.7986996079     0.4937062588
   23      O       4.1687694938     1.1371483996     1.7770330770
   24      H       5.1753478736    -1.2390314739    -0.3786333209
   25      H       4.7313597167     0.8168443897    -1.5048305882
   26      H       4.9491908717    -0.7564825436     2.3855554193
   27      H       6.9773796720     0.7229531226     2.1997123752
   28      H       7.0561775534    -0.1166172984     0.6201671435
   29      H       6.3919322775     2.7701494611     1.1298806631
   30      H       6.5143587878     1.9811155328    -0.4729737740
   31      H       3.9532012655     2.7562720826     0.4002172619
   32      O      -1.0743669345    -1.7371323919    -1.0001510929
   33      C      -3.1854398213     3.1786079253    -2.0340135700
   34      C      -5.2097933857     0.1171475287     0.3438644221
   35      C      -6.3683466835    -0.9557059883     0.3810964731
   36      C      -5.6083241740    -2.1997726193     0.9740577574
   37      C      -4.1548369100    -1.6099320356     1.1649144067
   38      O      -4.4029947536    -0.1984438953     1.5428156523
   39      H      -4.8131123425    -0.5198667887    -1.7633184370
   40      H      -3.6409141503    -2.3944108261    -0.8785246988
   41      H      -2.5012099490     2.9188400170    -2.8673853394
   42      H      -5.5382719169     1.1746092721     0.3549881294
   43      H      -7.1791251356    -0.6220108222     1.0481508778
   44      H      -6.7894914889    -1.1479545295    -0.6185762907
   45      H      -6.0280987774    -2.5029714520     1.9463256233
   46      H      -5.6203627308    -3.0698098524     0.2982073735
   47      H      -3.5378467215    -2.1127515240     1.9338430195
   48      H      -2.5767068625     3.5037446869    -1.1659855073
   49      H      -3.8575343191     3.9983870687    -2.3471792018
   50      H       0.9577298948    -0.4341055909    -3.5072753970
   51      H       0.5519977644     0.9221271795    -2.3702080313
   52      H       0.2356883124    -0.7907199400    -1.8778492890
   53      H       0.7984487883    -1.9084907302     2.0987876016
   54      H       0.7054389353    -2.0384613304     0.2963782411
   55      H      -0.1084848742     0.4333475989     2.0204842359
   56      H       0.0369586531     0.4773067573     0.2261714807
 ----------------------------------------------------------------

    9   -1510.2937716405      8.67E-09 Convergence criterion met
 Total energy in the final basis set = -1510.29377164
 Final energy is   -1510.29377164049
 **  OPTIMIZATION CONVERGED  **

                    Orbital Energies (a.u.)
 --------------------------------------------------------------

 Alpha MOs
 -- Occupied --
-18.948 -18.930 -18.924 -18.917 -18.891 -18.890 -18.882 -18.870
-18.869 -18.861 -10.111 -10.103 -10.092 -10.089 -10.072 -10.064
-10.061 -10.060 -10.058 -10.055 -10.051 -10.044 -10.038 -10.031
-10.029 -10.029 -10.023 -10.021 -10.016 -10.015  -1.024  -1.008
 -1.004  -0.994  -0.972  -0.964  -0.948  -0.935  -0.929  -0.922
 -0.766  -0.757  -0.727  -0.721  -0.712  -0.701  -0.688  -0.669
 -0.643  -0.610  -0.594  -0.578  -0.549  -0.540  -0.539  -0.531
 -0.516  -0.505  -0.487  -0.471  -0.465  -0.455  -0.449  -0.439
 -0.436  -0.429  -0.425  -0.418  -0.412  -0.398  -0.397  -0.395
 -0.384  -0.380  -0.374  -0.364  -0.360  -0.356  -0.351  -0.341
 -0.338  -0.336  -0.334  -0.329  -0.326  -0.320  -0.320  -0.316
 -0.308  -0.304  -0.302  -0.299  -0.290  -0.284  -0.283  -0.275
 -0.267  -0.263  -0.248  -0.239  -0.236  -0.235  -0.228  -0.189
 -0.176  -0.168  -0.165  -0.157  -0.149  -0.147  -0.144  -0.140
 -0.137

          Ground-State Mulliken Net Atomic Charges

     Atom                 Charge (a.u.)
  ----------------------------------------
      1 O                    -0.206811
      2 C                     0.215849
      3 C                    -0.078369
      4 C                    -0.081259
      5 C                     0.223410
      6 O                    -0.168553
      7 C                    -0.050661
      8 C                    -0.055978
      9 O                    -0.172116
     10 C                     0.213254
     11 C                    -0.078201
     12 C                    -0.077625
     13 C                     0.213251
     14 O                    -0.220834
     15 O                    -0.167368
     16 O                    -0.177678
     17 O                    -0.210616
     18 C                    -0.151778
     19 C                     0.025881
     20 C                    -0.144080
     21 C                    -0.143873
     22 C                     0.024411
     23 O                    -0.186194
     24 H                     0.084653
     25 H                     0.082758
     26 H                     0.081692
     27 H                     0.076950
     28 H                     0.073227
     29 H                     0.076871
     30 H                     0.072396
     31 H                     0.089031
     32 O                    -0.224011
     33 C                    -0.128104
     34 C                     0.025302
     35 C                    -0.143612
     36 C                    -0.144321
     37 C                     0.026747
     38 O                    -0.186372
     39 H                     0.087519
     40 H                     0.084404
     41 H                     0.091307
     42 H                     0.087370
     43 H                     0.078743
     44 H                     0.073808
     45 H                     0.078615
     46 H                     0.074010
     47 H                     0.087595
     48 H                     0.095012
     49 H                     0.093180
     50 H                     0.078445
     51 H                     0.089413
     52 H                     0.109412
     53 H                     0.080718
     54 H                     0.104699
     55 H                     0.092945
     56 H                     0.105535
  ----------------------------------------
  Sum of atomic charges =    -0.000000

                    Cartesian Multipole Moments
 -----------------------------------------------------------------
    Charge (ESU x 10^10)
                 0.0000
    Dipole Moment (Debye)
         X      -1.8274      Y       0.7517      Z      -1.2916
       Tot       2.3606
    Quadrupole Moments (Debye-Ang)
        XX    -133.6193     XY       6.2927     YY    -159.6162
        XZ       4.6289     YZ      -8.1983     ZZ    -159.1932

 Total job time:  130.59s(wall), 6222.96s(cpu)
        *  Thank you very much for using Q-Chem.  Have a nice day.  *
