 Q-Chem 5.0, Q-Chem, Inc., Pleasanton, CA (2017)
 Q-Chem 5.0.1 for Intel X86 EM64T Linux

User input:
--------------------------------------------------------------
$molecule
0  1
O -3.4523942878 1.891463624 1.2436636251
C -3.7108264479 1.699913642 0.0359146068
C -3.8108497805 0.3403142052 -0.7356328256
C -2.4742929677 -0.5225767801 -0.7121118677
C -1.3210051249 0.1251665647 0.1329531398
O -1.5273509996 -0.1728498307 1.517275778
C -0.4426096823 0.4171496129 2.337151967
C 0.7969220034 -0.5497023713 2.3945178998
O 1.8486532759 0.0494319709 1.5423976635
C 3.042181859 -0.7398314273 1.6028440615
C 4.0927526319 -0.1345853859 0.6069444471
C 3.9230368104 -0.5379737186 -0.9209316911
C 2.6733366759 -1.3913627212 -1.3476189773
O 2.28368941 -1.5545473737 -2.5245902215
O -3.9841105436 2.7529116929 -0.8986954658
O 2.0653985596 -2.0350794076 -0.2259955099
O 3.2213133001 -1.6941564822 2.3906112634
C 0.8749904307 -2.8008436157 -0.6594434752
C 4.0168384537 1.4512034107 0.5012472119
C 5.395169316 1.971404604 -0.0706997478
C 5.2699714285 1.5572557744 -1.5835201279
C 3.835809257 0.8978350277 -1.6008805778
O 3.0709222778 1.6892878416 -0.611767645
H 5.086319212 -0.4602223001 0.9635610065
H 4.8173425092 -1.0846462519 -1.2744575182
H 3.6661648357 1.9560466892 1.4215575625
H 5.4701303492 3.0646190286 0.0432539646
H 6.2578274551 1.5041027767 0.4305768532
H 5.2959133397 2.4360112476 -2.2471086256
H 6.0548385823 0.8518815025 -1.8999108311
H 3.3224794235 0.8917160463 -2.5823122103
O -0.369096123 0.8039609782 -0.3113520563
C -3.8950705286 4.0673647361 -0.2214662508
C -4.8308976606 -0.6773211039 -0.0570853422
C -5.203369208 -1.7762784703 -1.1291257417
C -3.8803929183 -2.6274745934 -1.1604461083
C -3.0071982065 -1.876011546 -0.0779222397
O -4.0010428618 -1.4167590806 0.9184925439
H -4.1075295801 0.5691098882 -1.7741597082
H -2.0912624082 -0.6650221974 -1.7384151461
H -2.8818347711 4.2437404381 0.1938203346
H -5.6911825442 -0.1992048617 0.4502119118
H -6.0600075669 -2.3752979981 -0.7811329959
H -5.4533907885 -1.337679105 -2.108301772
H -4.061990793 -3.6698955507 -0.8543436735
H -3.399033309 -2.6287748628 -2.1515182146
H -2.2275647084 -2.4921073886 0.4089828779
H -4.6328132797 4.1531927183 0.6023853926
H -4.1146047583 4.825258058 -0.9956939596
H 0.495906863 -3.3117307964 0.2446673865
H 1.1323476209 -3.5525626864 -1.4330375035
H 0.0909002616 -2.1293941452 -1.0647364857
H 1.1607469871 -0.6658070613 3.4389552087
H 0.5079915868 -1.5569657905 2.0222611238
H -0.8777984645 0.5550113269 3.3465294841
H -0.117340879 1.3957185687 1.9238256377
$end

$rem
JOBTYPE                   OPT
METHOD                    B3LYP
DFT_D                     d3_op
BASIS                     STO-3G
GEOM_OPT_MAX_CYCLES       100
GEOM_OPT_TOL_GRADIENT     300
GEOM_OPT_TOL_DISPLACEMENT 1200
GEOM_OPT_TOL_ENERGY       100
SYMMETRY                  False
THRESH                    12
SCF_CONVERGENCE           8
MAX_SUB_FILE_NUM          128
MEM_STATIC                400
MEM_TOTAL                 4000
$end
--------------------------------------------------------------

   16   -1510.2794436644      4.29E-09 Convergence criterion met
 Total energy in the final basis set = -1510.27944366
   15   -1510.2731823765      3.51E-09 Convergence criterion met
 Total energy in the final basis set = -1510.27318238
   14   -1510.2807583983      7.79E-09 Convergence criterion met
 Total energy in the final basis set = -1510.28075840
   14   -1510.2817513001      6.01E-09 Convergence criterion met
 Total energy in the final basis set = -1510.28175130
   14   -1510.2830845926      5.74E-09 Convergence criterion met
 Total energy in the final basis set = -1510.28308459
   14   -1510.2840292080      6.15E-09 Convergence criterion met
 Total energy in the final basis set = -1510.28402921
   13   -1510.2850188575      4.12E-09 Convergence criterion met
 Total energy in the final basis set = -1510.28501886
   13   -1510.2862760073      3.37E-09 Convergence criterion met
   12   -1510.3049566105      3.93E-09 Convergence criterion met
 Total energy in the final basis set = -1510.30495661
   12   -1510.3049770872      6.03E-09 Convergence criterion met
 Total energy in the final basis set = -1510.30497709
   11   -1510.3049863758      5.86E-09 Convergence criterion met
 Total energy in the final basis set = -1510.30498638
   10   -1510.3049886449      7.46E-09 Convergence criterion met
 Total energy in the final basis set = -1510.30498864
   10   -1510.3049858205      9.18E-09 Convergence criterion met
 Total energy in the final basis set = -1510.30498582
    9   -1510.3049883712      8.37E-09 Convergence criterion met
 Total energy in the final basis set = -1510.30498837

             Standard Nuclear Orientation (Angstroms)
    I     Atom           X                Y                Z
 ----------------------------------------------------------------
    1      O      -3.2315815565     2.4718252204    -0.4170539786
    2      C      -2.4203412833     1.6678416382    -0.9235474512
    3      C      -2.6490429886     0.1548985847    -1.2766770059
    4      C      -1.9824898884    -0.8643546522    -0.2672656148
    5      C      -1.4016643309    -0.1791013455     1.0094658234
    6      O      -0.9338404749    -1.2084496276     1.9072535377
    7      C      -0.3715289635    -0.5969900602     3.1366527089
    8      C       1.1896989658    -0.6976865800     3.1330446523
    9      O       1.6457790888    -0.0180522707     1.8988553152
   10      C       3.0098113938    -0.3645974079     1.6167153579
   11      C       3.4335615928     0.3378684220     0.2776990286
   12      C       2.5846634561    -0.0847147757    -0.9949334146
   13      C       1.5754511357    -1.2684422030    -0.8029158301
   14      O       0.5348455303    -1.4513081566    -1.4784679085
   15      O      -1.1121765609     2.0139785974    -1.4002377211
   16      O       2.0263588230    -2.1512015849     0.2188433576
   17      O       3.7330372314    -1.0464856219     2.3740905196
   18      C       0.9566057678    -3.1195580995     0.5749302007
   19      C       3.1050397700     1.8917201462     0.3330193212
   20      C       3.7972111819     2.6113095523    -0.8931096691
   21      C       2.8240673156     2.2272611749    -2.0703518579
   22      C       1.8183630856     1.2697319003    -1.3260456206
   23      O       1.6648304315     1.9223370350    -0.0033150968
   24      H       4.5094178044     0.1430759568     0.1244190720
   25      H       3.2594827700    -0.3574844978    -1.8281499980
   26      H       3.2852684961     2.3623192370     1.3188214784
   27      H       3.8327816892     3.7005628361    -0.7333467242
   28      H       4.8234768646     2.2449422368    -1.0554185167
   29      H       2.2914705969     3.1112839364    -2.4557140825
   30      H       3.3401560747     1.7316207744    -2.9080892852
   31      H       0.8144511646     1.1444343142    -1.7846412647
   32      O      -1.3476103031     1.0407854529     1.2746943884
   33      C      -0.7292354051     3.3753833530    -0.9549942518
   34      C      -4.1708945524    -0.2868711844    -1.1912725065
   35      C      -4.3375584397    -1.5928264669    -2.0618214834
   36      C      -3.6094437201    -2.6521821332    -1.1533243320
   37      C      -3.2279822084    -1.7725708134     0.1034554085
   38      O      -4.3283875940    -0.7848746436     0.1964194225
   39      H      -2.2443410752    -0.0129731018    -2.2904924127
   40      H      -1.1504229688    -1.4174205530    -0.7558872592
   41      H      -1.5276459284     3.7991025787    -0.3152441484
   42      H      -4.8960479364     0.5249815987    -1.3932192903
   43      H      -5.4038662790    -1.8380244190    -2.1910653424
   44      H      -3.8725172075    -1.4931747813    -3.0555102778
   45      H      -4.2860682337    -3.4709881058    -0.8610701445
   46      H      -2.7184194250    -3.0844464771    -1.6364956128
   47      H      -3.1157243624    -2.3276514237     1.0551162185
   48      H      -0.5817375977     4.0204877274    -1.8439800286
   49      H       0.2257740644     3.2690165282    -0.3953666547
   50      H       1.4274506156    -3.8539375750     1.2529886376
   51      H       0.5650243903    -3.6352328158    -0.3240494483
   52      H       0.1289800154    -2.5796459841     1.0973797636
   53      H       1.5975569124    -0.1972385941     4.0398686219
   54      H       1.5252065684    -1.7566023649     3.1474476293
   55      H      -0.7862460667    -1.1447184045     4.0080359698
   56      H      -0.6811039502     0.4700879338     3.1645252186
 ----------------------------------------------------------------

    9   -1510.3049886275      3.08E-09 Convergence criterion met
 Total energy in the final basis set = -1510.30498863
 Final energy is   -1510.30498862752
 **  OPTIMIZATION CONVERGED  **

                    Orbital Energies (a.u.)
 --------------------------------------------------------------

 Alpha MOs
 -- Occupied --
-18.948 -18.941 -18.928 -18.910 -18.893 -18.889 -18.887 -18.879
-18.869 -18.855 -10.112 -10.103 -10.099 -10.084 -10.075 -10.074
-10.064 -10.058 -10.055 -10.054 -10.050 -10.043 -10.039 -10.031
-10.024 -10.023 -10.023 -10.021 -10.015 -10.013  -1.025  -1.018
 -1.006  -0.990  -0.973  -0.963  -0.946  -0.945  -0.932  -0.917
 -0.766  -0.756  -0.730  -0.721  -0.711  -0.704  -0.693  -0.664
 -0.642  -0.616  -0.598  -0.574  -0.547  -0.540  -0.538  -0.531
 -0.517  -0.506  -0.492  -0.479  -0.470  -0.452  -0.448  -0.442
 -0.435  -0.426  -0.420  -0.416  -0.412  -0.409  -0.406  -0.396
 -0.390  -0.383  -0.373  -0.369  -0.359  -0.354  -0.351  -0.347
 -0.340  -0.340  -0.333  -0.329  -0.326  -0.323  -0.319  -0.314
 -0.309  -0.307  -0.306  -0.298  -0.294  -0.285  -0.280  -0.271
 -0.266  -0.256  -0.250  -0.250  -0.239  -0.229  -0.227  -0.190
 -0.176  -0.174  -0.166  -0.160  -0.156  -0.148  -0.145  -0.138
 -0.137

          Ground-State Mulliken Net Atomic Charges

     Atom                 Charge (a.u.)
  ----------------------------------------
      1 O                    -0.218214
      2 C                     0.217514
      3 C                    -0.081670
      4 C                    -0.091608
      5 C                     0.219433
      6 O                    -0.177849
      7 C                    -0.053645
      8 C                    -0.048315
      9 O                    -0.174906
     10 C                     0.216064
     11 C                    -0.078499
     12 C                    -0.079215
     13 C                     0.219867
     14 O                    -0.218307
     15 O                    -0.181097
     16 O                    -0.166016
     17 O                    -0.217989
     18 C                    -0.144160
     19 C                     0.026391
     20 C                    -0.145185
     21 C                    -0.143815
     22 C                     0.019775
     23 O                    -0.184866
     24 H                     0.085130
     25 H                     0.086285
     26 H                     0.083550
     27 H                     0.077969
     28 H                     0.073989
     29 H                     0.078588
     30 H                     0.073508
     31 H                     0.106461
     32 O                    -0.196204
     33 C                    -0.144195
     34 C                     0.023919
     35 C                    -0.143086
     36 C                    -0.144166
     37 C                     0.022718
     38 O                    -0.191646
     39 H                     0.084926
     40 H                     0.110283
     41 H                     0.097069
     42 H                     0.087225
     43 H                     0.076242
     44 H                     0.073292
     45 H                     0.075747
     46 H                     0.074446
     47 H                     0.082601
     48 H                     0.072331
     49 H                     0.103430
     50 H                     0.088174
     51 H                     0.087295
     52 H                     0.107974
     53 H                     0.085876
     54 H                     0.090628
     55 H                     0.087977
     56 H                     0.107978
  ----------------------------------------
  Sum of atomic charges =    -0.000000

                    Cartesian Multipole Moments
 -----------------------------------------------------------------
    Charge (ESU x 10^10)
                -0.0000
    Dipole Moment (Debye)
         X       2.4578      Y      -1.5386      Z      -0.9846
       Tot       3.0623
    Quadrupole Moments (Debye-Ang)
        XX    -168.0930     XY      13.1839     YY    -156.4077
        XZ      -2.0092     YZ      -2.1053     ZZ    -151.9419

 Total job time:  166.45s(wall), 7928.19s(cpu)
        *  Thank you very much for using Q-Chem.  Have a nice day.  *
