 Q-Chem 5.0, Q-Chem, Inc., Pleasanton, CA (2017)
 Q-Chem 5.0.1 for Intel X86 EM64T Linux

User input:
--------------------------------------------------------------
$molecule
0  1
O -3.94934 -3.66094 2.70899
C -3.26408 -4.56952 2.26188
C -3.36658 -6.02376 2.66595
C -3.12422 -6.36041 4.14642
C -2.98191 -5.18701 5.09033
O -4.21697 -4.72012 5.43971
C -4.16488 -3.61271 6.34535
C -4.05623 -4.11323 7.78195
O -2.72785 -3.88804 8.27953
C -2.52473 -4.23121 9.57572
C -1.08781 -4.06574 10.00994
C -0.1556 -5.22097 9.61662
C -0.69051 -6.17334 8.56612
O -0.02513 -6.98858 7.94385
O -2.34543 -4.28074 1.30263
O -2.02088 -6.46351 8.57461
O -3.43296 -4.43695 10.37162
C -2.61635 -7.51078 7.89621
C -0.3629 -2.85995 9.3872
C 0.81995 -2.45742 10.26651
C 1.76659 -3.61224 10.0112
C 0.97184 -4.39475 8.95962
O 0.27108 -3.39755 8.25422
H -1.10645 -3.9536 11.11823
H 0.21115 -5.82937 10.4722
H -1.03236 -1.98928 9.21314
H 1.25932 -1.53364 9.82641
H 0.57297 -2.27382 11.33436
H 2.70168 -3.20557 9.5656
H 2.00772 -4.23674 10.89854
H 1.66143 -5.02222 8.35276
O -1.93505 -4.88812 5.65204
C -2.12597 -3.0188 0.79126
C -4.78086 -6.60534 2.47424
C -4.69965 -8.12263 2.30679
C -4.3401 -8.54534 3.7176
C -4.39358 -7.19221 4.43516
O -5.38898 -6.48135 3.7368
H -2.65824 -6.5857 2.01424
H -2.19554 -6.96344 4.26177
H -1.80523 -2.32811 1.60019
H -5.32689 -6.15038 1.61888
H -5.72938 -8.48221 2.08165
H -4.00755 -8.4779 1.51331
H -5.14068 -9.21869 4.09682
H -3.34774 -9.03303 3.83058
H -4.56614 -7.33524 5.52389
H -3.0521 -2.63364 0.31323
H -1.32455 -3.07059 0.02606
H -3.71102 -7.48727 8.0701
H -2.22012 -8.47968 8.26713
H -2.41916 -7.42609 6.80884
H -4.72739 -3.4662 8.39351
H -4.41036 -5.16109 7.89107
H -5.18225 -3.17151 6.26577
H -3.47072 -2.7891 6.06259
$end

$opt
CONSTRAINT
tors           1           2           3           4     -59.744
tors           3           4           5           6     +81.630
tors           4           5           6           7    +179.440
tors           5           6           7           8     -85.267
tors           6           7           8           9    +106.908
tors           7           8           9          10    +176.797
tors           8           9          10          11    +175.809
tors           9          10          11          12     -81.202
tors          11          12          13          14    +165.414
ENDCONSTRAINT
$end

$rem
JOBTYPE                   OPT
METHOD                    B3LYP
DFT_D                     d3_op
BASIS                     STO-3G
GEOM_OPT_MAX_CYCLES       100
GEOM_OPT_TOL_GRADIENT     300
GEOM_OPT_TOL_DISPLACEMENT 1200
GEOM_OPT_TOL_ENERGY       100
SYMMETRY                  False
THRESH                    12
SCF_CONVERGENCE           8
MAX_SUB_FILE_NUM          128
MEM_STATIC                400
MEM_TOTAL                 4000
$end
--------------------------------------------------------------

   15   -1510.1428915612      6.01E-09 Convergence criterion met
 Total energy in the final basis set = -1510.14289156
   14   -1510.2140035390      5.90E-09 Convergence criterion met
 Total energy in the final basis set = -1510.21400354
   14   -1510.2519687472      6.72E-09 Convergence criterion met
 Total energy in the final basis set = -1510.25196875
   14   -1510.2688955278      6.23E-09 Convergence criterion met
 Total energy in the final basis set = -1510.26889553
   14   -1510.2742946814      3.13E-09 Convergence criterion met
 Total energy in the final basis set = -1510.27429468
   14   -1510.2768845487      4.31E-09 Convergence criterion met
 Total energy in the final basis set = -1510.27688455
   13   -1510.2783640378      7.15E-09 Convergence criterion met
 Total energy in the final basis set = -1510.27836404
   13   -1510.2789375775      8.57E-09 Convergence criterion met
   11   -1510.2794059427      3.84E-09 Convergence criterion met
 Total energy in the final basis set = -1510.27940594
    9   -1510.2794179468      9.21E-09 Convergence criterion met
 Total energy in the final basis set = -1510.27941795
    9   -1510.2794223717      6.01E-09 Convergence criterion met
 Total energy in the final basis set = -1510.27942237
    9   -1510.2794247188      5.66E-09 Convergence criterion met
 Total energy in the final basis set = -1510.27942472
    9   -1510.2794151085      5.42E-09 Convergence criterion met
 Total energy in the final basis set = -1510.27941511
    9   -1510.2794164625      3.64E-09 Convergence criterion met
 Total energy in the final basis set = -1510.27941646

             Standard Nuclear Orientation (Angstroms)
    I     Atom           X                Y                Z
 ----------------------------------------------------------------
    1      O      -3.4523942878     1.8914636240     1.2436636251
    2      C      -3.7108264479     1.6999136420     0.0359146068
    3      C      -3.8108497805     0.3403142052    -0.7356328256
    4      C      -2.4742929677    -0.5225767801    -0.7121118677
    5      C      -1.3210051249     0.1251665647     0.1329531398
    6      O      -1.5273509996    -0.1728498307     1.5172757780
    7      C      -0.4426096823     0.4171496129     2.3371519670
    8      C       0.7969220034    -0.5497023713     2.3945178998
    9      O       1.8486532759     0.0494319709     1.5423976635
   10      C       3.0421818590    -0.7398314273     1.6028440615
   11      C       4.0927526319    -0.1345853859     0.6069444471
   12      C       3.9230368104    -0.5379737186    -0.9209316911
   13      C       2.6733366759    -1.3913627212    -1.3476189773
   14      O       2.2836894100    -1.5545473737    -2.5245902215
   15      O      -3.9841105436     2.7529116929    -0.8986954658
   16      O       2.0653985596    -2.0350794076    -0.2259955099
   17      O       3.2213133001    -1.6941564822     2.3906112634
   18      C       0.8749904307    -2.8008436157    -0.6594434752
   19      C       4.0168384537     1.4512034107     0.5012472119
   20      C       5.3951693160     1.9714046040    -0.0706997478
   21      C       5.2699714285     1.5572557744    -1.5835201279
   22      C       3.8358092570     0.8978350277    -1.6008805778
   23      O       3.0709222778     1.6892878416    -0.6117676450
   24      H       5.0863192120    -0.4602223001     0.9635610065
   25      H       4.8173425092    -1.0846462519    -1.2744575182
   26      H       3.6661648357     1.9560466892     1.4215575625
   27      H       5.4701303492     3.0646190286     0.0432539646
   28      H       6.2578274551     1.5041027767     0.4305768532
   29      H       5.2959133397     2.4360112476    -2.2471086256
   30      H       6.0548385823     0.8518815025    -1.8999108311
   31      H       3.3224794235     0.8917160463    -2.5823122103
   32      O      -0.3690961230     0.8039609782    -0.3113520563
   33      C      -3.8950705286     4.0673647361    -0.2214662508
   34      C      -4.8308976606    -0.6773211039    -0.0570853422
   35      C      -5.2033692080    -1.7762784703    -1.1291257417
   36      C      -3.8803929183    -2.6274745934    -1.1604461083
   37      C      -3.0071982065    -1.8760115460    -0.0779222397
   38      O      -4.0010428618    -1.4167590806     0.9184925439
   39      H      -4.1075295801     0.5691098882    -1.7741597082
   40      H      -2.0912624082    -0.6650221974    -1.7384151461
   41      H      -2.8818347711     4.2437404381     0.1938203346
   42      H      -5.6911825442    -0.1992048617     0.4502119118
   43      H      -6.0600075669    -2.3752979981    -0.7811329959
   44      H      -5.4533907885    -1.3376791050    -2.1083017720
   45      H      -4.0619907930    -3.6698955507    -0.8543436735
   46      H      -3.3990333090    -2.6287748628    -2.1515182146
   47      H      -2.2275647084    -2.4921073886     0.4089828779
   48      H      -4.6328132797     4.1531927183     0.6023853926
   49      H      -4.1146047583     4.8252580580    -0.9956939596
   50      H       0.4959068630    -3.3117307964     0.2446673865
   51      H       1.1323476209    -3.5525626864    -1.4330375035
   52      H       0.0909002616    -2.1293941452    -1.0647364857
   53      H       1.1607469871    -0.6658070613     3.4389552087
   54      H       0.5079915868    -1.5569657905     2.0222611238
   55      H      -0.8777984645     0.5550113269     3.3465294841
   56      H      -0.1173408790     1.3957185687     1.9238256377
 ----------------------------------------------------------------

    9   -1510.2794172823      2.52E-09 Convergence criterion met
 Total energy in the final basis set = -1510.27941728
 Final energy is   -1510.27941728232
 **  OPTIMIZATION CONVERGED  **

                    Orbital Energies (a.u.)
 --------------------------------------------------------------

 Alpha MOs
 -- Occupied --
-18.942 -18.933 -18.929 -18.921 -18.889 -18.883 -18.873 -18.873
-18.871 -18.859 -10.101 -10.096 -10.093 -10.092 -10.069 -10.066
-10.065 -10.062 -10.061 -10.061 -10.055 -10.054 -10.037 -10.036
-10.036 -10.031 -10.021 -10.020 -10.017 -10.016  -1.015  -1.011
 -1.006  -0.998  -0.970  -0.965  -0.937  -0.934  -0.932  -0.924
 -0.763  -0.758  -0.725  -0.720  -0.711  -0.703  -0.690  -0.666
 -0.662  -0.611  -0.596  -0.577  -0.547  -0.541  -0.538  -0.533
 -0.512  -0.511  -0.488  -0.476  -0.465  -0.458  -0.442  -0.436
 -0.433  -0.430  -0.418  -0.415  -0.411  -0.409  -0.408  -0.403
 -0.392  -0.379  -0.374  -0.366  -0.358  -0.352  -0.349  -0.345
 -0.340  -0.338  -0.332  -0.329  -0.326  -0.325  -0.322  -0.309
 -0.308  -0.305  -0.303  -0.300  -0.293  -0.288  -0.278  -0.277
 -0.273  -0.254  -0.245  -0.243  -0.241  -0.234  -0.228  -0.181
 -0.176  -0.172  -0.163  -0.154  -0.151  -0.146  -0.143  -0.141
 -0.137

          Ground-State Mulliken Net Atomic Charges

     Atom                 Charge (a.u.)
  ----------------------------------------
      1 O                    -0.209600
      2 C                     0.204731
      3 C                    -0.079256
      4 C                    -0.080103
      5 C                     0.202349
      6 O                    -0.163539
      7 C                    -0.048882
      8 C                    -0.048065
      9 O                    -0.169395
     10 C                     0.216407
     11 C                    -0.080923
     12 C                    -0.077407
     13 C                     0.214767
     14 O                    -0.215398
     15 O                    -0.169285
     16 O                    -0.166384
     17 O                    -0.221325
     18 C                    -0.126417
     19 C                     0.026771
     20 C                    -0.144170
     21 C                    -0.144450
     22 C                     0.025606
     23 O                    -0.183530
     24 H                     0.082015
     25 H                     0.084780
     26 H                     0.084614
     27 H                     0.076953
     28 H                     0.072541
     29 H                     0.077757
     30 H                     0.072666
     31 H                     0.088869
     32 O                    -0.206069
     33 C                    -0.129129
     34 C                     0.026433
     35 C                    -0.143415
     36 C                    -0.144878
     37 C                     0.026343
     38 O                    -0.182772
     39 H                     0.086994
     40 H                     0.083941
     41 H                     0.090440
     42 H                     0.083739
     43 H                     0.078061
     44 H                     0.074292
     45 H                     0.077537
     46 H                     0.073497
     47 H                     0.081877
     48 H                     0.088160
     49 H                     0.090428
     50 H                     0.090083
     51 H                     0.092459
     52 H                     0.089248
     53 H                     0.086926
     54 H                     0.086112
     55 H                     0.092852
     56 H                     0.104143
  ----------------------------------------
  Sum of atomic charges =     0.000000

                    Cartesian Multipole Moments
 -----------------------------------------------------------------
    Charge (ESU x 10^10)
                 0.0000
    Dipole Moment (Debye)
         X      -0.4038      Y       0.1016      Z      -1.0813
       Tot       1.1587
    Quadrupole Moments (Debye-Ang)
        XX    -144.1587     XY       2.9600     YY    -152.9336
        XZ       4.6501     YZ       5.4725     ZZ    -164.7985

 Total job time:  58.95s(wall), 2802.02s(cpu)
        *  Thank you very much for using Q-Chem.  Have a nice day.  *
