 Q-Chem 5.0, Q-Chem, Inc., Pleasanton, CA (2017)
 Q-Chem 5.0.1 for Intel X86 EM64T Linux

User input:
--------------------------------------------------------------
$molecule
0  1
O -3.2677235286 1.5711205607 1.7858314373
C -3.647615618 1.6491752163 0.5976219448
C -4.3081258602 0.5311912972 -0.2806629499
C -3.2609935761 -0.5568196387 -0.7909655712
C -1.8039569562 -0.2752344406 -0.2816450661
O -1.6310132203 -0.8555765027 1.0080119449
C -0.2486343192 -0.6481167049 1.5073401528
C 0.7821410534 -1.6138467817 0.8143748191
O 2.0947771444 -0.9295156617 0.879525999
C 3.1210025202 -1.7806337239 0.3431988222
C 4.3799272471 -0.9090994522 -0.011387966
C 4.1294353331 0.3138578627 -0.9842915902
C 2.8175586838 0.3433847374 -1.8451448195
O 2.4638418408 1.2882385925 -2.5846553849
O -3.5146575939 2.8241303364 -0.2115205151
O 2.1907111288 -0.9405689069 -1.8492866926
O 3.0097224964 -3.0179367651 0.2052424093
C 0.9965182572 -0.9210786542 -2.7307401087
C 4.855155946 -0.1213438821 1.2890142836
C 6.2640827503 0.5454068015 1.0190806551
C 5.8526428999 1.8043255711 0.1672263969
C 4.3038099665 1.5519791296 0.0013595727
O 3.9174812033 1.0251607753 1.329059777
H 5.1577613266 -1.5877002948 -0.4024401332
H 4.9486034869 0.338547442 -1.7289317983
H 4.7870904404 -0.7073833964 2.2261345525
H 6.7441662734 0.8348381019 1.967145039
H 6.941360962 -0.1319155654 0.4742527218
H 6.0300177568 2.7397664075 0.7221175531
H 6.3783262403 1.8605660718 -0.7993234422
H 3.6969111582 2.4391617311 -0.2649438997
O -0.921330495 0.3788549832 -0.8867010526
C -2.8344966766 3.8931395592 0.5565093501
C -5.3015809181 -0.3847186285 0.553898138
C -6.2083417004 -1.1828034478 -0.4637313075
C -5.1829720032 -2.2439322951 -1.0121072609
C -3.8884903144 -1.8788010081 -0.1808763858
O -4.4238354345 -1.4303565226 1.124677815
H -4.8123695916 1.0185279589 -1.1338235047
H -3.2294594502 -0.5776430756 -1.8949621904
H -1.8101675334 3.5894613387 0.8546724656
H -5.844666331 0.1443799235 1.3607186009
H -7.043891215 -1.6665106842 0.067041916
H -6.6195827714 -0.5364820522 -1.2556674121
H -5.506350094 -3.2728904079 -0.7885203451
H -5.0173309137 -2.1537767072 -2.0976946188
H -3.166347946 -2.7056678919 -0.0399367843
H -3.4018741453 4.1633286155 1.470418757
H -2.7790570141 4.7665762934 -0.1186671391
H 0.7056534733 -1.9784789017 -2.8698077498
H 1.229086368 -0.4609944455 -3.7113653074
H 0.1698060536 -0.3547993097 -2.2404498714
H 0.8116186419 -2.6002968561 1.325267838
H 0.4976042269 -1.7838286641 -0.2449451558
H -0.2978890669 -0.8338079931 2.5978085326
H 0.0784686405 0.3985237567 1.3247130556
$end

$rem
JOBTYPE                   OPT
METHOD                    B3LYP
DFT_D                     d3_op
BASIS                     STO-3G
GEOM_OPT_MAX_CYCLES       100
GEOM_OPT_TOL_GRADIENT     300
GEOM_OPT_TOL_DISPLACEMENT 1200
GEOM_OPT_TOL_ENERGY       100
SYMMETRY                  False
THRESH                    12
SCF_CONVERGENCE           8
MAX_SUB_FILE_NUM          128
MEM_STATIC                400
MEM_TOTAL                 4000
$end
--------------------------------------------------------------

   16   -1510.2798019651      4.59E-09 Convergence criterion met
 Total energy in the final basis set = -1510.27980197
   14   -1510.2804955462      5.10E-09 Convergence criterion met
 Total energy in the final basis set = -1510.28049555
   14   -1510.2818566126      6.58E-09 Convergence criterion met
 Total energy in the final basis set = -1510.28185661
   13   -1510.2839172461      9.37E-09 Convergence criterion met
 Total energy in the final basis set = -1510.28391725
   13   -1510.2854526290      5.09E-09 Convergence criterion met
 Total energy in the final basis set = -1510.28545263
   13   -1510.2865398773      6.57E-09 Convergence criterion met
 Total energy in the final basis set = -1510.28653988
   13   -1510.2873742113      5.18E-09 Convergence criterion met
 Total energy in the final basis set = -1510.28737421
   13   -1510.2881440518      4.02E-09 Convergence criterion met
   11   -1510.2997537846      3.46E-09 Convergence criterion met
 Total energy in the final basis set = -1510.29975378
   11   -1510.2997590481      5.54E-09 Convergence criterion met
 Total energy in the final basis set = -1510.29975905
   11   -1510.2997663028      5.92E-09 Convergence criterion met
 Total energy in the final basis set = -1510.29976630
   11   -1510.2997675714      3.43E-09 Convergence criterion met
 Total energy in the final basis set = -1510.29976757
   11   -1510.2997696987      2.05E-09 Convergence criterion met
 Total energy in the final basis set = -1510.29976970
    9   -1510.2997709590      5.26E-09 Convergence criterion met
 Total energy in the final basis set = -1510.29977096

             Standard Nuclear Orientation (Angstroms)
    I     Atom           X                Y                Z
 ----------------------------------------------------------------
    1      O      -3.5018960747     2.3392869853     0.8822111283
    2      C      -3.2666898864     1.5642628642    -0.0683231508
    3      C      -4.0996388792     0.3119967767    -0.5209089224
    4      C      -3.2187842315    -1.0019496139    -0.6534341869
    5      C      -1.7229023420    -0.7730966027    -0.2481273973
    6      O      -1.6840636078    -0.3219419074     1.1068197861
    7      C      -0.2940791938    -0.0060052074     1.5172841098
    8      C       0.5511339593    -1.2926294045     1.8678508342
    9      O       1.9852765101    -0.9626551814     1.6763827587
   10      C       2.4316769071    -1.4374247622     0.4005809938
   11      C       3.8388509160    -0.8242702549     0.0726191925
   12      C       3.7326533431     0.4452725324    -0.8873442476
   13      C       2.2580787856     0.8139199116    -1.2698432503
   14      O       1.4011894902     1.3528706354    -0.5250239584
   15      O      -2.1575784957     1.6757344600    -0.9666782543
   16      O       2.0370546309     0.4464170134    -2.6216694669
   17      O       1.7742973906    -2.2089170165    -0.3333960972
   18      C       0.6115090822     0.6448748096    -2.9971636500
   19      C       4.5601210788    -0.1831082725     1.3308081934
   20      C       6.0773557069     0.0634468227     0.9626430878
   21      C       5.9637200715     1.3212140968     0.0239365227
   22      C       4.4025021540     1.5599910886     0.0240813013
   23      O       3.9899158777     1.1824748490     1.3939490478
   24      H       4.4510486505    -1.6116699772    -0.4023000178
   25      H       4.2932582010     0.2777725533    -1.8237465246
   26      H       4.3827681339    -0.7206708804     2.2817138801
   27      H       6.6612812278     0.2867347015     1.8696122650
   28      H       6.5277041554    -0.8054782398     0.4564166141
   29      H       6.4857441076     2.1927376952     0.4500928519
   30      H       6.3557186417     1.1345228832    -0.9886371284
   31      H       4.0792538980     2.5937487107    -0.2055905362
   32      O      -0.7075942177    -0.9713266053    -0.9547538766
   33      C      -1.2559976250     2.7887967612    -0.5818381499
   34      C      -5.1518526014    -0.1280760917     0.5772866096
   35      C      -6.2052660755    -1.0870522159    -0.1025835152
   36      C      -5.3474977474    -2.3955915836    -0.2825421936
   37      C      -3.9750128299    -1.9568127171     0.3682481147
   38      O      -4.3791260021    -1.0386653668     1.4553709107
   39      H      -4.5901446602     0.5507518699    -1.4826192932
   40      H      -3.2317224064    -1.4015614208    -1.6824842416
   41      H      -1.5149905756     3.1515970041     0.4320215037
   42      H      -5.5670008816     0.7142737061     1.1641837042
   43      H      -7.0620791872    -1.2560938183     0.5689366902
   44      H      -6.5793009367    -0.6872997685    -1.0587907676
   45      H      -5.7821049115    -3.2437975287     0.2698538706
   46      H      -5.2306766203    -2.6849766395    -1.3391681096
   47      H      -3.3571527486    -2.7846048950     0.7668856512
   48      H      -1.3696832451     3.6199765597    -1.3062034667
   49      H      -0.2164306382     2.3924290209    -0.6109745238
   50      H       0.5254637666     0.2763106837    -4.0351719714
   51      H       0.3325274473     1.7167338221    -2.9610976653
   52      H      -0.0493292344     0.0551994388    -2.3169140649
   53      H       0.4154746423    -1.5997825284     2.9234652883
   54      H       0.2783042059    -2.1256235174     1.1841733428
   55      H      -0.3954247399     0.6461037125     2.4063405093
   56      H       0.2510504274     0.5451917060     0.7126552828
 ----------------------------------------------------------------

    7   -1510.2997709910      9.72E-09 Convergence criterion met
 Total energy in the final basis set = -1510.29977099
 Final energy is   -1510.29977099100
 **  OPTIMIZATION CONVERGED  **

                    Orbital Energies (a.u.)
 --------------------------------------------------------------

 Alpha MOs
 -- Occupied --
-18.942 -18.931 -18.930 -18.924 -18.888 -18.885 -18.882 -18.875
-18.874 -18.872 -10.109 -10.100 -10.097 -10.095 -10.061 -10.060
-10.059 -10.059 -10.055 -10.052 -10.046 -10.040 -10.039 -10.039
-10.036 -10.034 -10.021 -10.020 -10.019 -10.018  -1.017  -1.012
 -1.007  -1.000  -0.970  -0.967  -0.940  -0.937  -0.931  -0.930
 -0.764  -0.761  -0.726  -0.722  -0.711  -0.704  -0.688  -0.658
 -0.649  -0.612  -0.595  -0.578  -0.547  -0.543  -0.538  -0.535
 -0.514  -0.507  -0.480  -0.477  -0.461  -0.460  -0.450  -0.441
 -0.433  -0.431  -0.426  -0.418  -0.412  -0.406  -0.401  -0.397
 -0.381  -0.378  -0.368  -0.366  -0.362  -0.359  -0.352  -0.349
 -0.343  -0.337  -0.332  -0.329  -0.325  -0.323  -0.317  -0.310
 -0.307  -0.305  -0.303  -0.301  -0.291  -0.286  -0.281  -0.279
 -0.271  -0.259  -0.245  -0.242  -0.237  -0.234  -0.231  -0.190
 -0.175  -0.170  -0.160  -0.159  -0.156  -0.151  -0.147  -0.143
 -0.141

          Ground-State Mulliken Net Atomic Charges

     Atom                 Charge (a.u.)
  ----------------------------------------
      1 O                    -0.211871
      2 C                     0.214596
      3 C                    -0.077977
      4 C                    -0.078495
      5 C                     0.219106
      6 O                    -0.168183
      7 C                    -0.062982
      8 C                    -0.056434
      9 O                    -0.169021
     10 C                     0.205688
     11 C                    -0.077597
     12 C                    -0.078355
     13 C                     0.219647
     14 O                    -0.221429
     15 O                    -0.179123
     16 O                    -0.161735
     17 O                    -0.206878
     18 C                    -0.143066
     19 C                     0.026098
     20 C                    -0.144269
     21 C                    -0.143857
     22 C                     0.025636
     23 O                    -0.184694
     24 H                     0.085749
     25 H                     0.087984
     26 H                     0.089405
     27 H                     0.078198
     28 H                     0.073397
     29 H                     0.078251
     30 H                     0.073765
     31 H                     0.083750
     32 O                    -0.218378
     33 C                    -0.150069
     34 C                     0.024404
     35 C                    -0.143775
     36 C                    -0.144025
     37 C                     0.026047
     38 O                    -0.185387
     39 H                     0.083713
     40 H                     0.084374
     41 H                     0.094659
     42 H                     0.090478
     43 H                     0.077925
     44 H                     0.072704
     45 H                     0.077707
     46 H                     0.073289
     47 H                     0.082317
     48 H                     0.075613
     49 H                     0.109396
     50 H                     0.086414
     51 H                     0.081564
     52 H                     0.119027
     53 H                     0.086017
     54 H                     0.099410
     55 H                     0.089046
     56 H                     0.112225
  ----------------------------------------
  Sum of atomic charges =     0.000000

                    Cartesian Multipole Moments
 -----------------------------------------------------------------
    Charge (ESU x 10^10)
                 0.0000
    Dipole Moment (Debye)
         X       1.0883      Y      -0.5599      Z      -2.0417
       Tot       2.3804
    Quadrupole Moments (Debye-Ang)
        XX    -139.5623     XY       5.2986     YY    -159.6513
        XZ       7.2744     YZ      -7.1958     ZZ    -161.7171

 Total job time:  201.27s(wall), 8842.04s(cpu)
        *  Thank you very much for using Q-Chem.  Have a nice day.  *
