 Q-Chem 5.0, Q-Chem, Inc., Pleasanton, CA (2017)
 Q-Chem 5.0.1 for Intel X86 EM64T Linux

User input:
--------------------------------------------------------------
$molecule
0  1
O -3.94934 -3.66094 2.70899
C -3.26408 -4.56952 2.26188
C -3.36658 -6.02376 2.66595
C -2.76658 -6.41932 4.02514
C -2.28965 -5.28672 4.90709
O -3.33045 -4.80759 5.65045
C -2.94749 -3.75683 6.54404
C -2.21371 -4.33387 7.75015
O -1.33151 -3.34564 8.30511
C -0.67814 -3.71562 9.43443
C 0.52663 -2.85314 9.72651
C 1.55004 -2.76274 8.58514
C 1.06892 -3.23365 7.22739
O 1.70579 -3.16349 6.18623
O -2.42305 -4.29886 1.22883
O 0.60504 -4.51208 7.35733
O -0.97976 -4.6894 10.11299
C 0.9999 -5.62322 6.62354
C 0.19521 -1.3609 9.92182
C 1.29539 -0.69927 10.75141
C 2.44015 -0.70076 9.75672
C 1.72256 -1.23707 8.51183
O 0.39803 -0.78161 8.65545
H 0.98713 -3.24158 10.66378
H 2.48644 -3.31803 8.81604
H -0.80003 -1.19037 10.38742
H 0.97795 0.35388 10.92585
H 1.51756 -1.17872 11.72913
H 2.77369 0.34961 9.60448
H 3.30652 -1.34175 10.02993
H 2.25129 -0.91452 7.58771
O -1.26364 -4.6622 4.67412
C -2.2208 -3.04135 0.69976
C -4.8168 -6.51079 2.81707
C -4.88015 -8.0264 2.63247
C -4.2307 -8.49476 3.91837
C -3.99753 -7.15139 4.61891
O -5.0815 -6.36078 4.18942
H -2.85962 -6.60306 1.86021
H -1.91303 -7.12832 3.94151
H -1.82057 -2.35892 1.47999
H -5.52099 -6.00495 2.12067
H -5.95411 -8.32027 2.65054
H -4.41138 -8.40373 1.69821
H -4.97428 -9.09661 4.487
H -3.29058 -9.07434 3.79397
H -3.90523 -7.30548 5.71682
H -3.17422 -2.63592 0.29869
H -1.48482 -3.10871 -0.12745
H 0.41301 -6.50645 6.94926
H 2.07616 -5.82699 6.80556
H 0.84727 -5.46666 5.53836
H -2.96563 -4.70049 8.48446
H -1.62049 -5.21444 7.44223
H -3.83654 -3.19379 6.89864
H -2.3159 -3.01108 6.00843
$end

$opt
CONSTRAINT
tors           1           2           3           4     -75.810
tors           3           4           5           6     +86.052
tors           4           5           6           7    +178.183
tors           5           6           7           8     -76.292
tors           6           7           8           9    +153.983
tors           7           8           9          10    +176.298
tors           8           9          10          11    +161.861
tors           9          10          11          12     -55.075
tors          11          12          13          14    +175.270
ENDCONSTRAINT
$end

$rem
JOBTYPE                   OPT
METHOD                    B3LYP
DFT_D                     d3_op
BASIS                     STO-3G
GEOM_OPT_MAX_CYCLES       100
GEOM_OPT_TOL_GRADIENT     300
GEOM_OPT_TOL_DISPLACEMENT 1200
GEOM_OPT_TOL_ENERGY       100
SYMMETRY                  False
THRESH                    12
SCF_CONVERGENCE           8
MAX_SUB_FILE_NUM          128
MEM_STATIC                400
MEM_TOTAL                 4000
$end
--------------------------------------------------------------

   15   -1510.1043453876      8.47E-09 Convergence criterion met
 Total energy in the final basis set = -1510.10434539
   14   -1510.1785292869      8.29E-09 Convergence criterion met
 Total energy in the final basis set = -1510.17852929
   14   -1510.2207589375      8.73E-09 Convergence criterion met
 Total energy in the final basis set = -1510.22075894
   14   -1510.2443077158      7.92E-09 Convergence criterion met
 Total energy in the final basis set = -1510.24430772
   14   -1510.2555854946      5.60E-09 Convergence criterion met
 Total energy in the final basis set = -1510.25558549
   14   -1510.2643604273      8.56E-09 Convergence criterion met
 Total energy in the final basis set = -1510.26436043
   13   -1510.2693647451      3.56E-09 Convergence criterion met
 Total energy in the final basis set = -1510.26936475
   13   -1510.2727832970      4.98E-09 Convergence criterion met
   11   -1510.2793177373      7.34E-09 Convergence criterion met
 Total energy in the final basis set = -1510.27931774
   11   -1510.2794413786      5.58E-09 Convergence criterion met
 Total energy in the final basis set = -1510.27944138
   11   -1510.2795064370      7.49E-09 Convergence criterion met
 Total energy in the final basis set = -1510.27950644
   11   -1510.2795292264      4.20E-09 Convergence criterion met
 Total energy in the final basis set = -1510.27952923
   10   -1510.2795370354      9.32E-09 Convergence criterion met
 Total energy in the final basis set = -1510.27953704
    9   -1510.2795384710      5.46E-09 Convergence criterion met
 Total energy in the final basis set = -1510.27953847

             Standard Nuclear Orientation (Angstroms)
    I     Atom           X                Y                Z
 ----------------------------------------------------------------
    1      O      -3.2677235286     1.5711205607     1.7858314373
    2      C      -3.6476156180     1.6491752163     0.5976219448
    3      C      -4.3081258602     0.5311912972    -0.2806629499
    4      C      -3.2609935761    -0.5568196387    -0.7909655712
    5      C      -1.8039569562    -0.2752344406    -0.2816450661
    6      O      -1.6310132203    -0.8555765027     1.0080119449
    7      C      -0.2486343192    -0.6481167049     1.5073401528
    8      C       0.7821410534    -1.6138467817     0.8143748191
    9      O       2.0947771444    -0.9295156617     0.8795259990
   10      C       3.1210025202    -1.7806337239     0.3431988222
   11      C       4.3799272471    -0.9090994522    -0.0113879660
   12      C       4.1294353331     0.3138578627    -0.9842915902
   13      C       2.8175586838     0.3433847374    -1.8451448195
   14      O       2.4638418408     1.2882385925    -2.5846553849
   15      O      -3.5146575939     2.8241303364    -0.2115205151
   16      O       2.1907111288    -0.9405689069    -1.8492866926
   17      O       3.0097224964    -3.0179367651     0.2052424093
   18      C       0.9965182572    -0.9210786542    -2.7307401087
   19      C       4.8551559460    -0.1213438821     1.2890142836
   20      C       6.2640827503     0.5454068015     1.0190806551
   21      C       5.8526428999     1.8043255711     0.1672263969
   22      C       4.3038099665     1.5519791296     0.0013595727
   23      O       3.9174812033     1.0251607753     1.3290597770
   24      H       5.1577613266    -1.5877002948    -0.4024401332
   25      H       4.9486034869     0.3385474420    -1.7289317983
   26      H       4.7870904404    -0.7073833964     2.2261345525
   27      H       6.7441662734     0.8348381019     1.9671450390
   28      H       6.9413609620    -0.1319155654     0.4742527218
   29      H       6.0300177568     2.7397664075     0.7221175531
   30      H       6.3783262403     1.8605660718    -0.7993234422
   31      H       3.6969111582     2.4391617311    -0.2649438997
   32      O      -0.9213304950     0.3788549832    -0.8867010526
   33      C      -2.8344966766     3.8931395592     0.5565093501
   34      C      -5.3015809181    -0.3847186285     0.5538981380
   35      C      -6.2083417004    -1.1828034478    -0.4637313075
   36      C      -5.1829720032    -2.2439322951    -1.0121072609
   37      C      -3.8884903144    -1.8788010081    -0.1808763858
   38      O      -4.4238354345    -1.4303565226     1.1246778150
   39      H      -4.8123695916     1.0185279589    -1.1338235047
   40      H      -3.2294594502    -0.5776430756    -1.8949621904
   41      H      -1.8101675334     3.5894613387     0.8546724656
   42      H      -5.8446663310     0.1443799235     1.3607186009
   43      H      -7.0438912150    -1.6665106842     0.0670419160
   44      H      -6.6195827714    -0.5364820522    -1.2556674121
   45      H      -5.5063500940    -3.2728904079    -0.7885203451
   46      H      -5.0173309137    -2.1537767072    -2.0976946188
   47      H      -3.1663479460    -2.7056678919    -0.0399367843
   48      H      -3.4018741453     4.1633286155     1.4704187570
   49      H      -2.7790570141     4.7665762934    -0.1186671391
   50      H       0.7056534733    -1.9784789017    -2.8698077498
   51      H       1.2290863680    -0.4609944455    -3.7113653074
   52      H       0.1698060536    -0.3547993097    -2.2404498714
   53      H       0.8116186419    -2.6002968561     1.3252678380
   54      H       0.4976042269    -1.7838286641    -0.2449451558
   55      H      -0.2978890669    -0.8338079931     2.5978085326
   56      H       0.0784686405     0.3985237567     1.3247130556
 ----------------------------------------------------------------

    9   -1510.2795392778      3.46E-09 Convergence criterion met
 Total energy in the final basis set = -1510.27953928
 Final energy is   -1510.27953927784
 **  OPTIMIZATION CONVERGED  **

                    Orbital Energies (a.u.)
 --------------------------------------------------------------

 Alpha MOs
 -- Occupied --
-18.945 -18.935 -18.932 -18.920 -18.890 -18.885 -18.883 -18.876
-18.867 -18.865 -10.108 -10.098 -10.096 -10.093 -10.072 -10.066
-10.063 -10.063 -10.062 -10.058 -10.057 -10.048 -10.043 -10.040
-10.035 -10.033 -10.023 -10.022 -10.018 -10.017  -1.020  -1.010
 -1.008  -0.998  -0.972  -0.967  -0.944  -0.936  -0.930  -0.927
 -0.766  -0.760  -0.728  -0.721  -0.712  -0.703  -0.693  -0.663
 -0.654  -0.614  -0.597  -0.581  -0.550  -0.542  -0.540  -0.535
 -0.516  -0.509  -0.489  -0.473  -0.464  -0.460  -0.452  -0.438
 -0.434  -0.430  -0.422  -0.413  -0.412  -0.407  -0.405  -0.398
 -0.397  -0.380  -0.375  -0.368  -0.358  -0.355  -0.353  -0.344
 -0.343  -0.338  -0.333  -0.333  -0.328  -0.327  -0.321  -0.311
 -0.310  -0.308  -0.304  -0.303  -0.290  -0.286  -0.282  -0.279
 -0.274  -0.257  -0.251  -0.246  -0.239  -0.236  -0.231  -0.186
 -0.177  -0.169  -0.165  -0.162  -0.151  -0.150  -0.145  -0.141
 -0.141

          Ground-State Mulliken Net Atomic Charges

     Atom                 Charge (a.u.)
  ----------------------------------------
      1 O                    -0.208659
      2 C                     0.203568
      3 C                    -0.078687
      4 C                    -0.078239
      5 C                     0.209707
      6 O                    -0.158774
      7 C                    -0.047394
      8 C                    -0.048692
      9 O                    -0.171785
     10 C                     0.217177
     11 C                    -0.078574
     12 C                    -0.078897
     13 C                     0.211818
     14 O                    -0.215488
     15 O                    -0.168734
     16 O                    -0.172004
     17 O                    -0.216643
     18 C                    -0.142525
     19 C                     0.025523
     20 C                    -0.145253
     21 C                    -0.142322
     22 C                     0.025881
     23 O                    -0.186168
     24 H                     0.084173
     25 H                     0.083935
     26 H                     0.081785
     27 H                     0.077476
     28 H                     0.073282
     29 H                     0.077464
     30 H                     0.073432
     31 H                     0.087740
     32 O                    -0.217541
     33 C                    -0.128863
     34 C                     0.026246
     35 C                    -0.143671
     36 C                    -0.144386
     37 C                     0.026572
     38 O                    -0.182528
     39 H                     0.087194
     40 H                     0.085250
     41 H                     0.090570
     42 H                     0.085602
     43 H                     0.078668
     44 H                     0.073875
     45 H                     0.078573
     46 H                     0.073196
     47 H                     0.085752
     48 H                     0.088963
     49 H                     0.091490
     50 H                     0.082518
     51 H                     0.088985
     52 H                     0.106245
     53 H                     0.088219
     54 H                     0.087009
     55 H                     0.096704
     56 H                     0.101235
  ----------------------------------------
  Sum of atomic charges =     0.000000

                    Cartesian Multipole Moments
 -----------------------------------------------------------------
    Charge (ESU x 10^10)
                 0.0000
    Dipole Moment (Debye)
         X      -0.7260      Y       0.2586      Z      -1.3841
       Tot       1.5842
    Quadrupole Moments (Debye-Ang)
        XX    -137.4348     XY       2.1908     YY    -160.5944
        XZ       7.9795     YZ       5.2950     ZZ    -163.6103

 Total job time:  60.55s(wall), 2870.68s(cpu)
        *  Thank you very much for using Q-Chem.  Have a nice day.  *
