 Q-Chem 5.0, Q-Chem, Inc., Pleasanton, CA (2017)
 Q-Chem 5.0.1 for Intel X86 EM64T Linux

User input:
--------------------------------------------------------------
$molecule
0  1
O -4.1269162787 1.8791879853 0.9951127966
C -4.4477682376 1.4206696769 -0.1221670156
C -4.26753199 -0.0393058267 -0.660113749
C -2.7510212838 -0.516870313 -0.7289201721
C -1.7089521145 0.5515164653 -0.2463987165
O -1.6220584894 0.5387047158 1.1845740354
C -0.3652876618 1.1960811911 1.6181560892
C 0.6996954319 0.097380045 1.9841487346
O 1.9707526566 0.5056717387 1.343107628
C 3.0246856185 -0.3896214471 1.7175616091
C 4.2991594519 -0.0475156401 0.8662951895
C 4.3666823063 -0.6839035713 -0.5889607698
C 3.197394015 -1.6008409762 -1.100180324
O 3.1612860614 -2.1399907125 -2.2284809411
O -5.072193235 2.194421122 -1.1560342494
O 2.1768561835 -1.7780782873 -0.1158835997
O 2.9406384003 -1.2463519116 2.6241946568
C 1.0883817131 -2.6282542773 -0.6495723863
C 4.385053527 1.5005232567 0.5105187247
C 5.870514637 1.8360315683 0.0868063804
C 5.920841056 1.2195285209 -1.3596439165
C 4.4622773379 0.6305404883 -1.4874354168
O 3.62660303 1.6070589052 -0.7568292309
H 5.1749859286 -0.3755156745 1.4539639739
H 5.291171138 -1.2811455777 -0.696333118
H 3.9505650873 2.169782648 1.2774312403
H 6.029995709 2.9258555883 0.0690478886
H 6.6072381136 1.382476072 0.7688388745
H 6.086296662 1.9954122984 -2.1239845552
H 6.6959114353 0.4442794079 -1.4692735362
H 4.095303913 0.4949146421 -2.5236072221
O -1.009151896 1.2782407523 -0.9875383729
C -5.2550980734 3.5926032866 -0.7020117057
C -4.8753721793 -1.1271786638 0.328353997
C -5.0333810442 -2.4817167238 -0.4696491976
C -3.5355633762 -2.9554507855 -0.5619152578
C -2.7997962416 -1.7925978597 0.2150101878
O -3.7664985423 -1.4071139164 1.2672012464
H -4.7396692287 -0.0906528717 -1.6568912239
H -2.4812328285 -0.7815911385 -1.7668214047
H -4.2852415997 4.0711132907 -0.4560220032
H -5.7756656288 -0.7950760445 0.8805385768
H -5.6476415183 -3.194188501 0.1036475709
H -5.4950848526 -2.3321175733 -1.4588025533
H -3.3826218189 -3.9186924434 -0.0495225111
H -3.1815549023 -3.0488858096 -1.6011876281
H -1.8276700414 -2.0667354945 0.6669986594
H -5.9115512963 3.6498402658 0.1902749864
H -5.7288242668 4.1281140629 -1.5451847158
H 0.462559815 -2.9062349711 0.2183335986
H 1.4854116004 -3.5420824146 -1.13541621
H 0.4734171416 -2.0726193165 -1.3875629353
H 0.8232969119 -0.0053830765 3.0836295039
H 0.3678233382 -0.8868258939 1.586722959
H -0.6067205024 1.8317592919 2.4926690093
H 0.0264011442 1.8233652856 0.7871484199
$end

$rem
JOBTYPE                   OPT
METHOD                    B3LYP
DFT_D                     d3_op
BASIS                     STO-3G
GEOM_OPT_MAX_CYCLES       100
GEOM_OPT_TOL_GRADIENT     300
GEOM_OPT_TOL_DISPLACEMENT 1200
GEOM_OPT_TOL_ENERGY       100
SYMMETRY                  False
THRESH                    12
SCF_CONVERGENCE           8
MAX_SUB_FILE_NUM          128
MEM_STATIC                400
MEM_TOTAL                 4000
$end
--------------------------------------------------------------

   16   -1510.2749747085      4.80E-09 Convergence criterion met
 Total energy in the final basis set = -1510.27497471
   15   -1510.2769417681      2.60E-09 Convergence criterion met
 Total energy in the final basis set = -1510.27694177
   15   -1510.2780658876      3.33E-09 Convergence criterion met
 Total energy in the final basis set = -1510.27806589
   14   -1510.2792153219      5.80E-09 Convergence criterion met
 Total energy in the final basis set = -1510.27921532
   14   -1510.2781198729      5.51E-09 Convergence criterion met
 Total energy in the final basis set = -1510.27811987
   13   -1510.2803573357      8.90E-09 Convergence criterion met
 Total energy in the final basis set = -1510.28035734
   15   -1510.2749237021      5.08E-09 Convergence criterion met
 Total energy in the final basis set = -1510.27492370
   14   -1510.2818578444      7.37E-09 Convergence criterion met
   12   -1510.2939504794      7.14E-09 Convergence criterion met
 Total energy in the final basis set = -1510.29395048
   12   -1510.2939780403      4.64E-09 Convergence criterion met
 Total energy in the final basis set = -1510.29397804
   12   -1510.2939808477      2.90E-09 Convergence criterion met
 Total energy in the final basis set = -1510.29398085
   11   -1510.2940018228      9.02E-09 Convergence criterion met
 Total energy in the final basis set = -1510.29400182
   11   -1510.2939984453      3.07E-09 Convergence criterion met
 Total energy in the final basis set = -1510.29399845
    9   -1510.2940039900      7.64E-09 Convergence criterion met
 Total energy in the final basis set = -1510.29400399

             Standard Nuclear Orientation (Angstroms)
    I     Atom           X                Y                Z
 ----------------------------------------------------------------
    1      O      -2.0611407208     0.2323866450    -1.4250581342
    2      C      -3.3002426942     0.0528459916    -1.4712067168
    3      C      -4.1275863875    -1.0268963162    -0.6962336416
    4      C      -3.2476813330    -1.8606428500     0.3246517827
    5      C      -1.7261788992    -1.4566510602     0.3164772625
    6      O      -1.5332919010    -0.3592895710     1.2116829368
    7      C      -0.1814979954     0.2344328728     1.0698133206
    8      C       0.9829205838    -0.7034689079     1.5572986792
    9      O       2.2339959539    -0.0125232322     1.1669243409
   10      C       3.2680042954    -0.9475993896     0.8364747932
   11      C       4.4806545373    -0.1177076521     0.2957580645
   12      C       4.0847761127     0.8301362881    -0.9155662220
   13      C       2.5804966109     0.6977484171    -1.3554131443
   14      O       1.7116406446     1.5968439460    -1.3909626615
   15      O      -4.1865265117     0.8261219370    -2.2769312514
   16      O       2.3774672451    -0.6530619370    -1.7752684758
   17      O       3.1780258156    -2.1858845505     0.9726030220
   18      C       0.9918732012    -0.8612395654    -2.2667514580
   19      C       4.9715511708     0.9622508825     1.3559813707
   20      C       6.3781324073     1.5158835363     0.8933577699
   21      C       5.9587100627     2.4635020074    -0.2918220641
   22      C       4.3932615806     2.2571795192    -0.3043477508
   23      O       4.0564734079     2.1023783577     1.1306067026
   24      H       5.2834735269    -0.8234073285     0.0199855211
   25      H       4.7178551035     0.6161273072    -1.7963549745
   26      H       4.9217049068     0.6264089414     2.4099922796
   27      H       6.8575449462     2.0779926824     1.7104740803
   28      H       7.0562110785     0.7085351972     0.5737431641
   29      H       6.2081416359     3.5145010211    -0.0755087893
   30      H       6.4242700278     2.1795459931    -1.2490156700
   31      H       3.7979925928     3.0759029426    -0.7532565064
   32      O      -0.8190788105    -2.0847317739    -0.2817910536
   33      C      -3.4244832860     1.8543221912    -3.0258158365
   34      C      -5.1984665023    -0.3758994412     0.2830686640
   35      C      -6.2149665387    -1.5052722042     0.7152696145
   36      C      -5.3394894312    -2.3270871305     1.7320775858
   37      C      -3.9819917557    -1.5192446822     1.6911089957
   38      O      -4.4190356720    -0.1147681128     1.5127724629
   39      H      -4.6197638237    -1.6817766476    -1.4385850315
   40      H      -3.3015321571    -2.9385001112     0.0907746221
   41      H      -2.7090622528     1.3907056187    -3.7353189836
   42      H      -5.6552631838     0.5564584940    -0.1022334360
   43      H      -7.0969327040    -1.0626323557     1.2050994844
   44      H      -6.5515367783    -2.1084551466    -0.1430221598
   45      H      -5.7704482370    -2.3050308176     2.7457105640
   46      H      -5.2055110044    -3.3774287181     1.4279415222
   47      H      -3.3459328437    -1.6151113260     2.5916510832
   48      H      -2.8614179074     2.5217005261    -2.3422239404
   49      H      -4.1754542190     2.4407731228    -3.5861496387
   50      H       1.0593566844    -1.4961492674    -3.1700295809
   51      H       0.5236705177     0.1112101760    -2.5156515204
   52      H       0.3757568125    -1.3740853816    -1.4893682987
   53      H       0.9446147385    -0.8457999124     2.6588272322
   54      H       0.9105556160    -1.6936824729     1.0603677707
   55      H      -0.2059696480     1.1545857756     1.6869191498
   56      H       0.0049071182     0.5259428474     0.0132766236
 ----------------------------------------------------------------

    9   -1510.2940019030      5.04E-09 Convergence criterion met
 Total energy in the final basis set = -1510.29400190
 Final energy is   -1510.29400190297
 **  OPTIMIZATION CONVERGED  **

                    Orbital Energies (a.u.)
 --------------------------------------------------------------

 Alpha MOs
 -- Occupied --
-18.948 -18.930 -18.924 -18.917 -18.891 -18.891 -18.881 -18.870
-18.868 -18.862 -10.112 -10.103 -10.092 -10.089 -10.072 -10.064
-10.062 -10.061 -10.058 -10.055 -10.052 -10.044 -10.038 -10.031
-10.029 -10.029 -10.023 -10.022 -10.016 -10.015  -1.025  -1.008
 -1.003  -0.994  -0.973  -0.963  -0.948  -0.935  -0.928  -0.922
 -0.767  -0.757  -0.727  -0.721  -0.712  -0.701  -0.688  -0.669
 -0.643  -0.610  -0.594  -0.578  -0.549  -0.540  -0.539  -0.531
 -0.516  -0.505  -0.487  -0.470  -0.466  -0.455  -0.449  -0.439
 -0.436  -0.429  -0.425  -0.418  -0.413  -0.398  -0.397  -0.395
 -0.384  -0.381  -0.374  -0.364  -0.360  -0.355  -0.351  -0.341
 -0.338  -0.336  -0.334  -0.329  -0.326  -0.320  -0.320  -0.317
 -0.308  -0.304  -0.302  -0.299  -0.290  -0.284  -0.283  -0.275
 -0.267  -0.263  -0.248  -0.239  -0.236  -0.235  -0.228  -0.190
 -0.176  -0.168  -0.165  -0.157  -0.149  -0.148  -0.144  -0.141
 -0.137

          Ground-State Mulliken Net Atomic Charges

     Atom                 Charge (a.u.)
  ----------------------------------------
      1 O                    -0.207358
      2 C                     0.216085
      3 C                    -0.078263
      4 C                    -0.081414
      5 C                     0.223116
      6 O                    -0.168643
      7 C                    -0.050279
      8 C                    -0.056659
      9 O                    -0.172297
     10 C                     0.212996
     11 C                    -0.078158
     12 C                    -0.077513
     13 C                     0.212770
     14 O                    -0.220016
     15 O                    -0.167350
     16 O                    -0.177276
     17 O                    -0.210848
     18 C                    -0.152095
     19 C                     0.026014
     20 C                    -0.144064
     21 C                    -0.144038
     22 C                     0.024377
     23 O                    -0.186022
     24 H                     0.084623
     25 H                     0.083063
     26 H                     0.081641
     27 H                     0.076983
     28 H                     0.073216
     29 H                     0.076893
     30 H                     0.072437
     31 H                     0.088830
     32 O                    -0.223610
     33 C                    -0.128064
     34 C                     0.025224
     35 C                    -0.143642
     36 C                    -0.144200
     37 C                     0.026678
     38 O                    -0.186512
     39 H                     0.087490
     40 H                     0.084438
     41 H                     0.091036
     42 H                     0.087738
     43 H                     0.078786
     44 H                     0.073806
     45 H                     0.078512
     46 H                     0.074009
     47 H                     0.087665
     48 H                     0.095260
     49 H                     0.093263
     50 H                     0.078069
     51 H                     0.090551
     52 H                     0.109446
     53 H                     0.080356
     54 H                     0.105575
     55 H                     0.092864
     56 H                     0.104512
  ----------------------------------------
  Sum of atomic charges =    -0.000000

                    Cartesian Multipole Moments
 -----------------------------------------------------------------
    Charge (ESU x 10^10)
                 0.0000
    Dipole Moment (Debye)
         X      -1.8388      Y      -0.0525      Z      -1.4028
       Tot       2.3134
    Quadrupole Moments (Debye-Ang)
        XX    -135.4291     XY      10.2258     YY    -163.5291
        XZ       2.7277     YZ      -5.6990     ZZ    -153.4259

 Total job time:  151.19s(wall), 7208.22s(cpu)
        *  Thank you very much for using Q-Chem.  Have a nice day.  *
