 Q-Chem 5.0, Q-Chem, Inc., Pleasanton, CA (2017)
 Q-Chem 5.0.1 for Intel X86 EM64T Linux

User input:
--------------------------------------------------------------
$molecule
0  1
O -3.94934 -3.66094 2.70899
C -3.26408 -4.56952 2.26188
C -3.36658 -6.02376 2.66595
C -3.09138 -6.36459 4.13971
C -2.91895 -5.19381 5.08185
O -4.14226 -4.71941 5.46119
C -4.09181 -3.91302 6.6429
C -4.53882 -4.72595 7.85347
O -3.62804 -4.51988 8.94475
C -3.9739 -5.11501 10.11323
C -2.89273 -5.02196 11.1635
C -1.79679 -6.09278 11.06097
C -1.73913 -6.85616 9.75306
O -0.93786 -7.7389 9.48231
O -2.34709 -4.2809 1.3009
O -2.85061 -6.98233 8.9793
O -5.11128 -5.48996 10.37
C -3.02235 -7.93191 7.9803
C -2.05166 -3.73231 11.11522
C -1.41197 -3.48004 12.4798
C -0.37254 -4.58225 12.51308
C -0.55708 -5.1792 11.11346
O -0.94249 -4.07873 10.32356
H -3.40528 -5.08746 12.15053
H -1.82306 -6.83947 11.88485
H -2.63313 -2.84227 10.78929
H -0.88755 -2.4994 12.42001
H -2.11711 -3.46668 13.33856
H 0.63216 -4.11313 12.60644
H -0.51256 -5.34546 13.309
H 0.36991 -5.70513 10.79394
O -1.86207 -4.98208 5.66576
C -2.11776 -3.0166 0.79976
C -4.78423 -6.59616 2.4906
C -4.71485 -8.11415 2.32427
C -4.34466 -8.53622 3.73176
C -4.37083 -7.17945 4.44354
O -5.37119 -6.4618 3.75998
H -2.66814 -6.58429 2.00244
H -2.17536 -6.98973 4.24022
H -1.78646 -2.33678 1.61372
H -5.33748 -6.13797 1.64159
H -5.74776 -8.4699 2.10803
H -4.02997 -8.47154 1.52545
H -5.15254 -9.19316 4.12432
H -3.36014 -9.04142 3.83554
H -4.5361 -7.31704 5.52764
H -3.04196 -2.61766 0.32955
H -1.31978 -3.06914 0.03101
H -4.064 -7.91105 7.61579
H -2.86118 -8.95315 8.38762
H -2.31712 -7.74302 7.14287
H -5.58163 -4.43432 8.11179
H -4.55919 -5.79333 7.59015
H -4.72815 -3.01105 6.51943
H -3.08661 -3.47749 6.84384
$end

$opt
CONSTRAINT
tors           1           2           3           4     -61.159
tors           3           4           5           6     +81.630
tors           4           5           6           7    +161.609
tors           5           6           7           8    -100.836
tors           6           7           8           9    +133.988
tors           7           8           9          10    +175.356
tors           8           9          10          11    +172.153
tors           9          10          11          12     -83.278
tors          11          12          13          14    +179.747
ENDCONSTRAINT
$end

$rem
JOBTYPE                   OPT
METHOD                    B3LYP
DFT_D                     d3_op
BASIS                     STO-3G
GEOM_OPT_MAX_CYCLES       100
GEOM_OPT_TOL_GRADIENT     300
GEOM_OPT_TOL_DISPLACEMENT 1200
GEOM_OPT_TOL_ENERGY       100
SYMMETRY                  False
THRESH                    12
SCF_CONVERGENCE           8
MAX_SUB_FILE_NUM          128
MEM_STATIC                400
MEM_TOTAL                 4000
$end
--------------------------------------------------------------

   15   -1510.1311205260      7.76E-09 Convergence criterion met
 Total energy in the final basis set = -1510.13112053
   14   -1510.2045768510      6.94E-09 Convergence criterion met
 Total energy in the final basis set = -1510.20457685
   14   -1510.2442508808      6.76E-09 Convergence criterion met
 Total energy in the final basis set = -1510.24425088
   14   -1510.2618259213      6.90E-09 Convergence criterion met
 Total energy in the final basis set = -1510.26182592
   14   -1510.2685206302      4.68E-09 Convergence criterion met
 Total energy in the final basis set = -1510.26852063
   14   -1510.2721521359      2.84E-09 Convergence criterion met
 Total energy in the final basis set = -1510.27215214
   12   -1510.2734723433      9.33E-09 Convergence criterion met
 Total energy in the final basis set = -1510.27347234
   13   -1510.2741042326      7.29E-09 Convergence criterion met
   12   -1510.2749133333      3.25E-09 Convergence criterion met
 Total energy in the final basis set = -1510.27491333
   11   -1510.2749409968      8.00E-09 Convergence criterion met
 Total energy in the final basis set = -1510.27494100
   11   -1510.2749702574      4.87E-09 Convergence criterion met
 Total energy in the final basis set = -1510.27497026
   10   -1510.2749968757      8.76E-09 Convergence criterion met
 Total energy in the final basis set = -1510.27499688
   10   -1510.2750054157      7.59E-09 Convergence criterion met
 Total energy in the final basis set = -1510.27500542
   11   -1510.2750125087      2.67E-09 Convergence criterion met
 Total energy in the final basis set = -1510.27501251

             Standard Nuclear Orientation (Angstroms)
    I     Atom           X                Y                Z
 ----------------------------------------------------------------
    1      O      -4.1269162787     1.8791879853     0.9951127966
    2      C      -4.4477682376     1.4206696769    -0.1221670156
    3      C      -4.2675319900    -0.0393058267    -0.6601137490
    4      C      -2.7510212838    -0.5168703130    -0.7289201721
    5      C      -1.7089521145     0.5515164653    -0.2463987165
    6      O      -1.6220584894     0.5387047158     1.1845740354
    7      C      -0.3652876618     1.1960811911     1.6181560892
    8      C       0.6996954319     0.0973800450     1.9841487346
    9      O       1.9707526566     0.5056717387     1.3431076280
   10      C       3.0246856185    -0.3896214471     1.7175616091
   11      C       4.2991594519    -0.0475156401     0.8662951895
   12      C       4.3666823063    -0.6839035713    -0.5889607698
   13      C       3.1973940150    -1.6008409762    -1.1001803240
   14      O       3.1612860614    -2.1399907125    -2.2284809411
   15      O      -5.0721932350     2.1944211220    -1.1560342494
   16      O       2.1768561835    -1.7780782873    -0.1158835997
   17      O       2.9406384003    -1.2463519116     2.6241946568
   18      C       1.0883817131    -2.6282542773    -0.6495723863
   19      C       4.3850535270     1.5005232567     0.5105187247
   20      C       5.8705146370     1.8360315683     0.0868063804
   21      C       5.9208410560     1.2195285209    -1.3596439165
   22      C       4.4622773379     0.6305404883    -1.4874354168
   23      O       3.6266030300     1.6070589052    -0.7568292309
   24      H       5.1749859286    -0.3755156745     1.4539639739
   25      H       5.2911711380    -1.2811455777    -0.6963331180
   26      H       3.9505650873     2.1697826480     1.2774312403
   27      H       6.0299957090     2.9258555883     0.0690478886
   28      H       6.6072381136     1.3824760720     0.7688388745
   29      H       6.0862966620     1.9954122984    -2.1239845552
   30      H       6.6959114353     0.4442794079    -1.4692735362
   31      H       4.0953039130     0.4949146421    -2.5236072221
   32      O      -1.0091518960     1.2782407523    -0.9875383729
   33      C      -5.2550980734     3.5926032866    -0.7020117057
   34      C      -4.8753721793    -1.1271786638     0.3283539970
   35      C      -5.0333810442    -2.4817167238    -0.4696491976
   36      C      -3.5355633762    -2.9554507855    -0.5619152578
   37      C      -2.7997962416    -1.7925978597     0.2150101878
   38      O      -3.7664985423    -1.4071139164     1.2672012464
   39      H      -4.7396692287    -0.0906528717    -1.6568912239
   40      H      -2.4812328285    -0.7815911385    -1.7668214047
   41      H      -4.2852415997     4.0711132907    -0.4560220032
   42      H      -5.7756656288    -0.7950760445     0.8805385768
   43      H      -5.6476415183    -3.1941885010     0.1036475709
   44      H      -5.4950848526    -2.3321175733    -1.4588025533
   45      H      -3.3826218189    -3.9186924434    -0.0495225111
   46      H      -3.1815549023    -3.0488858096    -1.6011876281
   47      H      -1.8276700414    -2.0667354945     0.6669986594
   48      H      -5.9115512963     3.6498402658     0.1902749864
   49      H      -5.7288242668     4.1281140629    -1.5451847158
   50      H       0.4625598150    -2.9062349711     0.2183335986
   51      H       1.4854116004    -3.5420824146    -1.1354162100
   52      H       0.4734171416    -2.0726193165    -1.3875629353
   53      H       0.8232969119    -0.0053830765     3.0836295039
   54      H       0.3678233382    -0.8868258939     1.5867229590
   55      H      -0.6067205024     1.8317592919     2.4926690093
   56      H       0.0264011442     1.8233652856     0.7871484199
 ----------------------------------------------------------------

    9   -1510.2750134840      7.28E-09 Convergence criterion met
 Total energy in the final basis set = -1510.27501348
 Final energy is   -1510.27501348403
 **  OPTIMIZATION CONVERGED  **

                    Orbital Energies (a.u.)
 --------------------------------------------------------------

 Alpha MOs
 -- Occupied --
-18.944 -18.933 -18.929 -18.923 -18.891 -18.887 -18.876 -18.875
-18.874 -18.863 -10.104 -10.098 -10.097 -10.094 -10.072 -10.065
-10.063 -10.063 -10.062 -10.062 -10.059 -10.057 -10.040 -10.039
-10.038 -10.034 -10.023 -10.022 -10.019 -10.018  -1.018  -1.012
 -1.007  -1.000  -0.972  -0.969  -0.939  -0.936  -0.934  -0.927
 -0.765  -0.761  -0.726  -0.722  -0.713  -0.706  -0.691  -0.668
 -0.663  -0.612  -0.598  -0.577  -0.548  -0.543  -0.540  -0.536
 -0.515  -0.512  -0.491  -0.476  -0.466  -0.459  -0.448  -0.437
 -0.434  -0.433  -0.424  -0.417  -0.412  -0.411  -0.409  -0.403
 -0.394  -0.384  -0.373  -0.367  -0.360  -0.355  -0.349  -0.346
 -0.344  -0.337  -0.334  -0.332  -0.330  -0.324  -0.324  -0.313
 -0.310  -0.308  -0.306  -0.301  -0.296  -0.291  -0.279  -0.278
 -0.276  -0.254  -0.248  -0.243  -0.241  -0.236  -0.232  -0.184
 -0.177  -0.171  -0.165  -0.157  -0.156  -0.148  -0.145  -0.144
 -0.140

          Ground-State Mulliken Net Atomic Charges

     Atom                 Charge (a.u.)
  ----------------------------------------
      1 O                    -0.206661
      2 C                     0.204262
      3 C                    -0.079009
      4 C                    -0.079167
      5 C                     0.205840
      6 O                    -0.163976
      7 C                    -0.054847
      8 C                    -0.047208
      9 O                    -0.171350
     10 C                     0.217008
     11 C                    -0.080940
     12 C                    -0.078377
     13 C                     0.211595
     14 O                    -0.216108
     15 O                    -0.169765
     16 O                    -0.166623
     17 O                    -0.219625
     18 C                    -0.126685
     19 C                     0.026692
     20 C                    -0.144595
     21 C                    -0.143751
     22 C                     0.025818
     23 O                    -0.185780
     24 H                     0.082936
     25 H                     0.085907
     26 H                     0.085731
     27 H                     0.077706
     28 H                     0.073166
     29 H                     0.078437
     30 H                     0.073710
     31 H                     0.086737
     32 O                    -0.210238
     33 C                    -0.129213
     34 C                     0.026414
     35 C                    -0.143549
     36 C                    -0.144728
     37 C                     0.027393
     38 O                    -0.182139
     39 H                     0.086916
     40 H                     0.084568
     41 H                     0.090387
     42 H                     0.084395
     43 H                     0.078587
     44 H                     0.074387
     45 H                     0.077713
     46 H                     0.073155
     47 H                     0.080154
     48 H                     0.088372
     49 H                     0.090349
     50 H                     0.089056
     51 H                     0.095877
     52 H                     0.089013
     53 H                     0.089097
     54 H                     0.083830
     55 H                     0.090276
     56 H                     0.108851
  ----------------------------------------
  Sum of atomic charges =    -0.000000

                    Cartesian Multipole Moments
 -----------------------------------------------------------------
    Charge (ESU x 10^10)
                -0.0000
    Dipole Moment (Debye)
         X      -0.3783      Y      -0.4174      Z      -1.0633
       Tot       1.2033
    Quadrupole Moments (Debye-Ang)
        XX    -138.4533     XY       4.3741     YY    -154.2389
        XZ       7.1264     YZ       4.4212     ZZ    -169.2231

 Total job time:  62.15s(wall), 2547.42s(cpu)
        *  Thank you very much for using Q-Chem.  Have a nice day.  *
