 Q-Chem 5.0, Q-Chem, Inc., Pleasanton, CA (2017)
 Q-Chem 5.0.1 for Intel X86 EM64T Linux

User input:
--------------------------------------------------------------
$molecule
0  1
O -3.94934 -3.66094 2.70899
C -3.26408 -4.56952 2.26188
C -3.36658 -6.02376 2.66595
C -3.09138 -6.36459 4.13971
C -2.91895 -5.19381 5.08185
O -4.12396 -4.85811 5.63019
C -4.00163 -4.07371 6.82142
C -3.4904 -4.93777 7.96953
O -2.44143 -4.25058 8.66975
C -1.93039 -4.90469 9.74219
C -0.81105 -4.14656 10.41523
C 0.60149 -4.65319 10.08917
C 0.71199 -5.57925 8.89464
O 1.75589 -5.92911 8.36319
O -2.34628 -4.28078 1.30175
O -0.37837 -6.1239 8.28932
O -2.29081 -6.01862 10.10659
C -0.34949 -6.98815 7.20758
C -0.66643 -2.66589 9.97559
C 0.06258 -1.87055 11.05835
C 1.46467 -2.41988 10.91463
C 1.27707 -3.32707 9.69447
O 0.2789 -2.68991 8.9374
H -1.04586 -4.13717 11.50321
H 1.10271 -5.15532 10.94505
H -1.63525 -2.1703 9.74729
H 0.06469 -0.8055 10.732
H -0.37167 -1.93727 12.079
H 2.15009 -1.57565 10.67874
H 1.84546 -2.98861 11.79057
H 2.25122 -3.48115 9.17959
O -1.89519 -4.52822 5.17314
C -2.11633 -3.01636 0.80127
C -4.78755 -6.5848 2.48379
C -4.72924 -8.1016 2.31146
C -4.36475 -8.52964 3.71713
C -4.38306 -7.17392 4.43323
O -5.37689 -6.44723 3.75144
H -2.66605 -6.58455 2.00535
H -2.20772 -7.02305 4.29224
H -1.7855 -2.33695 1.61578
H -5.33484 -6.12015 1.6343
H -5.76425 -8.44911 2.09178
H -4.04469 -8.46027 1.51291
H -5.17777 -9.18247 4.10599
H -3.38429 -9.04281 3.82015
H -4.5454 -7.32684 5.52329
H -3.04011 -2.61708 0.33053
H -1.31781 -3.06877 0.03308
H -1.38113 -7.28952 6.94034
H 0.22314 -7.90449 7.46541
H 0.1139 -6.48835 6.33034
H -4.33762 -5.21205 8.63774
H -3.06851 -5.8844 7.57646
H -4.98546 -3.64223 7.10338
H -3.3337 -3.20153 6.63361
$end

$opt
CONSTRAINT
tors           1           2           3           4     -61.159
tors           3           4           5           6     +91.427
tors           4           5           6           7    +161.187
tors           5           6           7           8     -71.886
tors           6           7           8           9    +133.978
tors           7           8           9          10    +178.119
tors           8           9          10          11    +178.645
tors           9          10          11          12    -101.999
tors          11          12          13          14    +168.826
ENDCONSTRAINT
$end

$rem
JOBTYPE                   OPT
METHOD                    B3LYP
DFT_D                     d3_op
BASIS                     STO-3G
GEOM_OPT_MAX_CYCLES       100
GEOM_OPT_TOL_GRADIENT     300
GEOM_OPT_TOL_DISPLACEMENT 1200
GEOM_OPT_TOL_ENERGY       100
SYMMETRY                  False
THRESH                    12
SCF_CONVERGENCE           8
MAX_SUB_FILE_NUM          128
MEM_STATIC                400
MEM_TOTAL                 4000
$end
--------------------------------------------------------------

   15   -1510.1381659341      8.75E-09 Convergence criterion met
 Total energy in the final basis set = -1510.13816593
   14   -1510.2102105799      6.31E-09 Convergence criterion met
 Total energy in the final basis set = -1510.21021058
   14   -1510.2491709254      9.77E-09 Convergence criterion met
 Total energy in the final basis set = -1510.24917093
   14   -1510.2662611954      8.17E-09 Convergence criterion met
 Total energy in the final basis set = -1510.26626120
    2   -1510.2662611952      1.79E-09 Convergence criterion met
 Total energy in the final basis set = -1510.26626120
   14   -1510.2703570698      6.32E-09 Convergence criterion met
 Total energy in the final basis set = -1510.27035707
   13   -1510.2732946532      7.57E-09 Convergence criterion met
 Total energy in the final basis set = -1510.27329465
   13   -1510.2740052176      4.94E-09 Convergence criterion met
   12   -1510.2773224677      4.84E-09 Convergence criterion met
 Total energy in the final basis set = -1510.27732247
   11   -1510.2773686587      6.75E-09 Convergence criterion met
 Total energy in the final basis set = -1510.27736866
   12   -1510.2774331273      2.92E-09 Convergence criterion met
 Total energy in the final basis set = -1510.27743313
   11   -1510.2774620365      8.16E-09 Convergence criterion met
 Total energy in the final basis set = -1510.27746204
   11   -1510.2774712002      7.15E-09 Convergence criterion met
 Total energy in the final basis set = -1510.27747120
   10   -1510.2774753834      6.52E-09 Convergence criterion met
 Total energy in the final basis set = -1510.27747538

             Standard Nuclear Orientation (Angstroms)
    I     Atom           X                Y                Z
 ----------------------------------------------------------------
    1      O      -3.7068732579     1.9250220347     1.1684398172
    2      C      -3.9958943895     1.6422023639    -0.0145611929
    3      C      -4.2081659157     0.2221203457    -0.6410051172
    4      C      -2.9121791856    -0.6979687175    -0.5540452995
    5      C      -1.7117151448    -0.0068155199     0.1877129075
    6      O      -1.7485687368    -0.3161011831     1.5809008284
    7      C      -0.4258271029    -0.0699597457     2.2062063727
    8      C       0.6427456302    -1.1458389630     1.7735219313
    9      O       1.8685674095    -0.3919421727     1.4233160329
   10      C       2.9146207045    -1.3037254622     1.0569221619
   11      C       4.2013133532    -0.4958918087     0.6533271027
   12      C       4.4890616934    -0.3531119362    -0.9012487775
   13      C       3.2882382104    -0.5936544877    -1.8902322652
   14      O       3.3046900229    -0.3266114829    -3.1131681972
   15      O      -4.1946682143     2.6161269883    -1.0464573908
   16      O       2.1497268189    -1.1001551683    -1.2019720641
   17      O       2.8249794284    -2.5465402539     1.1598565231
   18      C       0.9455089151    -1.0968198743    -2.0666800925
   19      C       4.2228678850     1.0276782863     1.1116803586
   20      C       5.7332143799     1.4525542082     1.2792549512
   21      C       6.1989039117     1.4742638160    -0.2239164208
   22      C       4.8368973367     1.1973687591    -0.9759122073
   23      O       3.8034147173     1.7840308025    -0.0908817542
   24      H       5.0475215354    -1.0390263383     1.1131269756
   25      H       5.3382013756    -0.9860133616    -1.2176428385
   26      H       3.5588081287     1.2579931747     1.9662983071
   27      H       5.7978059385     2.4547392021     1.7326329357
   28      H       6.3076817008     0.7447693863     1.8978758627
   29      H       6.6083688809     2.4556684857    -0.5106522956
   30      H       6.9512137241     0.7003947971    -0.4456083779
   31      H       4.7630183691     1.6176004992    -1.9980122600
   32      O      -0.7949452369     0.6480440775    -0.3641270294
   33      C      -3.9765471536     3.9784829607    -0.5063082230
   34      C      -5.2522719036    -0.6598558632     0.1724031465
   35      C      -5.7094727031    -1.8495624528    -0.7606711263
   36      C      -4.4296902993    -2.7646151384    -0.7300220874
   37      C      -3.4873450505    -1.9451699279     0.2383985761
   38      O      -4.4263260885    -1.3269040733     1.2029947319
   39      H      -4.5254599581     0.3596229147    -1.6894749157
   40      H      -2.5578887419    -0.9688648631    -1.5648833009
   41      H      -2.9364935306     4.1095197344    -0.1437528393
   42      H      -6.0718628682    -0.0851364528     0.6453995146
   43      H      -6.5829791620    -2.3625297323    -0.3275300106
   44      H      -5.9667510726    -1.5079999972    -1.7760511377
   45      H      -4.6509632757    -3.7552160779    -0.3020755181
   46      H      -3.9813438281    -2.9030974998    -1.7268705368
   47      H      -2.7221263254    -2.5408355242     0.7716714827
   48      H      -4.6713283397     4.2031661775     0.3284686476
   49      H      -4.1661199986     4.6733555939    -1.3448550478
   50      H       0.5199117726    -2.1190397525    -2.0772309736
   51      H       1.2331364877    -0.7918361066    -3.0925376853
   52      H       0.2134376339    -0.3793004636    -1.6269496017
   53      H       0.8405368992    -1.8705283359     2.5924621033
   54      H       0.2746362699    -1.7214550776     0.8958288505
   55      H      -0.6100798138    -0.1034617704     3.2974314674
   56      H      -0.0381153145     0.9342612162     1.9270081161
 ----------------------------------------------------------------

    9   -1510.2774761969      6.29E-09 Convergence criterion met
 Total energy in the final basis set = -1510.27747620
 Final energy is   -1510.27747619687
 **  OPTIMIZATION CONVERGED  **

                    Orbital Energies (a.u.)
 --------------------------------------------------------------

 Alpha MOs
 -- Occupied --
-18.941 -18.936 -18.934 -18.924 -18.891 -18.883 -18.883 -18.876
-18.868 -18.859 -10.107 -10.099 -10.097 -10.094 -10.073 -10.070
-10.064 -10.063 -10.063 -10.056 -10.054 -10.045 -10.043 -10.040
-10.036 -10.031 -10.023 -10.022 -10.018 -10.016  -1.019  -1.011
 -1.010  -0.999  -0.972  -0.966  -0.943  -0.936  -0.932  -0.927
 -0.766  -0.759  -0.728  -0.721  -0.714  -0.705  -0.692  -0.664
 -0.654  -0.615  -0.597  -0.582  -0.550  -0.540  -0.540  -0.534
 -0.515  -0.511  -0.488  -0.475  -0.465  -0.459  -0.450  -0.438
 -0.435  -0.433  -0.424  -0.413  -0.410  -0.409  -0.406  -0.404
 -0.393  -0.382  -0.377  -0.368  -0.361  -0.353  -0.352  -0.349
 -0.344  -0.340  -0.334  -0.329  -0.328  -0.327  -0.318  -0.311
 -0.310  -0.307  -0.304  -0.302  -0.293  -0.288  -0.281  -0.280
 -0.273  -0.257  -0.250  -0.247  -0.236  -0.231  -0.230  -0.183
 -0.178  -0.172  -0.164  -0.159  -0.154  -0.151  -0.146  -0.145
 -0.137

          Ground-State Mulliken Net Atomic Charges

     Atom                 Charge (a.u.)
  ----------------------------------------
      1 O                    -0.208971
      2 C                     0.204522
      3 C                    -0.079397
      4 C                    -0.079000
      5 C                     0.211899
      6 O                    -0.159932
      7 C                    -0.049026
      8 C                    -0.047321
      9 O                    -0.171473
     10 C                     0.219853
     11 C                    -0.081382
     12 C                    -0.076297
     13 C                     0.214855
     14 O                    -0.218752
     15 O                    -0.168719
     16 O                    -0.169097
     17 O                    -0.223580
     18 C                    -0.145703
     19 C                     0.024515
     20 C                    -0.143098
     21 C                    -0.145208
     22 C                     0.024486
     23 O                    -0.189811
     24 H                     0.081828
     25 H                     0.085575
     26 H                     0.088466
     27 H                     0.077189
     28 H                     0.072693
     29 H                     0.077860
     30 H                     0.073266
     31 H                     0.087649
     32 O                    -0.212136
     33 C                    -0.129119
     34 C                     0.026168
     35 C                    -0.143419
     36 C                    -0.144620
     37 C                     0.026637
     38 O                    -0.182772
     39 H                     0.087073
     40 H                     0.084715
     41 H                     0.091135
     42 H                     0.084547
     43 H                     0.078714
     44 H                     0.074299
     45 H                     0.078826
     46 H                     0.073376
     47 H                     0.085818
     48 H                     0.089268
     49 H                     0.091015
     50 H                     0.077942
     51 H                     0.098928
     52 H                     0.104683
     53 H                     0.087799
     54 H                     0.085618
     55 H                     0.094079
     56 H                     0.103540
  ----------------------------------------
  Sum of atomic charges =    -0.000000

                    Cartesian Multipole Moments
 -----------------------------------------------------------------
    Charge (ESU x 10^10)
                -0.0000
    Dipole Moment (Debye)
         X      -0.8370      Y      -0.1023      Z      -0.2626
       Tot       0.8832
    Quadrupole Moments (Debye-Ang)
        XX    -141.8260     XY       2.7021     YY    -158.1711
        XZ      13.6138     YZ       3.1414     ZZ    -163.9821

 Total job time:  77.48s(wall), 3687.54s(cpu)
        *  Thank you very much for using Q-Chem.  Have a nice day.  *
