 Q-Chem 5.0, Q-Chem, Inc., Pleasanton, CA (2017)
 Q-Chem 5.0.1 for Intel X86 EM64T Linux

User input:
--------------------------------------------------------------
$molecule
0  1
O -3.7068732579 1.9250220347 1.1684398172
C -3.9958943895 1.6422023639 -0.0145611929
C -4.2081659157 0.2221203457 -0.6410051172
C -2.9121791856 -0.6979687175 -0.5540452995
C -1.7117151448 -0.0068155199 0.1877129075
O -1.7485687368 -0.3161011831 1.5809008284
C -0.4258271029 -0.0699597457 2.2062063727
C 0.6427456302 -1.145838963 1.7735219313
O 1.8685674095 -0.3919421727 1.4233160329
C 2.9146207045 -1.3037254622 1.0569221619
C 4.2013133532 -0.4958918087 0.6533271027
C 4.4890616934 -0.3531119362 -0.9012487775
C 3.2882382104 -0.5936544877 -1.8902322652
O 3.3046900229 -0.3266114829 -3.1131681972
O -4.1946682143 2.6161269883 -1.0464573908
O 2.1497268189 -1.1001551683 -1.2019720641
O 2.8249794284 -2.5465402539 1.1598565231
C 0.9455089151 -1.0968198743 -2.0666800925
C 4.222867885 1.0276782863 1.1116803586
C 5.7332143799 1.4525542082 1.2792549512
C 6.1989039117 1.474263816 -0.2239164208
C 4.8368973367 1.1973687591 -0.9759122073
O 3.8034147173 1.7840308025 -0.0908817542
H 5.0475215354 -1.0390263383 1.1131269756
H 5.3382013756 -0.9860133616 -1.2176428385
H 3.5588081287 1.2579931747 1.9662983071
H 5.7978059385 2.4547392021 1.7326329357
H 6.3076817008 0.7447693863 1.8978758627
H 6.6083688809 2.4556684857 -0.5106522956
H 6.9512137241 0.7003947971 -0.4456083779
H 4.7630183691 1.6176004992 -1.99801226
O -0.7949452369 0.6480440775 -0.3641270294
C -3.9765471536 3.9784829607 -0.506308223
C -5.2522719036 -0.6598558632 0.1724031465
C -5.7094727031 -1.8495624528 -0.7606711263
C -4.4296902993 -2.7646151384 -0.7300220874
C -3.4873450505 -1.9451699279 0.2383985761
O -4.4263260885 -1.3269040733 1.2029947319
H -4.5254599581 0.3596229147 -1.6894749157
H -2.5578887419 -0.9688648631 -1.5648833009
H -2.9364935306 4.1095197344 -0.1437528393
H -6.0718628682 -0.0851364528 0.6453995146
H -6.582979162 -2.3625297323 -0.3275300106
H -5.9667510726 -1.5079999972 -1.7760511377
H -4.6509632757 -3.7552160779 -0.3020755181
H -3.9813438281 -2.9030974998 -1.7268705368
H -2.7221263254 -2.5408355242 0.7716714827
H -4.6713283397 4.2031661775 0.3284686476
H -4.1661199986 4.6733555939 -1.3448550478
H 0.5199117726 -2.1190397525 -2.0772309736
H 1.2331364877 -0.7918361066 -3.0925376853
H 0.2134376339 -0.3793004636 -1.6269496017
H 0.8405368992 -1.8705283359 2.5924621033
H 0.2746362699 -1.7214550776 0.8958288505
H -0.6100798138 -0.1034617704 3.2974314674
H -0.0381153145 0.9342612162 1.9270081161
$end

$rem
JOBTYPE                   OPT
METHOD                    B3LYP
DFT_D                     d3_op
BASIS                     STO-3G
GEOM_OPT_MAX_CYCLES       100
GEOM_OPT_TOL_GRADIENT     300
GEOM_OPT_TOL_DISPLACEMENT 1200
GEOM_OPT_TOL_ENERGY       100
SYMMETRY                  False
THRESH                    12
SCF_CONVERGENCE           8
MAX_SUB_FILE_NUM          128
MEM_STATIC                400
MEM_TOTAL                 4000
$end
--------------------------------------------------------------

   16   -1510.2774789127      5.30E-09 Convergence criterion met
 Total energy in the final basis set = -1510.27747891
   15   -1510.2665432535      2.52E-09 Convergence criterion met
 Total energy in the final basis set = -1510.26654325
   14   -1510.2786093874      5.57E-09 Convergence criterion met
 Total energy in the final basis set = -1510.27860939
   15   -1510.2787102777      2.33E-09 Convergence criterion met
 Total energy in the final basis set = -1510.27871028
   13   -1510.2803456801      6.34E-09 Convergence criterion met
 Total energy in the final basis set = -1510.28034568
   14   -1510.2812992616      9.98E-09 Convergence criterion met
 Total energy in the final basis set = -1510.28129926
   13   -1510.2820165842      7.04E-09 Convergence criterion met
 Total energy in the final basis set = -1510.28201658
   13   -1510.2827836862      5.79E-09 Convergence criterion met
   12   -1510.2939143977      5.28E-09 Convergence criterion met
 Total energy in the final basis set = -1510.29391440
   11   -1510.2939364137      9.64E-09 Convergence criterion met
 Total energy in the final basis set = -1510.29393641
   11   -1510.2939290214      7.86E-09 Convergence criterion met
 Total energy in the final basis set = -1510.29392902
   10   -1510.2939393250      7.16E-09 Convergence criterion met
 Total energy in the final basis set = -1510.29393932
   10   -1510.2939348171      4.76E-09 Convergence criterion met
 Total energy in the final basis set = -1510.29393482
    9   -1510.2939392645      2.95E-09 Convergence criterion met
 Total energy in the final basis set = -1510.29393926

             Standard Nuclear Orientation (Angstroms)
    I     Atom           X                Y                Z
 ----------------------------------------------------------------
    1      O      -2.0958456656     1.1427893873    -1.1564580288
    2      C      -3.3477921919     1.1102529505    -1.1918449582
    3      C      -4.2632423285    -0.1401405089    -0.9644061532
    4      C      -3.4553589867    -1.4101926685    -0.4694011714
    5      C      -1.9047692136    -1.1677644630    -0.3528886939
    6      O      -1.6148428652    -0.5860687536     0.9200805060
    7      C      -0.2015429335    -0.1443732857     1.0036190585
    8      C       0.8269428661    -1.3320424302     1.0568023623
    9      O       2.1598395488    -0.6872549236     1.0120390507
   10      C       3.1513693307    -1.5694500066     0.4731172749
   11      C       4.4659487884    -0.7353228776     0.3132918847
   12      C       4.2329899443     0.6315857638    -0.4595912832
   13      C       2.7622916872     0.8338429506    -0.9811197116
   14      O       1.9886391345     1.7824387436    -0.7243422986
   15      O      -4.1668858639     2.2437258741    -1.4688408046
   16      O       2.4757396554    -0.2327706363    -1.8881536160
   17      O       2.9577909516    -2.7720974684     0.1977167929
   18      C       1.1340880249    -0.0653734327    -2.5024895269
   19      C       4.9852765306    -0.1848544042     1.7137694156
   20      C       6.4541041867     0.3686807614     1.5190028539
   21      C       6.1731569290     1.7376602673     0.7937701300
   22      C       4.6021021043     1.6888432920     0.6593236122
   23      O       4.1737998336     1.0346196052     1.9181944926
   24      H       5.2182317209    -1.3695667161    -0.1869686624
   25      H       4.9157330215     0.7030598462    -1.3259412343
   26      H       4.8541373583    -0.8859574146     2.5608511057
   27      H       6.9411991433     0.5191101012     2.4955687696
   28      H       7.0757997022    -0.3118679203     0.9153538047
   29      H       6.4809285679     2.5935375160     1.4154142769
   30      H       6.6743676355     1.8130453689    -0.1845997431
   31      H       4.0911806397     2.6638613176     0.5388154526
   32      O      -1.0549403265    -1.5508956818    -1.1928193425
   33      C      -3.3184300399     3.4401953690    -1.6862650705
   34      C      -5.2805264760     0.0636986568     0.2405269267
   35      C      -6.3821419518    -1.0649265822     0.1504462838
   36      C      -5.5751734178    -2.3178633330     0.6559931055
   37      C      -4.1569700204    -1.6777436987     0.9307219402
   38      O      -4.4815116933    -0.3194427290     1.4252214496
   39      H      -4.8032967580    -0.3455195923    -1.9071167310
   40      H      -3.5988127802    -2.2554564594    -1.1651728880
   41      H      -2.6439370652     3.3066439328    -2.5564847553
   42      H      -5.6629500812     1.0982846141     0.3383421503
   43      H      -7.2270418451    -0.8305676518     0.8173774729
   44      H      -6.7654180419    -1.1886361255    -0.8749381802
   45      H      -6.0005314921    -2.7232769478     1.5878596733
   46      H      -5.5284449480    -3.1257018642    -0.0917780126
   47      H      -3.5280764792    -2.2166033365     1.6648555236
   48      H      -2.7018146896     3.6677838172    -0.7930082069
   49      H      -4.0156823307     4.2755441271    -1.8810005484
   50      H       1.2159409761    -0.4212320596    -3.5463980655
   51      H       0.8328763236     1.0003008972    -2.4860952154
   52      H       0.3668560727    -0.6698332748    -1.9604672461
   53      H       0.7047125932    -1.9237731492     1.9899303998
   54      H       0.6812572861    -2.0017960413     0.1837351290
   55      H      -0.1377182030     0.4477731614     1.9381537790
   56      H       0.0521177116     0.5188928618     0.1477076939
 ----------------------------------------------------------------

    9   -1510.2939400734      1.18E-09 Convergence criterion met
 Total energy in the final basis set = -1510.29394007
 Final energy is   -1510.29394007344
 **  OPTIMIZATION CONVERGED  **

                    Orbital Energies (a.u.)
 --------------------------------------------------------------

 Alpha MOs
 -- Occupied --
-18.948 -18.931 -18.925 -18.916 -18.891 -18.890 -18.882 -18.871
-18.869 -18.859 -10.111 -10.103 -10.093 -10.088 -10.071 -10.064
-10.062 -10.062 -10.060 -10.056 -10.051 -10.044 -10.038 -10.031
-10.029 -10.029 -10.023 -10.022 -10.016 -10.015  -1.024  -1.009
 -1.004  -0.993  -0.973  -0.964  -0.947  -0.935  -0.929  -0.921
 -0.767  -0.757  -0.727  -0.721  -0.712  -0.700  -0.689  -0.669
 -0.643  -0.610  -0.594  -0.578  -0.549  -0.540  -0.539  -0.531
 -0.516  -0.505  -0.487  -0.471  -0.466  -0.455  -0.449  -0.439
 -0.436  -0.429  -0.424  -0.418  -0.413  -0.398  -0.397  -0.395
 -0.385  -0.381  -0.374  -0.364  -0.359  -0.355  -0.351  -0.341
 -0.337  -0.335  -0.335  -0.329  -0.326  -0.321  -0.320  -0.317
 -0.308  -0.304  -0.302  -0.299  -0.289  -0.285  -0.283  -0.276
 -0.267  -0.263  -0.249  -0.240  -0.236  -0.235  -0.228  -0.189
 -0.176  -0.169  -0.164  -0.158  -0.149  -0.148  -0.144  -0.140
 -0.137

          Ground-State Mulliken Net Atomic Charges

     Atom                 Charge (a.u.)
  ----------------------------------------
      1 O                    -0.206819
      2 C                     0.215918
      3 C                    -0.078120
      4 C                    -0.081400
      5 C                     0.223237
      6 O                    -0.168357
      7 C                    -0.049705
      8 C                    -0.054463
      9 O                    -0.171452
     10 C                     0.213585
     11 C                    -0.078309
     12 C                    -0.077854
     13 C                     0.213495
     14 O                    -0.221414
     15 O                    -0.167371
     16 O                    -0.178332
     17 O                    -0.210902
     18 C                    -0.151748
     19 C                     0.025750
     20 C                    -0.144060
     21 C                    -0.143860
     22 C                     0.024385
     23 O                    -0.186607
     24 H                     0.084689
     25 H                     0.082636
     26 H                     0.081537
     27 H                     0.076915
     28 H                     0.073200
     29 H                     0.076916
     30 H                     0.072464
     31 H                     0.089338
     32 O                    -0.223573
     33 C                    -0.127940
     34 C                     0.025081
     35 C                    -0.143749
     36 C                    -0.144087
     37 C                     0.026647
     38 O                    -0.186782
     39 H                     0.087299
     40 H                     0.084588
     41 H                     0.091774
     42 H                     0.088183
     43 H                     0.078762
     44 H                     0.073799
     45 H                     0.078597
     46 H                     0.074044
     47 H                     0.087281
     48 H                     0.094632
     49 H                     0.093116
     50 H                     0.078861
     51 H                     0.087788
     52 H                     0.109646
     53 H                     0.081398
     54 H                     0.102726
     55 H                     0.093573
     56 H                     0.105043
  ----------------------------------------
  Sum of atomic charges =     0.000000

                    Cartesian Multipole Moments
 -----------------------------------------------------------------
    Charge (ESU x 10^10)
                 0.0000
    Dipole Moment (Debye)
         X      -1.8227      Y       0.7059      Z      -1.1842
       Tot       2.2853
    Quadrupole Moments (Debye-Ang)
        XX    -133.4320     XY       5.2170     YY    -158.8545
        XZ       5.7840     YZ      -6.9641     ZZ    -159.8413

 Total job time:  172.47s(wall), 8219.68s(cpu)
        *  Thank you very much for using Q-Chem.  Have a nice day.  *
