 Q-Chem 5.0, Q-Chem, Inc., Pleasanton, CA (2017)
 Q-Chem 5.0.1 for Intel X86 EM64T Linux

User input:
--------------------------------------------------------------
$molecule
0  1
O -3.3468420522 1.5272150776 1.778804404
C -3.7801528218 1.6051485948 0.6090899298
C -4.466014761 0.4830565156 -0.2444838106
C -3.4401526044 -0.6102843262 -0.7861460606
C -1.9614343353 -0.3290254327 -0.3436880735
O -1.773428247 -0.8103142136 0.9845628955
C -0.3677898142 -0.6518558622 1.4326401786
C 0.6423121205 -1.583071244 0.6655190386
O 1.9649894686 -0.9343982015 0.811934773
C 2.9707414016 -1.711159164 0.1443639306
C 4.3309060191 -0.9252878826 0.2027475047
C 4.5514727932 0.1901747231 -0.9075982434
C 3.4176809358 0.4463761137 -1.9654635433
O 3.4341504575 1.3635920956 -2.8177710353
O -3.6958070835 2.7861170545 -0.1987604813
O 2.3811641727 -0.5232362516 -1.8588707303
O 2.7894409307 -2.86478081 -0.3007498971
C 1.2778837033 -0.246705035 -2.8111779148
C 4.4577438178 -0.0505050151 1.5240912612
C 5.9797914864 0.3113105422 1.7449883358
C 6.1910165931 1.4211343503 0.6498942152
C 4.752960699 1.4824434867 0.0005125891
O 3.8446145321 1.2425969522 1.1434262012
H 5.1351450781 -1.6799350318 0.1384176143
H 5.4737892829 -0.0210016823 -1.4803752765
H 3.9420807952 -0.478120727 2.4051228805
H 6.1360906167 0.7108769995 2.7596359039
H 6.6388322049 -0.5602670211 1.6046031278
H 6.4487880109 2.3915272705 1.1031821846
H 6.9685279267 1.156726431 -0.0843902897
H 4.5021414069 2.4324909113 -0.5105555358
O -1.0868019197 0.2630421147 -1.0178331441
C -3.0033298549 3.8614343108 0.5492494572
C -5.430679564 -0.4273528585 0.6296048069
C -6.3678083452 -1.2356534412 -0.3522816065
C -5.3618894399 -2.3080374606 -0.9142333439
C -4.039985127 -1.9265513787 -0.135387098
O -4.53155792 -1.4643205407 1.1822258763
H -4.9999780488 0.9665232605 -1.0815315081
H -3.4558401554 -0.6447203482 -1.8900144522
H -1.968917386 3.566773763 0.820312341
H -5.9492564608 0.1083312751 1.4481528827
H -7.1920161704 -1.7077953263 0.2057408672
H -6.7955144214 -0.5965114714 -1.1413026707
H -5.6769603884 -3.3317475697 -0.6567779116
H -5.2345526808 -2.2418722278 -2.006655671
H -3.3098942749 -2.7490289028 -0.0101898385
H -3.5477419224 4.1282815307 1.4780236465
H -2.9737532929 4.7347242734 -0.1277715291
H 1.1154309991 -1.1552169331 -3.4226602143
H 1.561415708 0.6059407443 -3.4599521869
H 0.3593655441 -0.0076501697 -2.2281708771
H 0.6437434991 -2.6100450308 1.0911243186
H 0.3654798702 -1.65542202 -0.4073156557
H -0.3814271175 -0.8898344626 2.5140214924
H -0.0346485903 0.4005590329 1.2961929754
$end

$rem
JOBTYPE                   OPT
METHOD                    B3LYP
DFT_D                     d3_op
BASIS                     STO-3G
GEOM_OPT_MAX_CYCLES       100
GEOM_OPT_TOL_GRADIENT     300
GEOM_OPT_TOL_DISPLACEMENT 1200
GEOM_OPT_TOL_ENERGY       100
SYMMETRY                  False
THRESH                    12
SCF_CONVERGENCE           8
MAX_SUB_FILE_NUM          128
MEM_STATIC                400
MEM_TOTAL                 4000
$end
--------------------------------------------------------------

   16   -1510.2819405502      4.59E-09 Convergence criterion met
 Total energy in the final basis set = -1510.28194055
   13   -1510.2831146498      2.48E-09 Convergence criterion met
 Total energy in the final basis set = -1510.28311465
   13   -1510.2820873807      7.15E-09 Convergence criterion met
 Total energy in the final basis set = -1510.28208738
   14   -1510.2836365654      4.78E-09 Convergence criterion met
 Total energy in the final basis set = -1510.28363657
   14   -1510.2822172212      6.24E-09 Convergence criterion met
 Total energy in the final basis set = -1510.28221722
   14   -1510.2842287865      4.95E-09 Convergence criterion met
 Total energy in the final basis set = -1510.28422879
   14   -1510.2851288179      1.84E-09 Convergence criterion met
 Total energy in the final basis set = -1510.28512882
   13   -1510.2861156083      8.99E-09 Convergence criterion met
   11   -1510.2996482400      6.77E-09 Convergence criterion met
 Total energy in the final basis set = -1510.29964824
   12   -1510.2996686879      4.24E-09 Convergence criterion met
 Total energy in the final basis set = -1510.29966869
   11   -1510.2996869209      8.83E-09 Convergence criterion met
 Total energy in the final basis set = -1510.29968692
   12   -1510.2996550383      4.89E-09 Convergence criterion met
 Total energy in the final basis set = -1510.29965504
   12   -1510.2996965263      3.19E-09 Convergence criterion met
 Total energy in the final basis set = -1510.29969653
   10   -1510.2996985600      5.84E-09 Convergence criterion met
 Total energy in the final basis set = -1510.29969856

             Standard Nuclear Orientation (Angstroms)
    I     Atom           X                Y                Z
 ----------------------------------------------------------------
    1      O      -3.4862470784     2.3880766997     0.9032216537
    2      C      -3.2413300561     1.6395790764    -0.0659950724
    3      C      -4.0897455765     0.4230077488    -0.5830549212
    4      C      -3.2366004580    -0.9072104315    -0.7323322105
    5      C      -1.7474395935    -0.7283204514    -0.2795960810
    6      O      -1.7365511491    -0.3259489871     1.0910858646
    7      C      -0.3520188054    -0.0621476466     1.5536829081
    8      C       0.4544059284    -1.3826749287     1.8676439562
    9      O       1.9001497420    -1.0771789104     1.7310998984
   10      C       2.3759751865    -1.5157816949     0.4530538439
   11      C       3.8065361576    -0.9246121278     0.1930108645
   12      C       3.7577786370     0.4061511426    -0.6856211140
   13      C       2.3051255360     0.8210155857    -1.1023475364
   14      O       1.4343873396     1.3515892700    -0.3675568912
   15      O      -2.1040538200     1.7543209322    -0.9277824274
   16      O       2.1230301863     0.5038028805    -2.4723847462
   17      O       1.7253941748    -2.2450633124    -0.3286478364
   18      C       0.7151025508     0.7415441988    -2.8889500186
   19      C       4.5126190211    -0.3832983082     1.5048844995
   20      C       6.0408163703    -0.1396988380     1.1834348397
   21      C       5.9705661284     1.1904252055     0.3451845673
   22      C       4.4127496237     1.4481004800     0.3186521717
   23      O       3.9612959416     0.9839691778     1.6491686135
   24      H       4.4070047064    -1.6984160566    -0.3178284428
   25      H       4.3521865237     0.2872852466    -1.6085649480
   26      H       4.3078034993    -0.9805115048     2.4137817159
   27      H       6.6132688318    -0.0027777512     2.1145778538
   28      H       6.4817439432    -0.9754629821     0.6167717376
   29      H       6.4872846282     2.0182947201     0.8564193661
   30      H       6.3925259818     1.0804995687    -0.6665096894
   31      H       4.1062722138     2.4989154754     0.1521743539
   32      O      -0.7179531019    -0.9266433601    -0.9654471873
   33      C      -1.1910333222     2.8347549167    -0.4817153339
   34      C      -5.1831096121    -0.0252326293     0.4703353873
   35      C      -6.2372872430    -0.9390606534    -0.2682911655
   36      C      -5.4049174245    -2.2620751483    -0.4612302423
   37      C      -4.0419523427    -1.8738424355     0.2393761337
   38      O      -4.4561245149    -0.9787642982     1.3421167055
   39      H      -4.5464203000     0.7033065661    -1.5502311166
   40      H      -3.2305381696    -1.2750039795    -1.7732690631
   41      H      -1.4793912408     3.1786529551     0.5308720346
   42      H      -5.5964940929     0.8086322355     1.0704106965
   43      H      -7.1184277962    -1.1065135007     0.3714891855
   44      H      -6.5715923628    -0.5029329182    -1.2232353429
   45      H      -5.8745628076    -3.1149633161     0.0542089039
   46      H      -5.2646384158    -2.5245087210    -1.5220551170
   47      H      -3.4537135027    -2.7265822981     0.6301881826
   48      H      -1.2584005856     3.6855271027    -1.1888844359
   49      H      -0.1603696192     2.4146802317    -0.4827189490
   50      H       0.6583423807     0.4091987024    -3.9411090894
   51      H       0.4541022580     1.8166749360    -2.8264204701
   52      H       0.0204987742     0.1421149341    -2.2522438199
   53      H       0.2811719224    -1.7343902831     2.9036991423
   54      H       0.1839964518    -2.1771124188     1.1387140170
   55      H      -0.4649387621     0.5500600270     2.4692915562
   56      H       0.2285458395     0.5137155553     0.7922729879
 ----------------------------------------------------------------

    9   -1510.2996985884      8.85E-09 Convergence criterion met
 Total energy in the final basis set = -1510.29969859
 Final energy is   -1510.29969858839
 **  OPTIMIZATION CONVERGED  **

                    Orbital Energies (a.u.)
 --------------------------------------------------------------

 Alpha MOs
 -- Occupied --
-18.943 -18.931 -18.930 -18.924 -18.888 -18.885 -18.883 -18.875
-18.874 -18.872 -10.109 -10.100 -10.097 -10.095 -10.061 -10.060
-10.060 -10.059 -10.055 -10.052 -10.046 -10.040 -10.039 -10.039
-10.036 -10.034 -10.021 -10.020 -10.019 -10.018  -1.017  -1.012
 -1.008  -1.000  -0.970  -0.967  -0.941  -0.937  -0.931  -0.930
 -0.764  -0.761  -0.726  -0.722  -0.711  -0.704  -0.688  -0.659
 -0.649  -0.612  -0.595  -0.578  -0.547  -0.543  -0.538  -0.535
 -0.514  -0.507  -0.480  -0.477  -0.461  -0.460  -0.450  -0.442
 -0.433  -0.431  -0.426  -0.418  -0.412  -0.406  -0.401  -0.397
 -0.381  -0.378  -0.368  -0.366  -0.362  -0.359  -0.352  -0.349
 -0.343  -0.337  -0.332  -0.329  -0.325  -0.323  -0.317  -0.310
 -0.308  -0.305  -0.303  -0.301  -0.291  -0.286  -0.281  -0.279
 -0.271  -0.259  -0.245  -0.242  -0.236  -0.234  -0.231  -0.190
 -0.175  -0.170  -0.160  -0.159  -0.156  -0.151  -0.147  -0.143
 -0.141

          Ground-State Mulliken Net Atomic Charges

     Atom                 Charge (a.u.)
  ----------------------------------------
      1 O                    -0.211882
      2 C                     0.214561
      3 C                    -0.077949
      4 C                    -0.078505
      5 C                     0.219066
      6 O                    -0.168107
      7 C                    -0.062915
      8 C                    -0.056623
      9 O                    -0.168757
     10 C                     0.205469
     11 C                    -0.077472
     12 C                    -0.078449
     13 C                     0.219652
     14 O                    -0.221278
     15 O                    -0.179140
     16 O                    -0.161736
     17 O                    -0.206812
     18 C                    -0.143086
     19 C                     0.026238
     20 C                    -0.144397
     21 C                    -0.143692
     22 C                     0.025563
     23 O                    -0.184485
     24 H                     0.085871
     25 H                     0.087950
     26 H                     0.088995
     27 H                     0.078164
     28 H                     0.073393
     29 H                     0.078353
     30 H                     0.073769
     31 H                     0.083981
     32 O                    -0.218587
     33 C                    -0.150403
     34 C                     0.024377
     35 C                    -0.143790
     36 C                    -0.144006
     37 C                     0.026040
     38 O                    -0.185306
     39 H                     0.083719
     40 H                     0.084377
     41 H                     0.094726
     42 H                     0.090469
     43 H                     0.077918
     44 H                     0.072675
     45 H                     0.077701
     46 H                     0.073274
     47 H                     0.082288
     48 H                     0.075466
     49 H                     0.109381
     50 H                     0.086607
     51 H                     0.081656
     52 H                     0.119077
     53 H                     0.085945
     54 H                     0.099578
     55 H                     0.089159
     56 H                     0.111923
  ----------------------------------------
  Sum of atomic charges =     0.000000

                    Cartesian Multipole Moments
 -----------------------------------------------------------------
    Charge (ESU x 10^10)
                 0.0000
    Dipole Moment (Debye)
         X       1.1491      Y      -0.4962      Z      -2.0400
       Tot       2.3934
    Quadrupole Moments (Debye-Ang)
        XX    -139.7544     XY       4.9273     YY    -159.2591
        XZ       7.9701     YZ      -7.1768     ZZ    -162.1628

 Total job time:  214.84s(wall), 9007.42s(cpu)
        *  Thank you very much for using Q-Chem.  Have a nice day.  *
