 Q-Chem 5.0, Q-Chem, Inc., Pleasanton, CA (2017)
 Q-Chem 5.0.1 for Intel X86 EM64T Linux

User input:
--------------------------------------------------------------
$molecule
0  1
O -3.94934 -3.66094 2.70899
C -3.26408 -4.56952 2.26188
C -3.36658 -6.02376 2.66595
C -2.79013 -6.41445 4.03669
C -2.33571 -5.27825 4.92588
O -3.40955 -4.73933 5.57538
C -3.04866 -3.70878 6.50111
C -2.27713 -4.30316 7.67482
O -1.48283 -3.28532 8.30409
C -0.74904 -3.69352 9.36901
C 0.15955 -2.61345 9.90621
C 1.49884 -2.46832 9.16897
C 1.58738 -3.15123 7.81897
O 2.52741 -3.06634 7.04199
O -2.42373 -4.29901 1.22822
O 0.82855 -4.25076 7.55837
O -0.96478 -4.73419 9.97802
C 1.10984 -5.19656 6.58356
C -0.40075 -1.18338 9.79502
C 0.28314 -0.27815 10.81854
C 1.66812 -0.1652 10.21471
C 1.46692 -0.94782 8.91223
O 0.11977 -0.7094 8.57843
H 0.3357 -2.85521 10.97939
H 2.38262 -2.78356 9.76594
H -1.50552 -1.13571 9.91236
H -0.21208 0.71759 10.75983
H 0.25126 -0.64228 11.86797
H 1.86789 0.9074 9.99586
H 2.49206 -0.5888 10.82891
H 2.2174 -0.62979 8.15491
O -1.27862 -4.68905 4.74401
C -2.23019 -3.04341 0.6914
C -4.81677 -6.51786 2.79345
C -4.86877 -8.0352 2.61648
C -4.24477 -8.4933 3.91898
C -4.02814 -7.14492 4.61446
O -5.1074 -6.36148 4.15991
H -2.84309 -6.60232 1.87033
H -1.93167 -7.11916 3.96719
H -1.83607 -2.35278 1.46744
H -5.51028 -6.01943 2.08117
H -5.94101 -8.33566 2.61273
H -4.37733 -8.41433 1.69468
H -4.99933 -9.09083 4.47763
H -3.30228 -9.07357 3.81802
H -3.95418 -7.28852 5.71518
H -3.18634 -2.64801 0.28669
H -1.49321 -3.11065 -0.13493
H 0.34328 -5.99603 6.59561
H 2.09424 -5.66908 6.78827
H 1.13429 -4.72271 5.57992
H -2.99183 -4.78525 8.37852
H -1.58539 -5.08837 7.32416
H -3.94925 -3.18265 6.88186
H -2.43319 -2.94334 5.97464
$end

$opt
CONSTRAINT
tors           1           2           3           4     -74.692
tors           3           4           5           6     +81.630
tors           4           5           6           7    +176.382
tors           5           6           7           8     -68.157
tors           6           7           8           9    +157.517
tors           7           8           9          10    +179.873
tors           8           9          10          11    +174.652
tors           9          10          11          12     -83.278
tors          11          12          13          14    +174.192
ENDCONSTRAINT
$end

$rem
JOBTYPE                   OPT
METHOD                    B3LYP
DFT_D                     d3_op
BASIS                     STO-3G
GEOM_OPT_MAX_CYCLES       100
GEOM_OPT_TOL_GRADIENT     300
GEOM_OPT_TOL_DISPLACEMENT 1200
GEOM_OPT_TOL_ENERGY       100
SYMMETRY                  False
THRESH                    12
SCF_CONVERGENCE           8
MAX_SUB_FILE_NUM          128
MEM_STATIC                400
MEM_TOTAL                 4000
$end
--------------------------------------------------------------

   15   -1510.1336999053      6.43E-09 Convergence criterion met
 Total energy in the final basis set = -1510.13369991
   14   -1510.2068236328      7.95E-09 Convergence criterion met
 Total energy in the final basis set = -1510.20682363
   14   -1510.2460975799      8.06E-09 Convergence criterion met
 Total energy in the final basis set = -1510.24609758
   14   -1510.2637652157      9.13E-09 Convergence criterion met
 Total energy in the final basis set = -1510.26376522
   14   -1510.2718788194      5.67E-09 Convergence criterion met
 Total energy in the final basis set = -1510.27187882
   14   -1510.2756225061      3.80E-09 Convergence criterion met
 Total energy in the final basis set = -1510.27562251
   13   -1510.2774759046      5.98E-09 Convergence criterion met
 Total energy in the final basis set = -1510.27747590
   13   -1510.2780768067      4.58E-09 Convergence criterion met
   11   -1510.2819301351      8.47E-09 Convergence criterion met
 Total energy in the final basis set = -1510.28193014
   11   -1510.2819519545      2.64E-09 Convergence criterion met
 Total energy in the final basis set = -1510.28195195
   10   -1510.2819810775      9.00E-09 Convergence criterion met
 Total energy in the final basis set = -1510.28198108
   10   -1510.2819962441      5.22E-09 Convergence criterion met
 Total energy in the final basis set = -1510.28199624
   10   -1510.2820021856      8.57E-09 Convergence criterion met
 Total energy in the final basis set = -1510.28200219
    9   -1510.2820036284      5.54E-09 Convergence criterion met
 Total energy in the final basis set = -1510.28200363

             Standard Nuclear Orientation (Angstroms)
    I     Atom           X                Y                Z
 ----------------------------------------------------------------
    1      O      -3.3468420522     1.5272150776     1.7788044040
    2      C      -3.7801528218     1.6051485948     0.6090899298
    3      C      -4.4660147610     0.4830565156    -0.2444838106
    4      C      -3.4401526044    -0.6102843262    -0.7861460606
    5      C      -1.9614343353    -0.3290254327    -0.3436880735
    6      O      -1.7734282470    -0.8103142136     0.9845628955
    7      C      -0.3677898142    -0.6518558622     1.4326401786
    8      C       0.6423121205    -1.5830712440     0.6655190386
    9      O       1.9649894686    -0.9343982015     0.8119347730
   10      C       2.9707414016    -1.7111591640     0.1443639306
   11      C       4.3309060191    -0.9252878826     0.2027475047
   12      C       4.5514727932     0.1901747231    -0.9075982434
   13      C       3.4176809358     0.4463761137    -1.9654635433
   14      O       3.4341504575     1.3635920956    -2.8177710353
   15      O      -3.6958070835     2.7861170545    -0.1987604813
   16      O       2.3811641727    -0.5232362516    -1.8588707303
   17      O       2.7894409307    -2.8647808100    -0.3007498971
   18      C       1.2778837033    -0.2467050350    -2.8111779148
   19      C       4.4577438178    -0.0505050151     1.5240912612
   20      C       5.9797914864     0.3113105422     1.7449883358
   21      C       6.1910165931     1.4211343503     0.6498942152
   22      C       4.7529606990     1.4824434867     0.0005125891
   23      O       3.8446145321     1.2425969522     1.1434262012
   24      H       5.1351450781    -1.6799350318     0.1384176143
   25      H       5.4737892829    -0.0210016823    -1.4803752765
   26      H       3.9420807952    -0.4781207270     2.4051228805
   27      H       6.1360906167     0.7108769995     2.7596359039
   28      H       6.6388322049    -0.5602670211     1.6046031278
   29      H       6.4487880109     2.3915272705     1.1031821846
   30      H       6.9685279267     1.1567264310    -0.0843902897
   31      H       4.5021414069     2.4324909113    -0.5105555358
   32      O      -1.0868019197     0.2630421147    -1.0178331441
   33      C      -3.0033298549     3.8614343108     0.5492494572
   34      C      -5.4306795640    -0.4273528585     0.6296048069
   35      C      -6.3678083452    -1.2356534412    -0.3522816065
   36      C      -5.3618894399    -2.3080374606    -0.9142333439
   37      C      -4.0399851270    -1.9265513787    -0.1353870980
   38      O      -4.5315579200    -1.4643205407     1.1822258763
   39      H      -4.9999780488     0.9665232605    -1.0815315081
   40      H      -3.4558401554    -0.6447203482    -1.8900144522
   41      H      -1.9689173860     3.5667737630     0.8203123410
   42      H      -5.9492564608     0.1083312751     1.4481528827
   43      H      -7.1920161704    -1.7077953263     0.2057408672
   44      H      -6.7955144214    -0.5965114714    -1.1413026707
   45      H      -5.6769603884    -3.3317475697    -0.6567779116
   46      H      -5.2345526808    -2.2418722278    -2.0066556710
   47      H      -3.3098942749    -2.7490289028    -0.0101898385
   48      H      -3.5477419224     4.1282815307     1.4780236465
   49      H      -2.9737532929     4.7347242734    -0.1277715291
   50      H       1.1154309991    -1.1552169331    -3.4226602143
   51      H       1.5614157080     0.6059407443    -3.4599521869
   52      H       0.3593655441    -0.0076501697    -2.2281708771
   53      H       0.6437434991    -2.6100450308     1.0911243186
   54      H       0.3654798702    -1.6554220200    -0.4073156557
   55      H      -0.3814271175    -0.8898344626     2.5140214924
   56      H      -0.0346485903     0.4005590329     1.2961929754
 ----------------------------------------------------------------

    8   -1510.2820042958      9.43E-09 Convergence criterion met
 Total energy in the final basis set = -1510.28200430
 Final energy is   -1510.28200429581
 **  OPTIMIZATION CONVERGED  **

                    Orbital Energies (a.u.)
 --------------------------------------------------------------

 Alpha MOs
 -- Occupied --
-18.944 -18.935 -18.934 -18.921 -18.891 -18.885 -18.884 -18.876
-18.868 -18.860 -10.109 -10.098 -10.097 -10.093 -10.073 -10.067
-10.064 -10.063 -10.062 -10.057 -10.056 -10.043 -10.042 -10.040
-10.036 -10.032 -10.023 -10.022 -10.018 -10.017  -1.020  -1.011
 -1.010  -0.998  -0.972  -0.967  -0.945  -0.936  -0.931  -0.926
 -0.766  -0.759  -0.728  -0.721  -0.713  -0.705  -0.692  -0.663
 -0.652  -0.614  -0.597  -0.582  -0.550  -0.541  -0.540  -0.534
 -0.516  -0.509  -0.488  -0.473  -0.464  -0.460  -0.452  -0.439
 -0.434  -0.431  -0.424  -0.413  -0.411  -0.407  -0.405  -0.397
 -0.395  -0.382  -0.378  -0.367  -0.359  -0.355  -0.353  -0.347
 -0.343  -0.338  -0.333  -0.329  -0.328  -0.325  -0.321  -0.310
 -0.310  -0.308  -0.304  -0.302  -0.293  -0.287  -0.282  -0.281
 -0.274  -0.257  -0.250  -0.246  -0.236  -0.232  -0.230  -0.185
 -0.177  -0.171  -0.164  -0.161  -0.153  -0.151  -0.145  -0.143
 -0.139

          Ground-State Mulliken Net Atomic Charges

     Atom                 Charge (a.u.)
  ----------------------------------------
      1 O                    -0.207755
      2 C                     0.203334
      3 C                    -0.078660
      4 C                    -0.078271
      5 C                     0.211253
      6 O                    -0.158346
      7 C                    -0.046995
      8 C                    -0.048449
      9 O                    -0.172694
     10 C                     0.220172
     11 C                    -0.080725
     12 C                    -0.078021
     13 C                     0.212791
     14 O                    -0.219316
     15 O                    -0.169309
     16 O                    -0.169797
     17 O                    -0.220985
     18 C                    -0.147852
     19 C                     0.026401
     20 C                    -0.144583
     21 C                    -0.143888
     22 C                     0.025126
     23 O                    -0.188252
     24 H                     0.082610
     25 H                     0.085123
     26 H                     0.084765
     27 H                     0.077116
     28 H                     0.073140
     29 H                     0.077698
     30 H                     0.073571
     31 H                     0.087015
     32 O                    -0.218137
     33 C                    -0.129025
     34 C                     0.026385
     35 C                    -0.143794
     36 C                    -0.144243
     37 C                     0.026873
     38 O                    -0.182249
     39 H                     0.087107
     40 H                     0.085590
     41 H                     0.090466
     42 H                     0.085419
     43 H                     0.078627
     44 H                     0.073845
     45 H                     0.078636
     46 H                     0.073517
     47 H                     0.085346
     48 H                     0.088865
     49 H                     0.091281
     50 H                     0.080963
     51 H                     0.098390
     52 H                     0.109201
     53 H                     0.085814
     54 H                     0.089624
     55 H                     0.096212
     56 H                     0.099069
  ----------------------------------------
  Sum of atomic charges =     0.000000

                    Cartesian Multipole Moments
 -----------------------------------------------------------------
    Charge (ESU x 10^10)
                 0.0000
    Dipole Moment (Debye)
         X      -1.0088      Y       0.0433      Z      -0.4741
       Tot       1.1155
    Quadrupole Moments (Debye-Ang)
        XX    -137.5319     XY      -0.4394     YY    -160.2954
        XZ      12.4349     YZ       3.5671     ZZ    -164.2710

 Total job time:  72.11s(wall), 3434.84s(cpu)
        *  Thank you very much for using Q-Chem.  Have a nice day.  *
