 Q-Chem 5.0, Q-Chem, Inc., Pleasanton, CA (2017)
 Q-Chem 5.0.1 for Intel X86 EM64T Linux

User input:
--------------------------------------------------------------
$molecule
0  1
O -4.2956952878 1.8715556644 0.900645663
C -4.4219967091 1.3638490711 -0.2342685327
C -4.4504704976 -0.1561072133 -0.6153643917
C -3.0108451121 -0.83657085 -0.5556521773
C -1.8652516981 0.1493541956 -0.1344243519
O -1.7823311192 0.219829667 1.2919580613
C -0.4603871008 0.7558812424 1.7016032387
C 0.6172926587 -0.3843895402 1.6825333384
O 1.9322625759 0.2874536664 1.5508846667
C 2.9745028126 -0.6992334902 1.5263663755
C 4.2662166928 -0.0995950602 0.8668116827
C 4.583724278 -0.5496112037 -0.6198328415
C 3.3655994229 -0.9372311604 -1.5440431646
O 3.3815964582 -0.8661108832 -2.7940156916
O -4.5459701078 2.1229269761 -1.4439298947
O 2.2116964908 -1.311994488 -0.7908563079
O 2.8597093758 -1.8549341045 1.988901423
C 1.0421771544 -1.4831693312 -1.6912668543
C 4.3487107507 1.4856695215 0.7354929483
C 5.8716620061 1.8750091343 0.8695144553
C 6.4370862562 1.2843621933 -0.4762133365
C 5.1093250186 0.8315786651 -1.2036115727
O 4.0733953258 1.7635993733 -0.6930732792
H 5.1025515511 -0.4526114673 1.4984539959
H 5.3394634996 -1.3560295463 -0.6512071851
H 3.6447739412 2.0415756515 1.3836205918
H 5.9837398268 2.9707073978 0.9042196019
H 6.3451570473 1.4400454166 1.7642105531
H 6.9611462176 2.0499773543 -1.0696561658
H 7.1236234504 0.4381789968 -0.3111214174
H 5.1385398176 0.8506731994 -2.3106026589
O -1.0568142219 0.7059060809 -0.9154392372
C -4.4681629967 3.5715453209 -1.1438435741
C -5.2334119866 -1.0310343361 0.4556520035
C -5.555394363 -2.4321208316 -0.1977659154
C -4.1350953817 -3.1096731331 -0.1737604013
C -3.2678998042 -1.9807065062 0.5124785026
O -4.2039406573 -1.3498260855 1.4701355663
H -4.8867258213 -0.2495993065 -1.6253614655
H -2.7362228846 -1.2440282146 -1.5451201531
H -3.5034967994 3.8364601346 -0.664965733
H -6.0930989568 -0.5173788987 0.9279053455
H -6.2779429214 -2.9878936663 0.4208133455
H -5.9640842848 -2.3332223005 -1.2161496836
H -4.1329079063 -4.0231962474 0.4416033951
H -3.7669253191 -3.3605745411 -1.1813307405
H -2.3578772513 -2.3326546796 1.0350933842
H -5.2928733704 3.8954512289 -0.4764810374
H -4.5533693256 4.0901221315 -2.1163591609
H 0.5452520382 -2.4365943886 -1.4286808169
H 1.3925073778 -1.5037844235 -2.7423348223
H 0.3357046144 -0.6347720863 -1.5434493532
H 0.5645021726 -0.9977410498 2.6078977954
H 0.4486404297 -1.055904658 0.8159218031
H -0.5930700314 1.1661110137 2.7214690844
H -0.1365472489 1.5634802736 1.0100146555
$end

$rem
JOBTYPE                   OPT
METHOD                    B3LYP
DFT_D                     d3_op
BASIS                     STO-3G
GEOM_OPT_MAX_CYCLES       100
GEOM_OPT_TOL_GRADIENT     300
GEOM_OPT_TOL_DISPLACEMENT 1200
GEOM_OPT_TOL_ENERGY       100
SYMMETRY                  False
THRESH                    12
SCF_CONVERGENCE           8
MAX_SUB_FILE_NUM          128
MEM_STATIC                400
MEM_TOTAL                 4000
$end
--------------------------------------------------------------

   16   -1510.2733454156      5.38E-09 Convergence criterion met
 Total energy in the final basis set = -1510.27334542
   15   -1510.2750696576      3.56E-09 Convergence criterion met
 Total energy in the final basis set = -1510.27506966
   14   -1510.2770770073      6.70E-09 Convergence criterion met
 Total energy in the final basis set = -1510.27707701
   14   -1510.2799625272      7.37E-09 Convergence criterion met
 Total energy in the final basis set = -1510.27996253
   13   -1510.2817376481      5.28E-09 Convergence criterion met
 Total energy in the final basis set = -1510.28173765
   14   -1510.2829486288      3.13E-09 Convergence criterion met
 Total energy in the final basis set = -1510.28294863
   13   -1510.2839825577      6.14E-09 Convergence criterion met
 Total energy in the final basis set = -1510.28398256
   14   -1510.2847966513      4.33E-09 Convergence criterion met
   11   -1510.2996659257      5.05E-09 Convergence criterion met
 Total energy in the final basis set = -1510.29966593
   11   -1510.2996706930      4.43E-09 Convergence criterion met
 Total energy in the final basis set = -1510.29967069
   11   -1510.2996689363      8.29E-09 Convergence criterion met
 Total energy in the final basis set = -1510.29966894
   11   -1510.2996732073      3.36E-09 Convergence criterion met
 Total energy in the final basis set = -1510.29967321
   11   -1510.2996720136      2.26E-09 Convergence criterion met
 Total energy in the final basis set = -1510.29967201
    9   -1510.2996731780      3.65E-09 Convergence criterion met
 Total energy in the final basis set = -1510.29967318

             Standard Nuclear Orientation (Angstroms)
    I     Atom           X                Y                Z
 ----------------------------------------------------------------
    1      O      -3.6200487704     2.2605849450     0.0980955703
    2      C      -3.3191983808     1.2640476796    -0.5920634069
    3      C      -4.0876392445    -0.1014841155    -0.7053178214
    4      C      -3.1605578292    -1.3605408305    -0.4234825471
    5      C      -1.6835565583    -0.9696789766    -0.0775751155
    6      O      -1.6903140642    -0.1789564170     1.1120437659
    7      C      -0.3214182558     0.2856052481     1.4456402182
    8      C       0.5688904736    -0.8426153765     2.0979276094
    9      O       1.9908524951    -0.4620780473     1.9091990858
   10      C       2.5466789651    -1.1728979545     0.7964134281
   11      C       3.9259009976    -0.5356367209     0.4024132357
   12      C       3.7789507648     0.4798777839    -0.8206295888
   13      C       2.3074097539     0.5934705563    -1.3472523764
   14      O       1.3705192991     1.2434787982    -0.8182490960
   15      O      -2.1788099361     1.1738088546    -1.4519964849
   16      O       2.1922410861    -0.1691573351    -2.5364704066
   17      O       1.9867884629    -2.1348994555     0.2242207770
   18      C       0.7812312729    -0.2107121430    -3.0055216257
   19      C       4.5158300497     0.4276666564     1.5127848504
   20      C       6.0225525553     0.7410961722     1.1513453282
   21      C       5.8479389259     1.7693820288    -0.0277092697
   22      C       4.2754544115     1.8289742068    -0.1465425399
   23      O       3.8177840971     1.7091614802     1.2557798864
   24      H       4.6202843774    -1.3536652927     0.1396191923
   25      H       4.4210082366     0.1721448106    -1.6646120566
   26      H       4.3354852632     0.0914661370     2.5514686682
   27      H       6.5398194440     1.1948943686     2.0115470174
   28      H       6.5713492956    -0.1643450992     0.8466091484
   29      H       6.2492199865     2.7602397138     0.2385113448
   30      H       6.3258988857     1.4342703535    -0.9620333242
   31      H       3.8665932999     2.7482689142    -0.6086289240
   32      O      -0.6472241041    -1.3053315307    -0.6964192617
   33      C      -1.3466634657     2.3992270017    -1.3803018552
   34      C      -5.1796635021    -0.2629977645     0.4280493367
   35      C      -6.1512139374    -1.4384182156     0.0204167700
   36      C      -5.2392581313    -2.6931027128     0.2910366193
   37      C      -3.9188627825    -2.0035645840     0.8186310188
   38      O      -4.4150120594    -0.8269468721     1.5658178147
   39      H      -4.5340323959    -0.1659694167    -1.7149164865
   40      H      -3.1314321839    -2.0446266518    -1.2894255904
   41      H      -1.6737989610     3.0270972318    -0.5285669483
   42      H      -5.6646475848     0.6878566252     0.7229565549
   43      H      -7.0425438375    -1.4421894490     0.6675309376
   44      H      -6.4763605084    -1.3664173718    -1.0297701233
   45      H      -5.6689355747    -3.3450057387     1.0681590133
   46      H      -5.0604308043    -3.2948404400    -0.6146260697
   47      H      -3.2831865553    -2.6363536165     1.4680077625
   48      H      -1.4608915946     2.9731222107    -2.3216350394
   49      H      -0.2899103631     2.0730501175    -1.2537251990
   50      H       0.7840534338    -0.8736441871    -3.8893603670
   51      H       0.4282957834     0.7972903430    -3.3015573440
   52      H       0.1190932343    -0.6284238592    -2.2089378026
   53      H       0.3855388642    -0.9347125176     3.1866074606
   54      H       0.3860927934    -1.8136615057     1.5891090060
   55      H      -0.4638120872     1.1236132135     2.1550165640
   56      H       0.2147792837     0.6582681079     0.5388998861
 ----------------------------------------------------------------

    9   -1510.2996729288      2.73E-09 Convergence criterion met
 Total energy in the final basis set = -1510.29967293
 Final energy is   -1510.29967292883
 **  OPTIMIZATION CONVERGED  **

                    Orbital Energies (a.u.)
 --------------------------------------------------------------

 Alpha MOs
 -- Occupied --
-18.943 -18.932 -18.930 -18.924 -18.888 -18.885 -18.883 -18.876
-18.874 -18.872 -10.109 -10.101 -10.098 -10.095 -10.061 -10.060
-10.060 -10.059 -10.055 -10.053 -10.046 -10.041 -10.039 -10.038
-10.036 -10.035 -10.022 -10.020 -10.019 -10.018  -1.018  -1.013
 -1.008  -1.000  -0.970  -0.967  -0.941  -0.937  -0.932  -0.930
 -0.765  -0.761  -0.726  -0.722  -0.711  -0.704  -0.688  -0.658
 -0.649  -0.612  -0.595  -0.578  -0.548  -0.543  -0.538  -0.535
 -0.514  -0.507  -0.480  -0.476  -0.462  -0.460  -0.451  -0.441
 -0.433  -0.431  -0.426  -0.418  -0.412  -0.406  -0.401  -0.397
 -0.380  -0.378  -0.368  -0.366  -0.362  -0.359  -0.352  -0.349
 -0.343  -0.337  -0.332  -0.329  -0.326  -0.323  -0.317  -0.311
 -0.308  -0.305  -0.303  -0.301  -0.291  -0.286  -0.282  -0.279
 -0.271  -0.259  -0.245  -0.241  -0.237  -0.234  -0.231  -0.190
 -0.176  -0.170  -0.161  -0.159  -0.156  -0.151  -0.148  -0.144
 -0.141

          Ground-State Mulliken Net Atomic Charges

     Atom                 Charge (a.u.)
  ----------------------------------------
      1 O                    -0.211543
      2 C                     0.214256
      3 C                    -0.077699
      4 C                    -0.078699
      5 C                     0.219283
      6 O                    -0.168052
      7 C                    -0.062351
      8 C                    -0.057091
      9 O                    -0.168951
     10 C                     0.205220
     11 C                    -0.077311
     12 C                    -0.078436
     13 C                     0.219295
     14 O                    -0.221592
     15 O                    -0.178964
     16 O                    -0.161379
     17 O                    -0.206886
     18 C                    -0.143365
     19 C                     0.026015
     20 C                    -0.144425
     21 C                    -0.143690
     22 C                     0.025457
     23 O                    -0.184614
     24 H                     0.085992
     25 H                     0.087909
     26 H                     0.089320
     27 H                     0.078208
     28 H                     0.073389
     29 H                     0.078402
     30 H                     0.073711
     31 H                     0.084288
     32 O                    -0.218863
     33 C                    -0.150967
     34 C                     0.024392
     35 C                    -0.144037
     36 C                    -0.143904
     37 C                     0.026168
     38 O                    -0.185329
     39 H                     0.083825
     40 H                     0.084346
     41 H                     0.094688
     42 H                     0.090248
     43 H                     0.077962
     44 H                     0.072764
     45 H                     0.077720
     46 H                     0.073286
     47 H                     0.082289
     48 H                     0.075172
     49 H                     0.109807
     50 H                     0.086860
     51 H                     0.081486
     52 H                     0.119853
     53 H                     0.085796
     54 H                     0.100242
     55 H                     0.089634
     56 H                     0.110868
  ----------------------------------------
  Sum of atomic charges =     0.000000

                    Cartesian Multipole Moments
 -----------------------------------------------------------------
    Charge (ESU x 10^10)
                 0.0000
    Dipole Moment (Debye)
         X       1.2557      Y      -0.9975      Z      -1.7516
       Tot       2.3748
    Quadrupole Moments (Debye-Ang)
        XX    -140.3851     XY       9.3565     YY    -162.3640
        XZ       6.5480     YZ      -6.5139     ZZ    -157.9328

 Total job time:  193.16s(wall), 9195.81s(cpu)
        *  Thank you very much for using Q-Chem.  Have a nice day.  *
