 Q-Chem 5.0, Q-Chem, Inc., Pleasanton, CA (2017)
 Q-Chem 5.0.1 for Intel X86 EM64T Linux

User input:
--------------------------------------------------------------
$molecule
0  1
O -3.94934 -3.66094 2.70899
C -3.26408 -4.56952 2.26188
C -3.36658 -6.02376 2.66595
C -2.79013 -6.41445 4.03669
C -2.33571 -5.27825 4.92588
O -3.39541 -4.79496 5.63923
C -3.00216 -4.04222 6.79162
C -2.67451 -4.98247 7.94691
O -1.81056 -4.32224 8.88531
C -1.44698 -5.06105 9.96286
C -0.19022 -4.55239 10.62806
C 1.07281 -5.378 10.34272
C 0.97978 -6.34837 9.18237
O 1.92421 -6.75565 8.52151
O -2.42609 -4.29973 1.22607
O -0.13278 -7.12478 9.10346
O -2.05926 -6.04945 10.35058
C -0.33963 -8.13259 8.18161
C 0.2929 -3.15797 10.14885
C 1.16441 -2.51274 11.22579
C 2.40537 -3.37266 11.13531
C 2.04044 -4.25061 9.93372
O 1.22679 -3.4285 9.13539
H -0.42679 -4.45573 11.71146
H 1.42328 -5.95697 11.22479
H -0.53315 -2.46266 9.88369
H 1.41619 -1.48879 10.86654
H 0.70882 -2.44111 12.23677
H 3.27144 -2.71507 10.8994
H 2.62533 -3.98751 12.03492
H 2.966 -4.63325 9.45009
O -1.15705 -5.10132 5.21412
C -2.23541 -3.04498 0.68617
C -4.8147 -6.52643 2.80476
C -4.86043 -8.04156 2.60929
C -4.20914 -8.51382 3.89413
C -4.00591 -7.17545 4.61338
O -5.09536 -6.39484 4.17778
H -2.84877 -6.60352 1.86706
H -1.9118 -7.08962 3.92278
H -1.84087 -2.352 1.45985
H -5.51937 -6.02339 2.10693
H -5.93214 -8.34389 2.62423
H -4.38873 -8.41134 1.67352
H -4.94196 -9.14153 4.4484
H -3.2542 -9.06831 3.76786
H -3.91899 -7.33542 5.71087
H -3.19291 -2.65189 0.28238
H -1.49991 -3.11293 -0.14142
H -1.34119 -8.57855 8.3501
H 0.42945 -8.92556 8.29759
H -0.30266 -7.71933 7.15065
H -3.61419 -5.3607 8.40761
H -2.10684 -5.85109 7.54942
H -3.81827 -3.35904 7.10796
H -2.13655 -3.38205 6.54964
$end

$opt
CONSTRAINT
tors           1           2           3           4     -74.692
tors           3           4           5           6     +85.460
tors           4           5           6           7    +160.895
tors           5           6           7           8     -81.688
tors           6           7           8           9    +157.517
tors           7           8           9          10    +179.999
tors           8           9          10          11    +158.885
tors           9          10          11          12    -103.963
tors          11          12          13          14    +154.556
ENDCONSTRAINT
$end

$rem
JOBTYPE                   OPT
METHOD                    B3LYP
DFT_D                     d3_op
BASIS                     STO-3G
GEOM_OPT_MAX_CYCLES       100
GEOM_OPT_TOL_GRADIENT     300
GEOM_OPT_TOL_DISPLACEMENT 1200
GEOM_OPT_TOL_ENERGY       100
SYMMETRY                  False
THRESH                    12
SCF_CONVERGENCE           8
MAX_SUB_FILE_NUM          128
MEM_STATIC                400
MEM_TOTAL                 4000
$end
--------------------------------------------------------------

   15   -1510.1357944251      6.81E-09 Convergence criterion met
 Total energy in the final basis set = -1510.13579443
   13   -1510.2061184657      7.82E-09 Convergence criterion met
 Total energy in the final basis set = -1510.20611847
   14   -1510.2439192372      3.38E-09 Convergence criterion met
 Total energy in the final basis set = -1510.24391924
   14   -1510.2609143120      3.37E-09 Convergence criterion met
 Total energy in the final basis set = -1510.26091431
   13   -1510.2674073210      9.57E-09 Convergence criterion met
 Total energy in the final basis set = -1510.26740732
   14   -1510.2699711702      4.74E-09 Convergence criterion met
 Total energy in the final basis set = -1510.26997117
   13   -1510.2712500130      3.87E-09 Convergence criterion met
 Total energy in the final basis set = -1510.27125001
   12   -1510.2716635372      6.37E-09 Convergence criterion met
   11   -1510.2735623415      8.03E-09 Convergence criterion met
 Total energy in the final basis set = -1510.27356234
   11   -1510.2735761921      6.59E-09 Convergence criterion met
 Total energy in the final basis set = -1510.27357619
   11   -1510.2735849727      3.97E-09 Convergence criterion met
 Total energy in the final basis set = -1510.27358497
    9   -1510.2735931972      8.98E-09 Convergence criterion met
 Total energy in the final basis set = -1510.27359320
    9   -1510.2735990539      8.37E-09 Convergence criterion met
 Total energy in the final basis set = -1510.27359905
    9   -1510.2736005104      3.38E-09 Convergence criterion met
 Total energy in the final basis set = -1510.27360051

             Standard Nuclear Orientation (Angstroms)
    I     Atom           X                Y                Z
 ----------------------------------------------------------------
    1      O      -4.2956952878     1.8715556644     0.9006456630
    2      C      -4.4219967091     1.3638490711    -0.2342685327
    3      C      -4.4504704976    -0.1561072133    -0.6153643917
    4      C      -3.0108451121    -0.8365708500    -0.5556521773
    5      C      -1.8652516981     0.1493541956    -0.1344243519
    6      O      -1.7823311192     0.2198296670     1.2919580613
    7      C      -0.4603871008     0.7558812424     1.7016032387
    8      C       0.6172926587    -0.3843895402     1.6825333384
    9      O       1.9322625759     0.2874536664     1.5508846667
   10      C       2.9745028126    -0.6992334902     1.5263663755
   11      C       4.2662166928    -0.0995950602     0.8668116827
   12      C       4.5837242780    -0.5496112037    -0.6198328415
   13      C       3.3655994229    -0.9372311604    -1.5440431646
   14      O       3.3815964582    -0.8661108832    -2.7940156916
   15      O      -4.5459701078     2.1229269761    -1.4439298947
   16      O       2.2116964908    -1.3119944880    -0.7908563079
   17      O       2.8597093758    -1.8549341045     1.9889014230
   18      C       1.0421771544    -1.4831693312    -1.6912668543
   19      C       4.3487107507     1.4856695215     0.7354929483
   20      C       5.8716620061     1.8750091343     0.8695144553
   21      C       6.4370862562     1.2843621933    -0.4762133365
   22      C       5.1093250186     0.8315786651    -1.2036115727
   23      O       4.0733953258     1.7635993733    -0.6930732792
   24      H       5.1025515511    -0.4526114673     1.4984539959
   25      H       5.3394634996    -1.3560295463    -0.6512071851
   26      H       3.6447739412     2.0415756515     1.3836205918
   27      H       5.9837398268     2.9707073978     0.9042196019
   28      H       6.3451570473     1.4400454166     1.7642105531
   29      H       6.9611462176     2.0499773543    -1.0696561658
   30      H       7.1236234504     0.4381789968    -0.3111214174
   31      H       5.1385398176     0.8506731994    -2.3106026589
   32      O      -1.0568142219     0.7059060809    -0.9154392372
   33      C      -4.4681629967     3.5715453209    -1.1438435741
   34      C      -5.2334119866    -1.0310343361     0.4556520035
   35      C      -5.5553943630    -2.4321208316    -0.1977659154
   36      C      -4.1350953817    -3.1096731331    -0.1737604013
   37      C      -3.2678998042    -1.9807065062     0.5124785026
   38      O      -4.2039406573    -1.3498260855     1.4701355663
   39      H      -4.8867258213    -0.2495993065    -1.6253614655
   40      H      -2.7362228846    -1.2440282146    -1.5451201531
   41      H      -3.5034967994     3.8364601346    -0.6649657330
   42      H      -6.0930989568    -0.5173788987     0.9279053455
   43      H      -6.2779429214    -2.9878936663     0.4208133455
   44      H      -5.9640842848    -2.3332223005    -1.2161496836
   45      H      -4.1329079063    -4.0231962474     0.4416033951
   46      H      -3.7669253191    -3.3605745411    -1.1813307405
   47      H      -2.3578772513    -2.3326546796     1.0350933842
   48      H      -5.2928733704     3.8954512289    -0.4764810374
   49      H      -4.5533693256     4.0901221315    -2.1163591609
   50      H       0.5452520382    -2.4365943886    -1.4286808169
   51      H       1.3925073778    -1.5037844235    -2.7423348223
   52      H       0.3357046144    -0.6347720863    -1.5434493532
   53      H       0.5645021726    -0.9977410498     2.6078977954
   54      H       0.4486404297    -1.0559046580     0.8159218031
   55      H      -0.5930700314     1.1661110137     2.7214690844
   56      H      -0.1365472489     1.5634802736     1.0100146555
 ----------------------------------------------------------------

    8   -1510.2736003179      8.17E-09 Convergence criterion met
 Total energy in the final basis set = -1510.27360032
 Final energy is   -1510.27360031791
 **  OPTIMIZATION CONVERGED  **

                    Orbital Energies (a.u.)
 --------------------------------------------------------------

 Alpha MOs
 -- Occupied --
-18.941 -18.937 -18.935 -18.924 -18.891 -18.884 -18.883 -18.876
-18.873 -18.867 -10.107 -10.100 -10.098 -10.097 -10.073 -10.069
-10.064 -10.064 -10.062 -10.056 -10.056 -10.051 -10.043 -10.040
-10.040 -10.033 -10.023 -10.022 -10.019 -10.017  -1.019  -1.013
 -1.010  -1.002  -0.972  -0.968  -0.944  -0.936  -0.935  -0.930
 -0.767  -0.761  -0.728  -0.722  -0.715  -0.706  -0.693  -0.664
 -0.658  -0.615  -0.598  -0.582  -0.550  -0.542  -0.540  -0.535
 -0.517  -0.511  -0.488  -0.478  -0.465  -0.458  -0.456  -0.439
 -0.436  -0.434  -0.426  -0.414  -0.413  -0.409  -0.406  -0.401
 -0.394  -0.387  -0.376  -0.369  -0.360  -0.354  -0.354  -0.352
 -0.345  -0.340  -0.334  -0.332  -0.328  -0.327  -0.321  -0.311
 -0.310  -0.309  -0.305  -0.304  -0.294  -0.287  -0.282  -0.281
 -0.275  -0.256  -0.251  -0.249  -0.238  -0.237  -0.231  -0.184
 -0.178  -0.173  -0.168  -0.162  -0.157  -0.151  -0.148  -0.146
 -0.139

          Ground-State Mulliken Net Atomic Charges

     Atom                 Charge (a.u.)
  ----------------------------------------
      1 O                    -0.207187
      2 C                     0.203661
      3 C                    -0.078715
      4 C                    -0.078686
      5 C                     0.207685
      6 O                    -0.160783
      7 C                    -0.050211
      8 C                    -0.048561
      9 O                    -0.175887
     10 C                     0.217879
     11 C                    -0.081955
     12 C                    -0.075178
     13 C                     0.214736
     14 O                    -0.215944
     15 O                    -0.169385
     16 O                    -0.171434
     17 O                    -0.215382
     18 C                    -0.145320
     19 C                     0.023539
     20 C                    -0.142075
     21 C                    -0.145914
     22 C                     0.023861
     23 O                    -0.191323
     24 H                     0.081585
     25 H                     0.086710
     26 H                     0.089333
     27 H                     0.077385
     28 H                     0.072939
     29 H                     0.078449
     30 H                     0.073346
     31 H                     0.090192
     32 O                    -0.214554
     33 C                    -0.128979
     34 C                     0.026255
     35 C                    -0.143731
     36 C                    -0.144405
     37 C                     0.026695
     38 O                    -0.182038
     39 H                     0.087032
     40 H                     0.085409
     41 H                     0.090315
     42 H                     0.085592
     43 H                     0.078835
     44 H                     0.074068
     45 H                     0.078950
     46 H                     0.073316
     47 H                     0.084781
     48 H                     0.088591
     49 H                     0.091200
     50 H                     0.080247
     51 H                     0.102442
     52 H                     0.099208
     53 H                     0.089099
     54 H                     0.087480
     55 H                     0.094643
     56 H                     0.102191
  ----------------------------------------
  Sum of atomic charges =    -0.000000

                    Cartesian Multipole Moments
 -----------------------------------------------------------------
    Charge (ESU x 10^10)
                 0.0000
    Dipole Moment (Debye)
         X      -0.5751      Y      -0.4423      Z      -0.6015
       Tot       0.9424
    Quadrupole Moments (Debye-Ang)
        XX    -140.5622     XY       4.5917     YY    -155.6826
        XZ      12.2551     YZ       4.5241     ZZ    -168.4627

 Total job time:  80.39s(wall), 3828.09s(cpu)
        *  Thank you very much for using Q-Chem.  Have a nice day.  *
