 Q-Chem 5.0, Q-Chem, Inc., Pleasanton, CA (2017)
 Q-Chem 5.0.1 for Intel X86 EM64T Linux

User input:
--------------------------------------------------------------
$molecule
0  1
O -3.94934 -3.66094 2.70899
C -3.26408 -4.56952 2.26188
C -3.36658 -6.02376 2.66595
C -2.79013 -6.41445 4.03669
C -2.33571 -5.27825 4.92588
O -3.40955 -4.73933 5.57538
C -3.04977 -3.70104 6.49286
C -1.99947 -4.20854 7.47543
O -1.25568 -3.10279 8.01114
C -0.28846 -3.42864 8.90415
C 0.58528 -2.25543 9.2794
C 1.86065 -2.1028 8.43772
C 1.90086 -2.89873 7.1487
O 2.79847 -2.86027 6.31962
O -2.42374 -4.29905 1.22822
O 1.07903 -3.95973 6.92999
O -0.04572 -4.57395 9.26844
C 1.31228 -4.95238 5.98697
C -0.06099 -0.8687 9.03029
C 0.606 0.18226 9.91724
C 1.96018 0.2938 9.25065
C 1.74367 -0.62094 8.04044
O 0.37458 -0.49295 7.74873
H 0.76884 -2.33028 10.37477
H 2.79157 -2.33238 9.00051
H -1.16015 -0.85581 9.19902
H 0.05333 1.13626 9.75849
H 0.62913 -0.04795 11.00408
H 2.10775 1.34899 8.92999
H 2.82261 -0.04381 9.86547
H 2.44214 -0.34506 7.21936
O -1.32274 -4.64256 4.66249
C -2.22986 -3.04337 0.69173
C -4.81619 -6.52002 2.79657
C -4.86651 -8.037 2.61601
C -4.2358 -8.49787 3.91459
C -4.02253 -7.15148 4.61507
O -5.10436 -6.369 4.1646
H -2.84453 -6.6028 1.86967
H -1.92475 -7.10977 3.95818
H -1.83544 -2.35311 1.46794
H -5.5125 -6.02089 2.08756
H -5.93865 -8.33791 2.61702
H -4.37988 -8.41439 1.69096
H -4.98505 -9.10258 4.47262
H -3.29007 -9.07181 3.80769
H -3.94527 -7.29773 5.71514
H -3.18592 -2.64757 0.28721
H -1.49298 -3.11063 -0.13469
H 0.53784 -5.73985 6.05459
H 2.29068 -5.44026 6.18541
H 1.31498 -4.52163 4.96296
H -2.5117 -4.78987 8.27402
H -1.2666 -4.89469 7.03246
H -3.93544 -3.28917 7.02058
H -2.60724 -2.86938 5.89799
$end

$opt
CONSTRAINT
tors           1           2           3           4     -74.692
tors           3           4           5           6     +81.630
tors           4           5           6           7    +176.877
tors           5           6           7           8     -54.438
tors           6           7           8           9    +156.631
tors           7           8           9          10    +179.873
tors           8           9          10          11    +171.734
tors           9          10          11          12     -92.973
tors          11          12          13          14    +176.408
ENDCONSTRAINT
$end

$rem
JOBTYPE                   OPT
METHOD                    B3LYP
DFT_D                     d3_op
BASIS                     STO-3G
GEOM_OPT_MAX_CYCLES       100
GEOM_OPT_TOL_GRADIENT     300
GEOM_OPT_TOL_DISPLACEMENT 1200
GEOM_OPT_TOL_ENERGY       100
SYMMETRY                  False
THRESH                    12
SCF_CONVERGENCE           8
MAX_SUB_FILE_NUM          128
MEM_STATIC                400
MEM_TOTAL                 4000
$end
--------------------------------------------------------------

   16   -1510.1242417772      2.55E-09 Convergence criterion met
 Total energy in the final basis set = -1510.12424178
   14   -1510.1981378739      6.41E-09 Convergence criterion met
 Total energy in the final basis set = -1510.19813787
   14   -1510.2371234462      2.24E-09 Convergence criterion met
 Total energy in the final basis set = -1510.23712345
   15   -1510.2556525726      2.20E-09 Convergence criterion met
 Total energy in the final basis set = -1510.25565257
   13   -1510.2663942283      8.75E-09 Convergence criterion met
 Total energy in the final basis set = -1510.26639423
   13   -1510.2712585927      4.00E-09 Convergence criterion met
 Total energy in the final basis set = -1510.27125859
    2   -1510.2712585927      1.63E-09 Convergence criterion met
 Total energy in the final basis set = -1510.27125859
   13   -1510.2739841604      4.02E-09 Convergence criterion met
   11   -1510.2785389231      8.54E-09 Convergence criterion met
 Total energy in the final basis set = -1510.27853892
   11   -1510.2785541366      8.63E-09 Convergence criterion met
 Total energy in the final basis set = -1510.27855414
    9   -1510.2785617416      8.22E-09 Convergence criterion met
 Total energy in the final basis set = -1510.27856174
    9   -1510.2785699711      9.90E-09 Convergence criterion met
 Total energy in the final basis set = -1510.27856997
   11   -1510.2785832386      4.53E-09 Convergence criterion met
 Total energy in the final basis set = -1510.27858324
    9   -1510.2785876265      7.16E-09 Convergence criterion met
 Total energy in the final basis set = -1510.27858763

             Standard Nuclear Orientation (Angstroms)
    I     Atom           X                Y                Z
 ----------------------------------------------------------------
    1      O      -3.1567912259     1.4981038558     1.7677498324
    2      C      -3.5967069836     1.6136327561     0.6037550910
    3      C      -4.4157931567     0.5685844024    -0.2304399937
    4      C      -3.5258221288    -0.6361105038    -0.7767070502
    5      C      -2.0121794869    -0.4988006922    -0.3843602363
    6      O      -1.8382549721    -0.9696296575     0.9467751895
    7      C      -0.4255382089    -0.9574024303     1.4067955149
    8      C       0.6049400324    -1.7228408259     0.4940732874
    9      O       1.9186680027    -1.1093144634     0.8009304351
   10      C       2.9501129463    -1.7345520608     0.0218434826
   11      C       4.2870720978    -0.9272613451     0.2085902399
   12      C       4.5880532562     0.2108891489    -0.8589854238
   13      C       3.5036953050     0.5462196215    -1.9464789317
   14      O       3.6075898639     1.4635892590    -2.7926810394
   15      O      -3.3968684967     2.7719339617    -0.2165904559
   16      O       2.3726854183    -0.3096147614    -1.8358943357
   17      O       2.8047907534    -2.8066328825    -0.6040780710
   18      C       1.3413502460     0.0233965145    -2.8492361712
   19      C       4.3233182876    -0.0863130296     1.5578143949
   20      C       5.8314188731     0.2271662847     1.9085119563
   21      C       6.1650599061     1.3356109868     0.8424437576
   22      C       4.7793516975     1.4690688319     0.0981325929
   23      O       3.7807880343     1.2345144652     1.1644156895
   24      H       5.1038428232    -1.6715216330     0.1840337927
   25      H       5.5260731247    -0.0088640647    -1.4014612159
   26      H       3.7249625279    -0.5198196418     2.3815830124
   27      H       5.9127895285     0.6182439351     2.9352717531
   28      H       6.4750619410    -0.6622742388     1.8178953881
   29      H       6.4383081144     2.2890198202     1.3218231975
   30      H       6.9753720237     1.0399534993     0.1570915673
   31      H       4.6009991636     2.4411647920    -0.4017211037
   32      O      -1.1152119169    -0.0007173074    -1.1024376681
   33      C      -2.5754230016     3.7693892677     0.5088084055
   34      C      -5.4617763940    -0.2227624737     0.6656366769
   35      C      -6.4884069316    -0.9447097463    -0.2941268604
   36      C      -5.6112816341    -2.1327631887    -0.8378913748
   37      C      -4.2449672787    -1.8719092690    -0.0880732591
   38      O      -4.6665634073    -1.3378808570     1.2266018754
   39      H      -4.9035729209     1.1032284936    -1.0644202581
   40      H      -3.5764909310    -0.6861279643    -1.8789207151
   41      H      -1.5614418261     3.3772036689     0.7292562445
   42      H      -5.9125456361     0.3767540478     1.4798684404
   43      H      -7.3546982403    -1.3122058404     0.2785734255
   44      H      -6.8510069521    -0.2801155343    -1.0945498734
   45      H      -6.0274592523    -3.1092916210    -0.5435762271
   46      H      -5.4967806924    -2.1132594263    -1.9334961882
   47      H      -3.6006006808    -2.7622274100     0.0441498095
   48      H      -3.0503620601     4.0726051230     1.4640129000
   49      H      -2.4946941405     4.6449020336    -0.1610773593
   50      H       0.3671423352     0.1004223156    -2.3206405900
   51      H       1.3024099862    -0.7875833113    -3.6033989576
   52      H       1.6090003607     0.9779743849    -3.3439304220
   53      H       0.6040249601    -2.8132952998     0.7089531662
   54      H       0.3558440675    -1.5715413757    -0.5758369333
   55      H      -0.4597481536    -1.4033450096     2.4201898214
   56      H      -0.0719632658     0.0945869989     1.4960079689
 ----------------------------------------------------------------

    9   -1510.2785869373      9.96E-09 Convergence criterion met
 Total energy in the final basis set = -1510.27858694
 Final energy is   -1510.27858693731
 **  OPTIMIZATION CONVERGED  **

                    Orbital Energies (a.u.)
 --------------------------------------------------------------

 Alpha MOs
 -- Occupied --
-18.945 -18.935 -18.933 -18.921 -18.890 -18.884 -18.884 -18.876
-18.866 -18.860 -10.111 -10.098 -10.096 -10.093 -10.074 -10.065
-10.063 -10.063 -10.062 -10.057 -10.055 -10.042 -10.042 -10.040
-10.036 -10.032 -10.023 -10.022 -10.018 -10.017  -1.020  -1.010
 -1.009  -0.998  -0.972  -0.967  -0.946  -0.935  -0.930  -0.926
 -0.766  -0.759  -0.728  -0.721  -0.713  -0.705  -0.692  -0.663
 -0.651  -0.615  -0.597  -0.583  -0.550  -0.540  -0.540  -0.534
 -0.516  -0.509  -0.487  -0.472  -0.464  -0.459  -0.451  -0.441
 -0.434  -0.431  -0.425  -0.413  -0.410  -0.407  -0.404  -0.396
 -0.391  -0.383  -0.379  -0.366  -0.359  -0.357  -0.354  -0.347
 -0.344  -0.337  -0.333  -0.330  -0.328  -0.325  -0.318  -0.310
 -0.309  -0.308  -0.304  -0.303  -0.293  -0.287  -0.282  -0.280
 -0.274  -0.257  -0.250  -0.246  -0.236  -0.231  -0.230  -0.185
 -0.177  -0.172  -0.165  -0.159  -0.152  -0.151  -0.145  -0.144
 -0.138

          Ground-State Mulliken Net Atomic Charges

     Atom                 Charge (a.u.)
  ----------------------------------------
      1 O                    -0.207564
      2 C                     0.203287
      3 C                    -0.078620
      4 C                    -0.078223
      5 C                     0.213533
      6 O                    -0.158540
      7 C                    -0.047240
      8 C                    -0.051818
      9 O                    -0.173655
     10 C                     0.220229
     11 C                    -0.080883
     12 C                    -0.077848
     13 C                     0.211898
     14 O                    -0.220330
     15 O                    -0.169431
     16 O                    -0.169350
     17 O                    -0.220647
     18 C                    -0.147530
     19 C                     0.025719
     20 C                    -0.144342
     21 C                    -0.144162
     22 C                     0.025041
     23 O                    -0.189429
     24 H                     0.082090
     25 H                     0.085268
     26 H                     0.086702
     27 H                     0.077054
     28 H                     0.073004
     29 H                     0.077640
     30 H                     0.073600
     31 H                     0.086320
     32 O                    -0.218827
     33 C                    -0.129265
     34 C                     0.026279
     35 C                    -0.143963
     36 C                    -0.144175
     37 C                     0.026945
     38 O                    -0.182381
     39 H                     0.087097
     40 H                     0.085502
     41 H                     0.090264
     42 H                     0.085394
     43 H                     0.078563
     44 H                     0.073918
     45 H                     0.078601
     46 H                     0.073624
     47 H                     0.085241
     48 H                     0.089417
     49 H                     0.091186
     50 H                     0.112229
     51 H                     0.080383
     52 H                     0.097476
     53 H                     0.085114
     54 H                     0.096879
     55 H                     0.095653
     56 H                     0.097071
  ----------------------------------------
  Sum of atomic charges =    -0.000000

                    Cartesian Multipole Moments
 -----------------------------------------------------------------
    Charge (ESU x 10^10)
                 0.0000
    Dipole Moment (Debye)
         X      -1.1072      Y      -0.0004      Z      -0.2903
       Tot       1.1446
    Quadrupole Moments (Debye-Ang)
        XX    -138.5760     XY      -0.7528     YY    -159.4178
        XZ      13.7180     YZ       2.3483     ZZ    -165.0182

 Total job time:  71.39s(wall), 3264.39s(cpu)
        *  Thank you very much for using Q-Chem.  Have a nice day.  *
