 Q-Chem 5.0, Q-Chem, Inc., Pleasanton, CA (2017)
 Q-Chem 5.0.1 for Intel X86 EM64T Linux

User input:
--------------------------------------------------------------
$molecule
0  1
O -3.1567912259 1.4981038558 1.7677498324
C -3.5967069836 1.6136327561 0.603755091
C -4.4157931567 0.5685844024 -0.2304399937
C -3.5258221288 -0.6361105038 -0.7767070502
C -2.0121794869 -0.4988006922 -0.3843602363
O -1.8382549721 -0.9696296575 0.9467751895
C -0.4255382089 -0.9574024303 1.4067955149
C 0.6049400324 -1.7228408259 0.4940732874
O 1.9186680027 -1.1093144634 0.8009304351
C 2.9501129463 -1.7345520608 0.0218434826
C 4.2870720978 -0.9272613451 0.2085902399
C 4.5880532562 0.2108891489 -0.8589854238
C 3.503695305 0.5462196215 -1.9464789317
O 3.6075898639 1.463589259 -2.7926810394
O -3.3968684967 2.7719339617 -0.2165904559
O 2.3726854183 -0.3096147614 -1.8358943357
O 2.8047907534 -2.8066328825 -0.604078071
C 1.341350246 0.0233965145 -2.8492361712
C 4.3233182876 -0.0863130296 1.5578143949
C 5.8314188731 0.2271662847 1.9085119563
C 6.1650599061 1.3356109868 0.8424437576
C 4.7793516975 1.4690688319 0.0981325929
O 3.7807880343 1.2345144652 1.1644156895
H 5.1038428232 -1.671521633 0.1840337927
H 5.5260731247 -0.0088640647 -1.4014612159
H 3.7249625279 -0.5198196418 2.3815830124
H 5.9127895285 0.6182439351 2.9352717531
H 6.475061941 -0.6622742388 1.8178953881
H 6.4383081144 2.2890198202 1.3218231975
H 6.9753720237 1.0399534993 0.1570915673
H 4.6009991636 2.441164792 -0.4017211037
O -1.1152119169 -0.0007173074 -1.1024376681
C -2.5754230016 3.7693892677 0.5088084055
C -5.461776394 -0.2227624737 0.6656366769
C -6.4884069316 -0.9447097463 -0.2941268604
C -5.6112816341 -2.1327631887 -0.8378913748
C -4.2449672787 -1.871909269 -0.0880732591
O -4.6665634073 -1.337880857 1.2266018754
H -4.9035729209 1.1032284936 -1.0644202581
H -3.576490931 -0.6861279643 -1.8789207151
H -1.5614418261 3.3772036689 0.7292562445
H -5.9125456361 0.3767540478 1.4798684404
H -7.3546982403 -1.3122058404 0.2785734255
H -6.8510069521 -0.2801155343 -1.0945498734
H -6.0274592523 -3.109291621 -0.5435762271
H -5.4967806924 -2.1132594263 -1.9334961882
H -3.6006006808 -2.76222741 0.0441498095
H -3.0503620601 4.072605123 1.4640129
H -2.4946941405 4.6449020336 -0.1610773593
H 0.3671423352 0.1004223156 -2.32064059
H 1.3024099862 -0.7875833113 -3.6033989576
H 1.6090003607 0.9779743849 -3.343930422
H 0.6040249601 -2.8132952998 0.7089531662
H 0.3558440675 -1.5715413757 -0.5758369333
H -0.4597481536 -1.4033450096 2.4201898214
H -0.0719632658 0.0945869989 1.4960079689
$end

$rem
JOBTYPE                   OPT
METHOD                    B3LYP
DFT_D                     d3_op
BASIS                     STO-3G
GEOM_OPT_MAX_CYCLES       100
GEOM_OPT_TOL_GRADIENT     300
GEOM_OPT_TOL_DISPLACEMENT 1200
GEOM_OPT_TOL_ENERGY       100
SYMMETRY                  False
THRESH                    12
SCF_CONVERGENCE           8
MAX_SUB_FILE_NUM          128
MEM_STATIC                400
MEM_TOTAL                 4000
$end
--------------------------------------------------------------

   16   -1510.2787040029      4.81E-09 Convergence criterion met
 Total energy in the final basis set = -1510.27870400
   13   -1510.2793228005      8.06E-09 Convergence criterion met
 Total energy in the final basis set = -1510.27932280
   13   -1510.2812444123      4.87E-09 Convergence criterion met
 Total energy in the final basis set = -1510.28124441
   14   -1510.2805936865      6.68E-09 Convergence criterion met
 Total energy in the final basis set = -1510.28059369
   13   -1510.2817726204      5.38E-09 Convergence criterion met
 Total energy in the final basis set = -1510.28177262
   13   -1510.2824660700      8.52E-09 Convergence criterion met
 Total energy in the final basis set = -1510.28246607
   15   -1510.2826423334      2.05E-09 Convergence criterion met
 Total energy in the final basis set = -1510.28264233
   13   -1510.2842074452      6.43E-09 Convergence criterion met
   11   -1510.2996617620      4.57E-09 Convergence criterion met
 Total energy in the final basis set = -1510.29966176
   11   -1510.2996754130      7.51E-09 Convergence criterion met
 Total energy in the final basis set = -1510.29967541
   11   -1510.2996678116      4.03E-09 Convergence criterion met
 Total energy in the final basis set = -1510.29966781
   10   -1510.2996671746      8.22E-09 Convergence criterion met
 Total energy in the final basis set = -1510.29966717
   10   -1510.2996667481      5.36E-09 Convergence criterion met
 Total energy in the final basis set = -1510.29966675
   11   -1510.2996661590      2.45E-09 Convergence criterion met
 Total energy in the final basis set = -1510.29966616

             Standard Nuclear Orientation (Angstroms)
    I     Atom           X                Y                Z
 ----------------------------------------------------------------
    1      O      -3.4118863234     2.4053029841     1.0674195457
    2      C      -3.1921845002     1.7255193684     0.0430925874
    3      C      -4.0781835581     0.5795248503    -0.5640314277
    4      C      -3.2643528616    -0.7575216942    -0.8269813536
    5      C      -1.7744672411    -0.6625497789    -0.3512125539
    6      O      -1.7660146303    -0.3512776136     1.0431960724
    7      C      -0.3803905419    -0.1533625124     1.5344942151
    8      C       0.3875856646    -1.5106404411     1.7787125205
    9      O       1.8422689475    -1.2301942642     1.6913309824
   10      C       2.3353038079    -1.5943196345     0.3967107361
   11      C       3.7823390367    -1.0182314947     0.2027938519
   12      C       3.7774661756     0.3570998729    -0.6074181709
   13      C       2.3407024050     0.8241340558    -1.0239135602
   14      O       1.4673456371     1.3269183031    -0.2728813204
   15      O      -2.0543274688     1.8720893707    -0.8135808716
   16      O       2.1748816194     0.5906758720    -2.4125599584
   17      O       1.6864266287    -2.2565569825    -0.4438086922
   18      C       0.7786929178     0.8817311584    -2.8347918683
   19      C       4.4672076313    -0.5584962397     1.5556727596
   20      C       6.0071692197    -0.3346986927     1.2822064030
   21      C       5.9859260011     1.0349286995     0.5072089258
   22      C       4.4353940089     1.3313989106     0.4609643624
   23      O       3.9434971063     0.8127409534     1.7565485768
   24      H       4.3811706509    -1.7752947671    -0.3344488422
   25      H       4.3859090483     0.2730071569    -1.5249145335
   26      H       4.2272400534    -1.1952350981     2.4282770237
   27      H       6.5596933670    -0.2536609834     2.2316901124
   28      H       6.4445168288    -1.1527607720     0.6877063776
   29      H       6.5102995114     1.8250242750     1.0678661854
   30      H       6.4271915289     0.9626822988    -0.4996099993
   31      H       4.1575180889     2.3964925845     0.3413678510
   32      O      -0.7446538568    -0.8511465709    -1.0391456544
   33      C      -1.1101034597     2.8898518340    -0.2920770936
   34      C      -5.1837999886     0.0758534015     0.4513589290
   35      C      -6.2674650298    -0.7333338171    -0.3626644195
   36      C      -5.4776119684    -2.0585968745    -0.6785153192
   37      C      -4.1037359914    -1.7810772306     0.0532335994
   38      O      -4.4907215249    -0.9754064629     1.2328578864
   39      H      -4.5294802237     0.9499125662    -1.5030407456
   40      H      -3.2614663364    -1.0330598560    -1.8959233450
   41      H      -1.3825942208     3.1596959974     0.7469230654
   42      H      -5.5703970251     0.8662108080     1.1238378302
   43      H      -7.1520925538    -0.9311418092     0.2634403634
   44      H      -6.5894215238    -0.2015971651    -1.2722277912
   45      H      -5.9744776290    -2.9396912935    -0.2421486263
   46      H      -5.3442525095    -2.2280863656    -1.7591047512
   47      H      -3.5452123918    -2.6846440656     0.3658755994
   48      H      -1.1595797495     3.7956847162    -0.9289147000
   49      H      -0.0911169773     2.4442608857    -0.3338654310
   50      H       0.0613680657     0.2609715547    -2.2454444744
   51      H       0.7320296496     0.6135300805    -3.9055443400
   52      H       0.5382467415     1.9566544633    -2.7123832550
   53      H       0.1842072967    -1.9234993699     2.7862925337
   54      H       0.1148864207    -2.2497992219     0.9947582391
   55      H      -0.4872426367     0.4066277364     2.4836410742
   56      H       0.2252845527     0.4502326268     0.8151014303
 ----------------------------------------------------------------

    9   -1510.2996655342      5.08E-09 Convergence criterion met
 Total energy in the final basis set = -1510.29966553
 Final energy is   -1510.29966553417
 **  OPTIMIZATION CONVERGED  **

                    Orbital Energies (a.u.)
 --------------------------------------------------------------

 Alpha MOs
 -- Occupied --
-18.943 -18.931 -18.930 -18.924 -18.888 -18.885 -18.883 -18.875
-18.874 -18.871 -10.109 -10.101 -10.097 -10.095 -10.061 -10.060
-10.060 -10.059 -10.055 -10.052 -10.046 -10.040 -10.039 -10.038
-10.036 -10.034 -10.021 -10.020 -10.019 -10.018  -1.017  -1.012
 -1.008  -1.000  -0.970  -0.967  -0.941  -0.937  -0.931  -0.930
 -0.764  -0.761  -0.726  -0.722  -0.711  -0.704  -0.688  -0.659
 -0.649  -0.612  -0.595  -0.578  -0.548  -0.543  -0.538  -0.535
 -0.514  -0.507  -0.480  -0.477  -0.461  -0.460  -0.451  -0.441
 -0.433  -0.431  -0.427  -0.418  -0.412  -0.406  -0.401  -0.397
 -0.381  -0.378  -0.368  -0.366  -0.362  -0.359  -0.352  -0.350
 -0.343  -0.337  -0.332  -0.329  -0.325  -0.323  -0.317  -0.310
 -0.308  -0.305  -0.303  -0.301  -0.291  -0.286  -0.281  -0.279
 -0.271  -0.259  -0.245  -0.242  -0.236  -0.234  -0.231  -0.190
 -0.176  -0.170  -0.160  -0.159  -0.156  -0.151  -0.147  -0.144
 -0.141

          Ground-State Mulliken Net Atomic Charges

     Atom                 Charge (a.u.)
  ----------------------------------------
      1 O                    -0.212079
      2 C                     0.214711
      3 C                    -0.077929
      4 C                    -0.078411
      5 C                     0.219403
      6 O                    -0.168050
      7 C                    -0.062923
      8 C                    -0.056629
      9 O                    -0.168870
     10 C                     0.205499
     11 C                    -0.077499
     12 C                    -0.078426
     13 C                     0.219612
     14 O                    -0.221394
     15 O                    -0.179354
     16 O                    -0.161619
     17 O                    -0.207024
     18 C                    -0.143191
     19 C                     0.026100
     20 C                    -0.144391
     21 C                    -0.143748
     22 C                     0.025561
     23 O                    -0.184531
     24 H                     0.085884
     25 H                     0.087945
     26 H                     0.089210
     27 H                     0.078183
     28 H                     0.073404
     29 H                     0.078380
     30 H                     0.073779
     31 H                     0.083902
     32 O                    -0.218495
     33 C                    -0.150390
     34 C                     0.024577
     35 C                    -0.143761
     36 C                    -0.144029
     37 C                     0.025862
     38 O                    -0.185305
     39 H                     0.083666
     40 H                     0.084445
     41 H                     0.094638
     42 H                     0.090409
     43 H                     0.077908
     44 H                     0.072668
     45 H                     0.077692
     46 H                     0.073285
     47 H                     0.082261
     48 H                     0.075422
     49 H                     0.109293
     50 H                     0.119157
     51 H                     0.086636
     52 H                     0.081642
     53 H                     0.086047
     54 H                     0.099713
     55 H                     0.089212
     56 H                     0.111940
  ----------------------------------------
  Sum of atomic charges =     0.000000

                    Cartesian Multipole Moments
 -----------------------------------------------------------------
    Charge (ESU x 10^10)
                 0.0000
    Dipole Moment (Debye)
         X       1.1484      Y      -0.3626      Z      -2.0435
       Tot       2.3719
    Quadrupole Moments (Debye-Ang)
        XX    -139.4045     XY       3.8841     YY    -158.6960
        XZ       8.4432     YZ      -7.0957     ZZ    -162.9596

 Total job time:  178.56s(wall), 8280.15s(cpu)
        *  Thank you very much for using Q-Chem.  Have a nice day.  *
