 Q-Chem 5.0, Q-Chem, Inc., Pleasanton, CA (2017)
 Q-Chem 5.0.1 for Intel X86 EM64T Linux

User input:
--------------------------------------------------------------
$molecule
0  1
O -3.3125811289 1.454883252 1.8153711161
C -3.7525592867 1.5709729022 0.6510561975
C -4.4464728466 0.476376079 -0.2308067055
C -3.4265818829 -0.6275239515 -0.7608099848
C -1.9645932919 -0.3831793888 -0.2397286259
O -1.7307287597 -1.1687280376 0.9260009705
C -0.3164266672 -1.0731935834 1.3677517743
C 0.6869500807 -1.7555938921 0.3664003059
O 2.0024543567 -1.1252770323 0.6216385885
C 2.9914533652 -1.6974106072 -0.2481782833
C 4.342957956 -0.9213528748 -0.0570521218
C 4.5061901128 0.4294569082 -0.8766445141
C 3.3061740125 0.9326070847 -1.7589889455
O 3.2521125027 2.0563563305 -2.3087376187
O -3.6721670488 2.7746137951 -0.1210190299
O 2.3056141803 -0.0709284087 -1.896428842
O 2.8050188028 -2.7158773496 -0.9483885723
C 1.1486583625 0.4264047765 -2.6816702685
C 4.5338451955 -0.3875919135 1.4289057988
C 6.0697454835 -0.0930760671 1.6582359328
C 6.2480961081 1.2386441464 0.839670039
C 4.780847115 1.4634923836 0.3010552891
O 3.9246992845 0.9615394331 1.3987841153
H 5.1497489897 -1.6224887431 -0.3355341426
H 5.3851451552 0.3628893986 -1.5445202532
H 4.0508734386 -1.012177811 2.204559021
H 6.2759600204 0.0601621213 2.7294846252
H 6.7093382419 -0.910147263 1.2879284935
H 6.5520113042 2.075431917 1.488473467
H 6.9800558514 1.1419905898 0.0218887085
H 4.5220913069 2.5096627525 0.0454877827
O -1.1325332832 0.4128814885 -0.7346094727
C -2.9631934408 3.8233165864 0.6490467289
C -5.4537687336 -0.4275314297 0.6008924611
C -6.3919468924 -1.1838818002 -0.4196800764
C -5.3983064444 -2.2565174757 -1.0021132429
C -4.0870868133 -1.943605176 -0.1762456595
O -4.5975712475 -1.5057749819 1.1435873102
H -4.9477055762 0.9845992366 -1.0733898445
H -3.3920777146 -0.6273380097 -1.8651793995
H -1.9330116777 3.5071599284 0.9115145912
H -5.9744250792 0.1015598862 1.4224439369
H -7.2310131189 -1.6591245396 0.1132050861
H -6.799302748 -0.5127605679 -1.1928047497
H -5.7447780754 -3.2818755665 -0.7976574644
H -5.241023823 -2.1466423891 -2.087103666
H -3.3867616655 -2.7923299253 -0.0581454903
H -3.5029623576 4.0779551031 1.5839957119
H -2.9221170673 4.7104476948 -0.0090995907
H 0.965579258 -0.2843680217 -3.5102291263
H 1.3894517686 1.4308872595 -3.0826827158
H 0.2579241095 0.4766231101 -2.0141056948
H 0.7269081513 -2.8548171545 0.52717476
H 0.3709897272 -1.5736002263 -0.6823160456
H -0.2872826671 -1.5688886594 2.3574694691
H -0.0176476277 -0.0082657228 1.4847310427
$end

$rem
JOBTYPE                   OPT
METHOD                    B3LYP
DFT_D                     d3_op
BASIS                     STO-3G
GEOM_OPT_MAX_CYCLES       100
GEOM_OPT_TOL_GRADIENT     300
GEOM_OPT_TOL_DISPLACEMENT 1200
GEOM_OPT_TOL_ENERGY       100
SYMMETRY                  False
THRESH                    12
SCF_CONVERGENCE           8
MAX_SUB_FILE_NUM          128
MEM_STATIC                400
MEM_TOTAL                 4000
$end
--------------------------------------------------------------

   16   -1510.2820574835      5.02E-09 Convergence criterion met
 Total energy in the final basis set = -1510.28205748
   13   -1510.2831323687      3.99E-09 Convergence criterion met
 Total energy in the final basis set = -1510.28313237
   13   -1510.2833210759      7.22E-09 Convergence criterion met
 Total energy in the final basis set = -1510.28332108
   13   -1510.2840145156      6.31E-09 Convergence criterion met
 Total energy in the final basis set = -1510.28401452
   14   -1510.2849405065      5.05E-09 Convergence criterion met
 Total energy in the final basis set = -1510.28494051
   13   -1510.2854403943      3.02E-09 Convergence criterion met
 Total energy in the final basis set = -1510.28544039
   14   -1510.2865839157      4.83E-09 Convergence criterion met
 Total energy in the final basis set = -1510.28658392
   14   -1510.2872384331      5.75E-09 Convergence criterion met
   12   -1510.2998450506      3.20E-09 Convergence criterion met
 Total energy in the final basis set = -1510.29984505
   11   -1510.2998685747      8.30E-09 Convergence criterion met
 Total energy in the final basis set = -1510.29986857
   11   -1510.2998798794      4.43E-09 Convergence criterion met
 Total energy in the final basis set = -1510.29987988
   11   -1510.2998869902      6.49E-09 Convergence criterion met
 Total energy in the final basis set = -1510.29988699
   11   -1510.2998845541      3.37E-09 Convergence criterion met
 Total energy in the final basis set = -1510.29988455
   10   -1510.2998864954      7.32E-09 Convergence criterion met
 Total energy in the final basis set = -1510.29988650

             Standard Nuclear Orientation (Angstroms)
    I     Atom           X                Y                Z
 ----------------------------------------------------------------
    1      O      -3.2902811065     2.0476038272     1.6223861101
    2      C      -3.1756738626     1.5770733706     0.4710243328
    3      C      -4.1371686156     0.5725105707    -0.2585900786
    4      C      -3.3849863060    -0.6830551991    -0.8732213912
    5      C      -1.8516088987    -0.6879409351    -0.5497393625
    6      O      -1.6948843236    -0.6801703064     0.8697639227
    7      C      -0.2654377525    -0.5885472079     1.2543729059
    8      C       0.5234711264    -1.9401671084     1.0600581954
    9      O       1.9695028279    -1.6091788568     1.1117055286
   10      C       2.5241559506    -1.6067180806    -0.2085099404
   11      C       3.9318447571    -0.9125551547    -0.1819335363
   12      C       3.8326319667     0.6210274957    -0.6146551653
   13      C       2.3661576030     1.0578891967    -0.9562267709
   14      O       1.4770320818     1.3897096541    -0.1319175477
   15      O      -2.1217021414     1.8938119020    -0.4446096199
   16      O       2.1869985585     1.0043169797    -2.3607840598
   17      O       1.9418769927    -2.0608916013    -1.2189453003
   18      C       0.7698847898     1.2744545168    -2.7239499132
   19      C       4.5325279377    -0.7661752315     1.2771920314
   20      C       6.0547742722    -0.3588574701     1.1520849470
   21      C       5.9342188755     1.1579838390     0.7500188699
   22      C       4.3664212712     1.3343553473     0.6984362896
   23      O       3.8814017747     0.4614141944     1.7907857569
   24      H       4.6039657694    -1.4642354993    -0.8631872086
   25      H       4.4691993937     0.8237233518    -1.4937720473
   26      H       4.3236193504    -1.6234835774     1.9448593972
   27      H       6.5671381263    -0.4814954576     2.1195350841
   28      H       6.5831221903    -0.9589954873     0.3941592226
   29      H       6.3687772467     1.8154218119     1.5197325960
   30      H       6.4108004404     1.3831338520    -0.2174693798
   31      H       3.9965382190     2.3683976695     0.8383755127
   32      O      -0.9062941975    -0.7315475285    -1.3705397396
   33      C      -1.1443145574     2.8303369017     0.1627039624
   34      C      -5.1430548776    -0.1271634766     0.7447559006
   35      C      -6.3238597714    -0.7494359825    -0.0969553059
   36      C      -5.6025900624    -1.9823570336    -0.7594963060
   37      C      -4.1540949310    -1.8644125972    -0.1371294992
   38      O      -4.3973567118    -1.3183897252     1.2162714053
   39      H      -4.6755635934     1.1270088220    -1.0496489770
   40      H      -3.4996321433    -0.7330439744    -1.9699092890
   41      H      -0.1280437499     2.3978617159     0.0238736505
   42      H      -5.4379772388     0.5088623538     1.6020456484
   43      H      -7.1420861682    -1.0712580867     0.5669662019
   44      H      -6.7284298184    -0.0420015537    -0.8384764868
   45      H      -6.0713757111    -2.9335159512    -0.4614672044
   46      H      -5.5876676418    -1.9257924779    -1.8597752587
   47      H      -3.5890514938    -2.8148350146    -0.0773026929
   48      H      -1.3742506044     2.9627976031     1.2381907956
   49      H      -1.2160315950     3.8089269950    -0.3521213588
   50      H       0.7226353464     1.1680902470    -3.8226149508
   51      H       0.4739796766     2.3043927156    -2.4407953682
   52      H       0.0867649608     0.5371253869    -2.2366266159
   53      H       0.3060978088    -2.6643442195     1.8700624515
   54      H       0.2906448429    -2.3828716088     0.0677858507
   55      H      -0.2736435235    -0.3031661740     2.3244119477
   56      H       0.2668126152     0.2024632393     0.6722686947
 ----------------------------------------------------------------

    9   -1510.2998869880      5.15E-09 Convergence criterion met
 Total energy in the final basis set = -1510.29988699
 Final energy is   -1510.29988698798
 **  OPTIMIZATION CONVERGED  **

                    Orbital Energies (a.u.)
 --------------------------------------------------------------

 Alpha MOs
 -- Occupied --
-18.944 -18.933 -18.931 -18.924 -18.888 -18.885 -18.884 -18.877
-18.875 -18.871 -10.110 -10.102 -10.099 -10.095 -10.061 -10.060
-10.060 -10.059 -10.055 -10.053 -10.047 -10.041 -10.040 -10.037
-10.036 -10.035 -10.022 -10.020 -10.019 -10.018  -1.019  -1.013
 -1.009  -1.000  -0.970  -0.967  -0.942  -0.937  -0.933  -0.930
 -0.765  -0.761  -0.727  -0.722  -0.711  -0.704  -0.688  -0.659
 -0.649  -0.612  -0.596  -0.578  -0.548  -0.544  -0.538  -0.535
 -0.514  -0.507  -0.481  -0.477  -0.463  -0.460  -0.452  -0.441
 -0.433  -0.432  -0.427  -0.418  -0.412  -0.406  -0.401  -0.397
 -0.380  -0.379  -0.369  -0.367  -0.363  -0.359  -0.352  -0.349
 -0.344  -0.337  -0.332  -0.329  -0.326  -0.323  -0.318  -0.311
 -0.308  -0.306  -0.303  -0.301  -0.292  -0.286  -0.283  -0.280
 -0.272  -0.259  -0.245  -0.241  -0.237  -0.234  -0.232  -0.191
 -0.177  -0.170  -0.161  -0.160  -0.156  -0.153  -0.148  -0.144
 -0.141

          Ground-State Mulliken Net Atomic Charges

     Atom                 Charge (a.u.)
  ----------------------------------------
      1 O                    -0.212333
      2 C                     0.214551
      3 C                    -0.077778
      4 C                    -0.078336
      5 C                     0.220569
      6 O                    -0.167308
      7 C                    -0.061536
      8 C                    -0.058254
      9 O                    -0.169146
     10 C                     0.205008
     11 C                    -0.077309
     12 C                    -0.078169
     13 C                     0.218218
     14 O                    -0.221632
     15 O                    -0.179021
     16 O                    -0.160986
     17 O                    -0.207742
     18 C                    -0.143767
     19 C                     0.026176
     20 C                    -0.144405
     21 C                    -0.143797
     22 C                     0.025460
     23 O                    -0.184566
     24 H                     0.086237
     25 H                     0.087889
     26 H                     0.089284
     27 H                     0.078344
     28 H                     0.073459
     29 H                     0.078453
     30 H                     0.073606
     31 H                     0.084848
     32 O                    -0.220247
     33 C                    -0.152020
     34 C                     0.024423
     35 C                    -0.143729
     36 C                    -0.144112
     37 C                     0.025995
     38 O                    -0.185272
     39 H                     0.083768
     40 H                     0.084647
     41 H                     0.109246
     42 H                     0.090659
     43 H                     0.077901
     44 H                     0.072758
     45 H                     0.077749
     46 H                     0.073322
     47 H                     0.082106
     48 H                     0.095308
     49 H                     0.075117
     50 H                     0.087614
     51 H                     0.081721
     52 H                     0.119694
     53 H                     0.085609
     54 H                     0.102166
     55 H                     0.090704
     56 H                     0.108862
  ----------------------------------------
  Sum of atomic charges =     0.000000

                    Cartesian Multipole Moments
 -----------------------------------------------------------------
    Charge (ESU x 10^10)
                 0.0000
    Dipole Moment (Debye)
         X       1.0320      Y       0.1716      Z      -1.9348
       Tot       2.1995
    Quadrupole Moments (Debye-Ang)
        XX    -136.6590     XY       3.1120     YY    -155.9018
        XZ       8.6000     YZ      -5.5864     ZZ    -167.4657

 Total job time:  206.04s(wall), 9821.76s(cpu)
        *  Thank you very much for using Q-Chem.  Have a nice day.  *
