 Q-Chem 5.0, Q-Chem, Inc., Pleasanton, CA (2017)
 Q-Chem 5.0.1 for Intel X86 EM64T Linux

User input:
--------------------------------------------------------------
$molecule
0  1
O -3.94934 -3.66094 2.70899
C -3.26408 -4.56952 2.26188
C -3.36658 -6.02376 2.66595
C -2.83607 -6.40539 4.05763
C -2.42537 -5.26259 4.95952
O -3.45505 -4.93881 5.79638
C -3.09909 -3.95392 6.77236
C -2.09917 -4.53603 7.76606
O -1.35841 -3.47681 8.39232
C -0.43863 -3.87063 9.30777
C 0.39385 -2.72634 9.83523
C 1.58904 -2.33526 8.95384
C 1.57366 -2.88035 7.53985
O 2.33962 -2.55217 6.64533
O -2.41191 -4.296 1.23871
O 1.00093 -4.0924 7.30348
O -0.4366 -4.97956 9.82814
C 1.26019 -4.89514 6.20501
C -0.35132 -1.38371 9.94742
C 0.35033 -0.48565 10.96518
C 1.61145 -0.12957 10.20499
C 1.32976 -0.81668 8.86408
O -0.06992 -0.73853 8.73098
H 0.74721 -3.0347 10.8458
H 2.58093 -2.57222 9.39742
H -1.42592 -1.49997 10.20872
H -0.26905 0.43322 11.07593
H 0.51214 -0.94175 11.96552
H 1.64148 0.97526 10.07546
H 2.56023 -0.48565 10.66166
H 1.92078 -0.33188 8.05574
O -1.43959 -4.56671 4.75659
C -2.21188 -3.03875 0.70818
C -4.81643 -6.52904 2.7357
C -4.84934 -8.04332 2.5386
C -4.25553 -8.5103 3.85076
C -4.08602 -7.16858 4.57387
O -5.15718 -6.39173 4.09245
H -2.80765 -6.59818 1.89159
H -1.96723 -7.0996 4.02563
H -1.8261 -2.35083 1.49078
H -5.48916 -6.02809 2.00539
H -5.91934 -8.35 2.504
H -4.33234 -8.41017 1.62585
H -5.01281 -9.13575 4.37404
H -3.29659 -9.06614 3.76897
H -4.05486 -7.3391 5.67272
H -3.16332 -2.64162 0.29417
H -1.46576 -3.10364 -0.11009
H 0.65023 -5.81883 6.26399
H 2.33168 -5.18774 6.19463
H 1.02235 -4.35425 5.26558
H -2.63928 -5.17462 8.50016
H -1.36494 -5.17984 7.2471
H -3.99526 -3.59366 7.32004
H -2.665 -3.06819 6.25343
$end

$opt
CONSTRAINT
tors           1           2           3           4     -72.543
tors           3           4           5           6     +95.738
tors           4           5           6           7    +174.129
tors           5           6           7           8     -68.157
tors           6           7           8           9    +157.517
tors           7           8           9          10    +179.599
tors           8           9          10          11    +174.652
tors           9          10          11          12     -83.278
tors          11          12          13          14    +170.484
ENDCONSTRAINT
$end

$rem
JOBTYPE                   OPT
METHOD                    B3LYP
DFT_D                     d3_op
BASIS                     STO-3G
GEOM_OPT_MAX_CYCLES       100
GEOM_OPT_TOL_GRADIENT     300
GEOM_OPT_TOL_DISPLACEMENT 1200
GEOM_OPT_TOL_ENERGY       100
SYMMETRY                  False
THRESH                    12
SCF_CONVERGENCE           8
MAX_SUB_FILE_NUM          128
MEM_STATIC                400
MEM_TOTAL                 4000
$end
--------------------------------------------------------------

   15   -1510.1386497581      6.46E-09 Convergence criterion met
 Total energy in the final basis set = -1510.13864976
   14   -1510.2109190922      7.90E-09 Convergence criterion met
 Total energy in the final basis set = -1510.21091909
   14   -1510.2498774968      9.29E-09 Convergence criterion met
 Total energy in the final basis set = -1510.24987750
   14   -1510.2679229552      8.52E-09 Convergence criterion met
 Total energy in the final basis set = -1510.26792296
   14   -1510.2745809011      6.13E-09 Convergence criterion met
 Total energy in the final basis set = -1510.27458090
   13   -1510.2761889579      6.06E-09 Convergence criterion met
 Total energy in the final basis set = -1510.27618896
   13   -1510.2772579493      9.39E-09 Convergence criterion met
 Total energy in the final basis set = -1510.27725795
   13   -1510.2782139557      5.26E-09 Convergence criterion met
   11   -1510.2820402903      5.97E-09 Convergence criterion met
 Total energy in the final basis set = -1510.28204029
   11   -1510.2820555861      2.82E-09 Convergence criterion met
 Total energy in the final basis set = -1510.28205559
   11   -1510.2820681412      2.10E-09 Convergence criterion met
 Total energy in the final basis set = -1510.28206814
    9   -1510.2820705134      8.76E-09 Convergence criterion met
 Total energy in the final basis set = -1510.28207051
    9   -1510.2820759813      5.87E-09 Convergence criterion met
 Total energy in the final basis set = -1510.28207598
    9   -1510.2820776195      6.47E-09 Convergence criterion met
 Total energy in the final basis set = -1510.28207762

             Standard Nuclear Orientation (Angstroms)
    I     Atom           X                Y                Z
 ----------------------------------------------------------------
    1      O      -3.3125811289     1.4548832520     1.8153711161
    2      C      -3.7525592867     1.5709729022     0.6510561975
    3      C      -4.4464728466     0.4763760790    -0.2308067055
    4      C      -3.4265818829    -0.6275239515    -0.7608099848
    5      C      -1.9645932919    -0.3831793888    -0.2397286259
    6      O      -1.7307287597    -1.1687280376     0.9260009705
    7      C      -0.3164266672    -1.0731935834     1.3677517743
    8      C       0.6869500807    -1.7555938921     0.3664003059
    9      O       2.0024543567    -1.1252770323     0.6216385885
   10      C       2.9914533652    -1.6974106072    -0.2481782833
   11      C       4.3429579560    -0.9213528748    -0.0570521218
   12      C       4.5061901128     0.4294569082    -0.8766445141
   13      C       3.3061740125     0.9326070847    -1.7589889455
   14      O       3.2521125027     2.0563563305    -2.3087376187
   15      O      -3.6721670488     2.7746137951    -0.1210190299
   16      O       2.3056141803    -0.0709284087    -1.8964288420
   17      O       2.8050188028    -2.7158773496    -0.9483885723
   18      C       1.1486583625     0.4264047765    -2.6816702685
   19      C       4.5338451955    -0.3875919135     1.4289057988
   20      C       6.0697454835    -0.0930760671     1.6582359328
   21      C       6.2480961081     1.2386441464     0.8396700390
   22      C       4.7808471150     1.4634923836     0.3010552891
   23      O       3.9246992845     0.9615394331     1.3987841153
   24      H       5.1497489897    -1.6224887431    -0.3355341426
   25      H       5.3851451552     0.3628893986    -1.5445202532
   26      H       4.0508734386    -1.0121778110     2.2045590210
   27      H       6.2759600204     0.0601621213     2.7294846252
   28      H       6.7093382419    -0.9101472630     1.2879284935
   29      H       6.5520113042     2.0754319170     1.4884734670
   30      H       6.9800558514     1.1419905898     0.0218887085
   31      H       4.5220913069     2.5096627525     0.0454877827
   32      O      -1.1325332832     0.4128814885    -0.7346094727
   33      C      -2.9631934408     3.8233165864     0.6490467289
   34      C      -5.4537687336    -0.4275314297     0.6008924611
   35      C      -6.3919468924    -1.1838818002    -0.4196800764
   36      C      -5.3983064444    -2.2565174757    -1.0021132429
   37      C      -4.0870868133    -1.9436051760    -0.1762456595
   38      O      -4.5975712475    -1.5057749819     1.1435873102
   39      H      -4.9477055762     0.9845992366    -1.0733898445
   40      H      -3.3920777146    -0.6273380097    -1.8651793995
   41      H      -1.9330116777     3.5071599284     0.9115145912
   42      H      -5.9744250792     0.1015598862     1.4224439369
   43      H      -7.2310131189    -1.6591245396     0.1132050861
   44      H      -6.7993027480    -0.5127605679    -1.1928047497
   45      H      -5.7447780754    -3.2818755665    -0.7976574644
   46      H      -5.2410238230    -2.1466423891    -2.0871036660
   47      H      -3.3867616655    -2.7923299253    -0.0581454903
   48      H      -3.5029623576     4.0779551031     1.5839957119
   49      H      -2.9221170673     4.7104476948    -0.0090995907
   50      H       0.9655792580    -0.2843680217    -3.5102291263
   51      H       1.3894517686     1.4308872595    -3.0826827158
   52      H       0.2579241095     0.4766231101    -2.0141056948
   53      H       0.7269081513    -2.8548171545     0.5271747600
   54      H       0.3709897272    -1.5736002263    -0.6823160456
   55      H      -0.2872826671    -1.5688886594     2.3574694691
   56      H      -0.0176476277    -0.0082657228     1.4847310427
 ----------------------------------------------------------------

    9   -1510.2820785058      3.97E-09 Convergence criterion met
 Total energy in the final basis set = -1510.28207851
 Final energy is   -1510.28207850584
 **  OPTIMIZATION CONVERGED  **

                    Orbital Energies (a.u.)
 --------------------------------------------------------------

 Alpha MOs
 -- Occupied --
-18.946 -18.935 -18.934 -18.922 -18.890 -18.885 -18.884 -18.875
-18.868 -18.861 -10.110 -10.098 -10.098 -10.094 -10.074 -10.068
-10.063 -10.062 -10.062 -10.057 -10.056 -10.043 -10.042 -10.040
-10.036 -10.032 -10.022 -10.021 -10.018 -10.017  -1.021  -1.010
 -1.010  -0.999  -0.971  -0.967  -0.945  -0.935  -0.931  -0.926
 -0.766  -0.759  -0.728  -0.721  -0.713  -0.705  -0.693  -0.663
 -0.652  -0.615  -0.597  -0.582  -0.550  -0.541  -0.539  -0.535
 -0.516  -0.509  -0.488  -0.473  -0.464  -0.460  -0.453  -0.439
 -0.434  -0.431  -0.425  -0.412  -0.410  -0.408  -0.406  -0.397
 -0.396  -0.382  -0.378  -0.367  -0.359  -0.356  -0.353  -0.347
 -0.343  -0.338  -0.333  -0.329  -0.328  -0.325  -0.321  -0.311
 -0.310  -0.308  -0.303  -0.301  -0.292  -0.287  -0.283  -0.280
 -0.274  -0.257  -0.252  -0.246  -0.235  -0.232  -0.231  -0.186
 -0.177  -0.171  -0.165  -0.162  -0.154  -0.151  -0.145  -0.144
 -0.139

          Ground-State Mulliken Net Atomic Charges

     Atom                 Charge (a.u.)
  ----------------------------------------
      1 O                    -0.210062
      2 C                     0.204338
      3 C                    -0.079082
      4 C                    -0.077944
      5 C                     0.213247
      6 O                    -0.159178
      7 C                    -0.047404
      8 C                    -0.048576
      9 O                    -0.172493
     10 C                     0.219635
     11 C                    -0.081004
     12 C                    -0.077821
     13 C                     0.213042
     14 O                    -0.219027
     15 O                    -0.168422
     16 O                    -0.170034
     17 O                    -0.220587
     18 C                    -0.148653
     19 C                     0.026257
     20 C                    -0.144328
     21 C                    -0.144026
     22 C                     0.025021
     23 O                    -0.188380
     24 H                     0.082704
     25 H                     0.085173
     26 H                     0.084776
     27 H                     0.077216
     28 H                     0.073027
     29 H                     0.077789
     30 H                     0.073375
     31 H                     0.087709
     32 O                    -0.219007
     33 C                    -0.128850
     34 C                     0.025987
     35 C                    -0.143573
     36 C                    -0.144578
     37 C                     0.026171
     38 O                    -0.183484
     39 H                     0.087005
     40 H                     0.085584
     41 H                     0.091962
     42 H                     0.085199
     43 H                     0.078605
     44 H                     0.073870
     45 H                     0.078543
     46 H                     0.073211
     47 H                     0.087431
     48 H                     0.088540
     49 H                     0.091220
     50 H                     0.080646
     51 H                     0.098408
     52 H                     0.108983
     53 H                     0.085870
     54 H                     0.089412
     55 H                     0.095507
     56 H                     0.101044
  ----------------------------------------
  Sum of atomic charges =     0.000000

                    Cartesian Multipole Moments
 -----------------------------------------------------------------
    Charge (ESU x 10^10)
                 0.0000
    Dipole Moment (Debye)
         X      -0.8522      Y      -0.2557      Z      -0.7944
       Tot       1.1928
    Quadrupole Moments (Debye-Ang)
        XX    -137.4491     XY      -1.8699     YY    -160.6046
        XZ      11.7230     YZ       2.0622     ZZ    -163.9037

 Total job time:  75.32s(wall), 3329.85s(cpu)
        *  Thank you very much for using Q-Chem.  Have a nice day.  *
