 Q-Chem 5.0, Q-Chem, Inc., Pleasanton, CA (2017)
 Q-Chem 5.0.1 for Intel X86 EM64T Linux

User input:
--------------------------------------------------------------
$molecule
0  1
O -3.94934 -3.66094 2.70899
C -3.26408 -4.56952 2.26188
C -3.36658 -6.02376 2.66595
C -2.95781 -6.38402 4.10365
C -2.66165 -5.22612 5.03082
O -3.74725 -4.97465 5.82054
C -3.47823 -4.03259 6.86428
C -2.48648 -4.62219 7.86173
O -2.02744 -3.59865 8.75868
C -1.14252 -4.00458 9.70276
C -0.49138 -2.8538 10.43241
C 0.71767 -2.23439 9.71631
C 0.87776 -2.5991 8.2541
O 1.67003 -2.08485 7.47794
O -2.38265 -4.28907 1.26579
O 0.52923 -3.85552 7.86237
O -1.03958 -5.16678 10.07513
C 0.95743 -4.47451 6.6987
C -1.39007 -1.61853 10.62698
C -0.87946 -0.78732 11.80303
C 0.39206 -0.21322 11.21206
C 0.29919 -0.75107 9.77974
O -1.08502 -0.8004 9.52537
H -0.18797 -3.2463 11.42993
H 1.68963 -2.43008 10.22014
H -2.46242 -1.87538 10.77052
H -1.60523 0.04293 11.95848
H -0.75035 -1.34459 12.75576
H 0.3096 0.8965 11.2161
H 1.33418 -0.52738 11.7113
H 0.89576 -0.1116 9.09209
O -1.68978 -4.49167 4.91014
C -2.17248 -3.02923 0.74543
C -4.80766 -6.55752 2.61165
C -4.79288 -8.07173 2.41452
C -4.29856 -8.52611 3.7713
C -4.22783 -7.18185 4.5068
O -5.26965 -6.42919 3.93297
H -2.73435 -6.59189 1.94516
H -2.06943 -7.05175 4.15421
H -1.81317 -2.34197 1.54105
H -5.42512 -6.07075 1.82503
H -5.85081 -8.3982 2.29417
H -4.19749 -8.43046 1.54748
H -5.07777 -9.17697 4.22698
H -3.31907 -9.05132 3.77008
H -4.29061 -7.35654 5.6036
H -3.11315 -2.63514 0.30468
H -1.40237 -3.08827 -0.05077
H 0.52553 -5.49352 6.63446
H 2.0641 -4.57027 6.70336
H 0.64361 -3.88458 5.81234
H -2.98682 -5.4501 8.41213
H -1.61312 -5.04816 7.34252
H -4.41875 -3.77743 7.3966
H -3.07952 -3.08884 6.42658
$end

$opt
CONSTRAINT
tors           1           2           3           4     -67.015
tors           3           4           5           6     +99.210
tors           4           5           6           7    +170.900
tors           5           6           7           8     -66.405
tors           6           7           8           9    +169.204
tors           7           8           9          10    +179.599
tors           8           9          10          11    +168.584
tors           9          10          11          12     -83.411
tors          11          12          13          14    +170.484
ENDCONSTRAINT
$end

$rem
JOBTYPE                   OPT
METHOD                    B3LYP
DFT_D                     d3_op
BASIS                     STO-3G
GEOM_OPT_MAX_CYCLES       100
GEOM_OPT_TOL_GRADIENT     300
GEOM_OPT_TOL_DISPLACEMENT 1200
GEOM_OPT_TOL_ENERGY       100
SYMMETRY                  False
THRESH                    12
SCF_CONVERGENCE           8
MAX_SUB_FILE_NUM          128
MEM_STATIC                400
MEM_TOTAL                 4000
$end
--------------------------------------------------------------

   15   -1510.1394562767      6.39E-09 Convergence criterion met
 Total energy in the final basis set = -1510.13945628
   14   -1510.2114819647      8.23E-09 Convergence criterion met
 Total energy in the final basis set = -1510.21148196
   15   -1510.2502663986      1.14E-09 Convergence criterion met
 Total energy in the final basis set = -1510.25026640
   14   -1510.2677525198      8.51E-09 Convergence criterion met
 Total energy in the final basis set = -1510.26775252
   14   -1510.2729972184      8.18E-09 Convergence criterion met
 Total energy in the final basis set = -1510.27299722
   13   -1510.2760841762      9.73E-09 Convergence criterion met
 Total energy in the final basis set = -1510.27608418
   13   -1510.2771423402      3.72E-09 Convergence criterion met
 Total energy in the final basis set = -1510.27714234
   13   -1510.2777579764      5.69E-09 Convergence criterion met
   11   -1510.2810647547      9.37E-09 Convergence criterion met
 Total energy in the final basis set = -1510.28106475
   11   -1510.2811136471      5.53E-09 Convergence criterion met
 Total energy in the final basis set = -1510.28111365
   11   -1510.2811521262      5.68E-09 Convergence criterion met
 Total energy in the final basis set = -1510.28115213
   10   -1510.2811771076      8.60E-09 Convergence criterion met
 Total energy in the final basis set = -1510.28117711
   10   -1510.2811875735      7.56E-09 Convergence criterion met
 Total energy in the final basis set = -1510.28118757
    9   -1510.2811910555      5.98E-09 Convergence criterion met
 Total energy in the final basis set = -1510.28119106

             Standard Nuclear Orientation (Angstroms)
    I     Atom           X                Y                Z
 ----------------------------------------------------------------
    1      O      -3.3615504443     1.4003615282     1.7663629111
    2      C      -3.9039132596     1.5119615792     0.6454196076
    3      C      -4.5408397524     0.3786914965    -0.2292003483
    4      C      -3.4649453782    -0.6638328997    -0.7708219010
    5      C      -2.0116894900    -0.3344226105    -0.2675467538
    6      O      -1.6880646081    -1.1625921319     0.8477780239
    7      C      -0.2548979558    -1.0394742597     1.2162539174
    8      C       0.7081252776    -1.6035875892     0.1124565359
    9      O       2.0666075794    -1.1679610162     0.5089327938
   10      C       3.0270368227    -1.6481999019    -0.4433915904
   11      C       4.4011256855    -0.9393833708    -0.1727506290
   12      C       4.5927491048     0.5017009765    -0.8147748145
   13      C       3.3982843993     1.1688110457    -1.5904697270
   14      O       3.3905416886     2.3588793281    -1.9809650851
   15      O      -4.0388787789     2.7503512056    -0.0609899076
   16      O       2.3367718945     0.2483828884    -1.8273828607
   17      O       2.7952942933    -2.5388919188    -1.2888500982
   18      C       1.2060468198     0.9070046166    -2.5294724833
   19      C       4.6225630131    -0.6077403181     1.3676558678
   20      C       6.1684031880    -0.3989095016     1.6140420883
   21      C       6.3890873856     1.0173461010     0.9636176538
   22      C       4.9253325521     1.3625262505     0.4820056179
   23      O       4.0618658548     0.7542353945     1.5181958162
   24      H       5.1866414665    -1.6174619411    -0.5515802793
   25      H       5.4544848568     0.4964962810    -1.5080841554
   26      H       4.1230669119    -1.3099877655     2.0621284320
   27      H       6.3870364735    -0.3859527393     2.6937407023
   28      H       6.7763055915    -1.1860317300     1.1403507183
   29      H       6.7337553333     1.7545540953     1.7061321967
   30      H       7.1060121376     0.9954116011     0.1273491983
   31      H       4.7040745539     2.4417096298     0.3673029167
   32      O      -1.2480707336     0.5312933466    -0.7552593766
   33      C      -3.4079982599     3.8449685119     0.7131507440
   34      C      -5.4830435824    -0.5836837311     0.6151869192
   35      C      -6.3859829583    -1.3922711347    -0.3975392876
   36      C      -5.3385377818    -2.4082568642    -0.9877737660
   37      C      -4.0380879924    -2.0161483086    -0.1784684200
   38      O      -4.5584263909    -1.6084110971     1.1474588299
   39      H      -5.0849643352     0.8552795468    -1.0634890831
   40      H      -3.4436520499    -0.6627598352    -1.8755290423
   41      H      -2.3156893628     3.6856159979     0.8227486076
   42      H      -6.0260473619    -0.0864461290     1.4421564646
   43      H      -7.1942443533    -1.9128017947     0.1404728861
   44      H      -6.8333549862    -0.7439970898    -1.1679388876
   45      H      -5.6228931260    -3.4510421244    -0.7754969963
   46      H      -5.2006619164    -2.2946273950    -2.0750913343
   47      H      -3.2865174987    -2.8207556890    -0.0681988267
   48      H      -3.8532894551     3.9394379306     1.7244955077
   49      H      -3.5904986221     4.7711752286     0.1379506725
   50      H       1.0172627578     0.3582281593    -3.4724282962
   51      H       1.4806443429     1.9582803668    -2.7472666554
   52      H       0.3036255623     0.8627255076    -1.8788540281
   53      H       0.6370428058    -2.7118030421     0.0553051726
   54      H       0.4462698309    -1.1872740957    -0.8809306589
   55      H      -0.1462073460    -1.6108792937     2.1588368289
   56      H       0.0089124194     0.0242649682     1.4045189951
 ----------------------------------------------------------------

    9   -1510.2811928477      2.57E-09 Convergence criterion met
 Total energy in the final basis set = -1510.28119285
 Final energy is   -1510.28119284766
 **  OPTIMIZATION CONVERGED  **

                    Orbital Energies (a.u.)
 --------------------------------------------------------------

 Alpha MOs
 -- Occupied --
-18.945 -18.935 -18.934 -18.922 -18.890 -18.885 -18.883 -18.874
-18.869 -18.863 -10.110 -10.098 -10.098 -10.094 -10.074 -10.067
-10.063 -10.062 -10.061 -10.057 -10.057 -10.043 -10.043 -10.039
-10.037 -10.033 -10.022 -10.021 -10.018 -10.017  -1.020  -1.011
 -1.010  -1.000  -0.971  -0.968  -0.945  -0.935  -0.932  -0.928
 -0.766  -0.760  -0.728  -0.721  -0.713  -0.705  -0.693  -0.663
 -0.653  -0.614  -0.597  -0.582  -0.549  -0.541  -0.539  -0.535
 -0.516  -0.510  -0.487  -0.474  -0.464  -0.460  -0.453  -0.439
 -0.434  -0.432  -0.426  -0.412  -0.410  -0.409  -0.405  -0.398
 -0.394  -0.383  -0.377  -0.367  -0.359  -0.356  -0.353  -0.348
 -0.342  -0.339  -0.333  -0.329  -0.328  -0.325  -0.322  -0.311
 -0.310  -0.307  -0.304  -0.301  -0.292  -0.287  -0.284  -0.280
 -0.275  -0.257  -0.251  -0.247  -0.235  -0.234  -0.231  -0.184
 -0.178  -0.172  -0.165  -0.162  -0.155  -0.151  -0.145  -0.144
 -0.140

          Ground-State Mulliken Net Atomic Charges

     Atom                 Charge (a.u.)
  ----------------------------------------
      1 O                    -0.210553
      2 C                     0.204900
      3 C                    -0.079347
      4 C                    -0.078021
      5 C                     0.214260
      6 O                    -0.159658
      7 C                    -0.046874
      8 C                    -0.050119
      9 O                    -0.173249
     10 C                     0.219271
     11 C                    -0.080976
     12 C                    -0.077561
     13 C                     0.212501
     14 O                    -0.219117
     15 O                    -0.168412
     16 O                    -0.170869
     17 O                    -0.218503
     18 C                    -0.148215
     19 C                     0.026310
     20 C                    -0.144269
     21 C                    -0.144107
     22 C                     0.025072
     23 O                    -0.188375
     24 H                     0.082528
     25 H                     0.085436
     26 H                     0.085249
     27 H                     0.077316
     28 H                     0.073143
     29 H                     0.077990
     30 H                     0.073456
     31 H                     0.087801
     32 O                    -0.220655
     33 C                    -0.128976
     34 C                     0.026087
     35 C                    -0.143553
     36 C                    -0.144603
     37 C                     0.026082
     38 O                    -0.183675
     39 H                     0.086823
     40 H                     0.085626
     41 H                     0.091217
     42 H                     0.084629
     43 H                     0.078543
     44 H                     0.073866
     45 H                     0.078497
     46 H                     0.073152
     47 H                     0.088181
     48 H                     0.089635
     49 H                     0.090803
     50 H                     0.081294
     51 H                     0.099452
     52 H                     0.108128
     53 H                     0.085404
     54 H                     0.092043
     55 H                     0.095647
     56 H                     0.099344
  ----------------------------------------
  Sum of atomic charges =     0.000000

                    Cartesian Multipole Moments
 -----------------------------------------------------------------
    Charge (ESU x 10^10)
                 0.0000
    Dipole Moment (Debye)
         X      -0.8952      Y      -0.3246      Z      -0.9308
       Tot       1.3315
    Quadrupole Moments (Debye-Ang)
        XX    -136.3504     XY      -3.1444     YY    -160.2009
        XZ      10.5640     YZ       1.7801     ZZ    -164.3406

 Total job time:  70.27s(wall), 3341.79s(cpu)
        *  Thank you very much for using Q-Chem.  Have a nice day.  *
