 Q-Chem 5.0, Q-Chem, Inc., Pleasanton, CA (2017)
 Q-Chem 5.0.1 for Intel X86 EM64T Linux

User input:
--------------------------------------------------------------
$molecule
0  1
O -3.3615504443 1.4003615282 1.7663629111
C -3.9039132596 1.5119615792 0.6454196076
C -4.5408397524 0.3786914965 -0.2292003483
C -3.4649453782 -0.6638328997 -0.770821901
C -2.01168949 -0.3344226105 -0.2675467538
O -1.6880646081 -1.1625921319 0.8477780239
C -0.2548979558 -1.0394742597 1.2162539174
C 0.7081252776 -1.6035875892 0.1124565359
O 2.0666075794 -1.1679610162 0.5089327938
C 3.0270368227 -1.6481999019 -0.4433915904
C 4.4011256855 -0.9393833708 -0.172750629
C 4.5927491048 0.5017009765 -0.8147748145
C 3.3982843993 1.1688110457 -1.590469727
O 3.3905416886 2.3588793281 -1.9809650851
O -4.0388787789 2.7503512056 -0.0609899076
O 2.3367718945 0.2483828884 -1.8273828607
O 2.7952942933 -2.5388919188 -1.2888500982
C 1.2060468198 0.9070046166 -2.5294724833
C 4.6225630131 -0.6077403181 1.3676558678
C 6.168403188 -0.3989095016 1.6140420883
C 6.3890873856 1.017346101 0.9636176538
C 4.9253325521 1.3625262505 0.4820056179
O 4.0618658548 0.7542353945 1.5181958162
H 5.1866414665 -1.6174619411 -0.5515802793
H 5.4544848568 0.496496281 -1.5080841554
H 4.1230669119 -1.3099877655 2.062128432
H 6.3870364735 -0.3859527393 2.6937407023
H 6.7763055915 -1.18603173 1.1403507183
H 6.7337553333 1.7545540953 1.7061321967
H 7.1060121376 0.9954116011 0.1273491983
H 4.7040745539 2.4417096298 0.3673029167
O -1.2480707336 0.5312933466 -0.7552593766
C -3.4079982599 3.8449685119 0.713150744
C -5.4830435824 -0.5836837311 0.6151869192
C -6.3859829583 -1.3922711347 -0.3975392876
C -5.3385377818 -2.4082568642 -0.987773766
C -4.0380879924 -2.0161483086 -0.17846842
O -4.5584263909 -1.6084110971 1.1474588299
H -5.0849643352 0.8552795468 -1.0634890831
H -3.4436520499 -0.6627598352 -1.8755290423
H -2.3156893628 3.6856159979 0.8227486076
H -6.0260473619 -0.086446129 1.4421564646
H -7.1942443533 -1.9128017947 0.1404728861
H -6.8333549862 -0.7439970898 -1.1679388876
H -5.622893126 -3.4510421244 -0.7754969963
H -5.2006619164 -2.294627395 -2.0750913343
H -3.2865174987 -2.820755689 -0.0681988267
H -3.8532894551 3.9394379306 1.7244955077
H -3.5904986221 4.7711752286 0.1379506725
H 1.0172627578 0.3582281593 -3.4724282962
H 1.4806443429 1.9582803668 -2.7472666554
H 0.3036255623 0.8627255076 -1.8788540281
H 0.6370428058 -2.7118030421 0.0553051726
H 0.4462698309 -1.1872740957 -0.8809306589
H -0.146207346 -1.6108792937 2.1588368289
H 0.0089124194 0.0242649682 1.4045189951
$end

$rem
JOBTYPE                   OPT
METHOD                    B3LYP
DFT_D                     d3_op
BASIS                     STO-3G
GEOM_OPT_MAX_CYCLES       100
GEOM_OPT_TOL_GRADIENT     300
GEOM_OPT_TOL_DISPLACEMENT 1200
GEOM_OPT_TOL_ENERGY       100
SYMMETRY                  False
THRESH                    12
SCF_CONVERGENCE           8
MAX_SUB_FILE_NUM          128
MEM_STATIC                400
MEM_TOTAL                 4000
$end
--------------------------------------------------------------

   16   -1510.2811653276      5.20E-09 Convergence criterion met
 Total energy in the final basis set = -1510.28116533
   13   -1510.2828928802      6.43E-09 Convergence criterion met
 Total energy in the final basis set = -1510.28289288
   13   -1510.2815367683      9.14E-09 Convergence criterion met
 Total energy in the final basis set = -1510.28153677
   13   -1510.2829477046      5.92E-09 Convergence criterion met
 Total energy in the final basis set = -1510.28294770
   14   -1510.2839405383      4.29E-09 Convergence criterion met
 Total energy in the final basis set = -1510.28394054
   12   -1510.2854888404      7.92E-09 Convergence criterion met
 Total energy in the final basis set = -1510.28548884
   13   -1510.2866757379      6.72E-09 Convergence criterion met
 Total energy in the final basis set = -1510.28667574
   13   -1510.2871854541      5.76E-09 Convergence criterion met
   14   -1510.2912845401      3.67E-09 Convergence criterion met
 Total energy in the final basis set = -1510.29128454
   14   -1510.2939125107      2.44E-09 Convergence criterion met
 Total energy in the final basis set = -1510.29391251
   12   -1510.2939471241      3.42E-09 Convergence criterion met
 Total energy in the final basis set = -1510.29394712
   10   -1510.2939570544      9.29E-09 Convergence criterion met
 Total energy in the final basis set = -1510.29395705
   13   -1510.2936364609      6.30E-09 Convergence criterion met
 Total energy in the final basis set = -1510.29363646
   13   -1510.2939508011      5.65E-09 Convergence criterion met
 Total energy in the final basis set = -1510.29395080

             Standard Nuclear Orientation (Angstroms)
    I     Atom           X                Y                Z
 ----------------------------------------------------------------
    1      O      -2.0327870088     1.5750658741    -0.4009754835
    2      C      -3.2848940538     1.6241656328    -0.4093440325
    3      C      -4.2706722675     0.4503839647    -0.7305259948
    4      C      -3.5287355238    -0.9360002769    -0.9281243698
    5      C      -1.9646534525    -0.8432699120    -0.7715638312
    6      O      -1.6326802846    -0.9550781799     0.6140829239
    7      C      -0.1974725392    -0.6733115908     0.8586574679
    8      C       0.7705910647    -1.7704205588     0.2828780613
    9      O       2.1373564515    -1.2353644942     0.4851140713
   10      C       3.0296321014    -1.6765043928    -0.5461945895
   11      C       4.3878912056    -0.9302930828    -0.3272392120
   12      C       4.2075015042     0.6435792308    -0.2158275209
   13      C       2.7304916273     1.1300429550    -0.4517481680
   14      O       2.0174992500     1.8132366620     0.3158846612
   15      O      -4.0379350296     2.8010161299    -0.1262203501
   16      O       2.3484205413     0.7051838067    -1.7618187316
   17      O       2.7352108257    -2.5054033749    -1.4328546572
   18      C       0.9863891292     1.1849970534    -2.1075184102
   19      C       5.0076269779    -1.2473930116     1.1037521196
   20      C       6.4967218525    -0.7180105219     1.1307338948
   21      C       6.2700323209     0.8318714396     1.2878614041
   22      C       4.6933517360     0.9078730045     1.2678580797
   23      O       4.2861769979    -0.3157604301     1.9981878605
   24      H       5.0716389131    -1.2101956001    -1.1472516008
   25      H       4.8546166730     1.1573820773    -0.9503741418
   26      H       4.8729627401    -2.2933828048     1.4415009471
   27      H       7.0386974680    -1.1377559437     1.9930869292
   28      H       7.0438197877    -0.9773479248     0.2102043449
   29      H       6.6619755798     1.2006963661     2.2491269375
   30      H       6.7264145786     1.4145588581     0.4718807687
   31      H       4.2421925349     1.8043980297     1.7360437079
   32      O      -1.1459916491    -0.8160810654    -1.7222413622
   33      C      -3.1220697828     3.9268682153     0.1780811196
   34      C      -5.2312722843     0.1118978875     0.4919840137
   35      C      -6.4138769376    -0.7873103747    -0.0431387795
   36      C      -5.6796584723    -2.1640812151    -0.2465997348
   37      C      -4.2126537349    -1.8003625764     0.2148353274
   38      O      -4.4255682296    -0.8226303144     1.3079602248
   39      H      -4.8553756331     0.7292002098    -1.6264556110
   40      H      -3.7337965239    -1.3466250892    -1.9323367783
   41      H      -2.4903896242     4.1827257071    -0.6969438245
   42      H      -5.5348490108     0.9952046980     1.0867870395
   43      H      -7.2094365378    -0.8619178677     0.7153403905
   44      H      -6.8511235361    -0.3929549704    -0.9744622741
   45      H      -6.1031367793    -2.9468836421     0.4024610042
   46      H      -5.7117151929    -2.5145866579    -1.2906326578
   47      H      -3.6031563659    -2.6523185452     0.5716606485
   48      H      -2.4592657082     3.6911834354     1.0353413129
   49      H      -3.7701369886     4.7856237056     0.4318174914
   50      H       1.0150963826     1.5062006667    -3.1656017881
   51      H       0.7035257645     2.0360137404    -1.4572922020
   52      H       0.2383083855     0.3650588256    -1.9824271841
   53      H       0.6454563380    -2.7338194372     0.8228526994
   54      H       0.5699282592    -1.9322432661    -0.7969967509
   55      H      -0.0980638987    -0.6265062976     1.9614618785
   56      H       0.0834895573     0.3168772419     0.4393456140
 ----------------------------------------------------------------

   11   -1510.2939509825      5.04E-09 Convergence criterion met
 Total energy in the final basis set = -1510.29395098
 Final energy is   -1510.29395098247
 **  OPTIMIZATION CONVERGED  **

                    Orbital Energies (a.u.)
 --------------------------------------------------------------

 Alpha MOs
 -- Occupied --
-18.948 -18.930 -18.924 -18.917 -18.891 -18.890 -18.882 -18.870
-18.869 -18.861 -10.111 -10.103 -10.092 -10.089 -10.072 -10.064
-10.061 -10.061 -10.058 -10.055 -10.052 -10.044 -10.038 -10.031
-10.029 -10.028 -10.023 -10.022 -10.016 -10.015  -1.024  -1.008
 -1.004  -0.994  -0.972  -0.964  -0.948  -0.935  -0.928  -0.922
 -0.766  -0.757  -0.727  -0.721  -0.712  -0.701  -0.688  -0.669
 -0.643  -0.610  -0.594  -0.578  -0.549  -0.540  -0.539  -0.531
 -0.516  -0.505  -0.487  -0.471  -0.466  -0.455  -0.449  -0.439
 -0.436  -0.429  -0.425  -0.418  -0.413  -0.398  -0.397  -0.395
 -0.384  -0.381  -0.374  -0.364  -0.360  -0.356  -0.351  -0.341
 -0.337  -0.336  -0.334  -0.329  -0.326  -0.320  -0.320  -0.317
 -0.308  -0.305  -0.302  -0.299  -0.289  -0.284  -0.283  -0.275
 -0.267  -0.263  -0.248  -0.239  -0.236  -0.235  -0.228  -0.190
 -0.176  -0.168  -0.164  -0.158  -0.149  -0.147  -0.144  -0.141
 -0.137

          Ground-State Mulliken Net Atomic Charges

     Atom                 Charge (a.u.)
  ----------------------------------------
      1 O                    -0.206972
      2 C                     0.215877
      3 C                    -0.078261
      4 C                    -0.081336
      5 C                     0.223282
      6 O                    -0.168392
      7 C                    -0.050215
      8 C                    -0.056032
      9 O                    -0.172046
     10 C                     0.213486
     11 C                    -0.077996
     12 C                    -0.077597
     13 C                     0.213227
     14 O                    -0.220731
     15 O                    -0.167197
     16 O                    -0.177845
     17 O                    -0.210952
     18 C                    -0.152357
     19 C                     0.025787
     20 C                    -0.144141
     21 C                    -0.143791
     22 C                     0.024387
     23 O                    -0.186219
     24 H                     0.084820
     25 H                     0.082856
     26 H                     0.081663
     27 H                     0.076912
     28 H                     0.073239
     29 H                     0.076974
     30 H                     0.072477
     31 H                     0.089082
     32 O                    -0.223641
     33 C                    -0.128064
     34 C                     0.025262
     35 C                    -0.143630
     36 C                    -0.144271
     37 C                     0.026700
     38 O                    -0.186456
     39 H                     0.087367
     40 H                     0.084519
     41 H                     0.091159
     42 H                     0.087717
     43 H                     0.078766
     44 H                     0.073841
     45 H                     0.078587
     46 H                     0.074021
     47 H                     0.087327
     48 H                     0.095150
     49 H                     0.093243
     50 H                     0.078318
     51 H                     0.089542
     52 H                     0.109903
     53 H                     0.080689
     54 H                     0.104587
     55 H                     0.093231
     56 H                     0.104142
  ----------------------------------------
  Sum of atomic charges =    -0.000000

                    Cartesian Multipole Moments
 -----------------------------------------------------------------
    Charge (ESU x 10^10)
                 0.0000
    Dipole Moment (Debye)
         X      -1.7931      Y       1.2925      Z      -0.6365
       Tot       2.3002
    Quadrupole Moments (Debye-Ang)
        XX    -132.6062     XY       0.9977     YY    -152.4117
        XZ       5.7967     YZ      -3.7815     ZZ    -167.0271

 Total job time:  111.06s(wall), 5295.40s(cpu)
        *  Thank you very much for using Q-Chem.  Have a nice day.  *
