 Q-Chem 5.0, Q-Chem, Inc., Pleasanton, CA (2017)
 Q-Chem 5.0.1 for Intel X86 EM64T Linux

User input:
--------------------------------------------------------------
$molecule
0  1
O -3.94934 -3.66094 2.70899
C -3.26408 -4.56952 2.26188
C -3.36658 -6.02376 2.66595
C -2.83607 -6.40539 4.05763
C -2.42537 -5.26259 4.95952
O -3.39298 -5.04103 5.89764
C -3.037 -4.02924 6.8457
C -2.15842 -4.62223 7.94233
O -1.38867 -3.5835 8.56796
C -0.57007 -3.98783 9.57074
C 0.40345 -2.91742 10.00332
C 1.61881 -2.7372 9.08208
C 1.51008 -3.37612 7.71216
O 2.26531 -3.17178 6.77279
O -2.41191 -4.29601 1.23869
O 0.96361 -4.62341 7.67316
O -0.72124 -5.03525 10.18711
C 1.15294 -5.55181 6.66377
C -0.17219 -1.49059 10.02633
C 0.64989 -0.61804 10.97362
C 1.93476 -0.47459 10.18265
C 1.55 -1.20806 8.89271
O 0.16783 -0.96753 8.76611
H 0.7422 -3.19701 11.02728
H 2.57522 -3.07939 9.53514
H -1.24907 -1.4578 10.30148
H 0.14954 0.3757 11.02183
H 0.7692 -1.01862 12.0033
H 2.10163 0.60678 9.98004
H 2.8378 -0.91791 10.65544
H 2.183 -0.85525 8.04874
O -1.44708 -4.55425 4.75827
C -2.21174 -3.03874 0.70824
C -4.81689 -6.5282 2.7348
C -4.85061 -8.04039 2.52657
C -4.24808 -8.51619 3.83107
C -4.08317 -7.18012 4.56675
O -5.15587 -6.40126 4.09329
H -2.80786 -6.59817 1.89132
H -1.96284 -7.09384 4.02108
H -1.82582 -2.35094 1.49088
H -5.49125 -6.02213 2.00952
H -5.92136 -8.34521 2.49745
H -4.3408 -8.40248 1.60791
H -4.99817 -9.15391 4.34988
H -3.28468 -9.06275 3.73959
H -4.05373 -7.36716 5.6628
H -3.16313 -2.64143 0.29431
H -1.46563 -3.10366 -0.11004
H 0.57121 -6.46848 6.89005
H 2.22712 -5.82572 6.59553
H 0.81915 -5.13896 5.69089
H -2.78887 -5.1906 8.66195
H -1.4485 -5.332 7.47693
H -3.94623 -3.59413 7.31144
H -2.52726 -3.17607 6.34104
$end

$opt
CONSTRAINT
tors           1           2           3           4     -72.543
tors           3           4           5           6    +102.732
tors           4           5           6           7    +176.136
tors           5           6           7           8     -82.485
tors           6           7           8           9    +157.517
tors           7           8           9          10    +179.599
tors           8           9          10          11    +168.687
tors           9          10          11          12     -78.600
tors          11          12          13          14    +167.803
ENDCONSTRAINT
$end

$rem
JOBTYPE                   OPT
METHOD                    B3LYP
DFT_D                     d3_op
BASIS                     STO-3G
GEOM_OPT_MAX_CYCLES       100
GEOM_OPT_TOL_GRADIENT     300
GEOM_OPT_TOL_DISPLACEMENT 1200
GEOM_OPT_TOL_ENERGY       100
SYMMETRY                  False
THRESH                    12
SCF_CONVERGENCE           8
MAX_SUB_FILE_NUM          128
MEM_STATIC                400
MEM_TOTAL                 4000
$end
--------------------------------------------------------------

   15   -1510.1411946408      7.47E-09 Convergence criterion met
 Total energy in the final basis set = -1510.14119464
   14   -1510.2123382715      7.65E-09 Convergence criterion met
 Total energy in the final basis set = -1510.21233827
   15   -1510.2509637855      1.27E-09 Convergence criterion met
 Total energy in the final basis set = -1510.25096379
   14   -1510.2684562335      6.67E-09 Convergence criterion met
 Total energy in the final basis set = -1510.26845623
   14   -1510.2741549145      8.95E-09 Convergence criterion met
 Total energy in the final basis set = -1510.27415491
   13   -1510.2781878467      6.46E-09 Convergence criterion met
 Total energy in the final basis set = -1510.27818785
   13   -1510.2794109391      3.78E-09 Convergence criterion met
 Total energy in the final basis set = -1510.27941094
   13   -1510.2804595779      3.33E-09 Convergence criterion met
   12   -1510.2823954431      7.86E-09 Convergence criterion met
 Total energy in the final basis set = -1510.28239544
   11   -1510.2824219106      4.67E-09 Convergence criterion met
 Total energy in the final basis set = -1510.28242191
   10   -1510.2824454529      5.58E-09 Convergence criterion met
 Total energy in the final basis set = -1510.28244545
   10   -1510.2824606032      5.66E-09 Convergence criterion met
 Total energy in the final basis set = -1510.28246060
    9   -1510.2824727626      8.61E-09 Convergence criterion met
 Total energy in the final basis set = -1510.28247276
    9   -1510.2824783592      4.77E-09 Convergence criterion met
 Total energy in the final basis set = -1510.28247836

             Standard Nuclear Orientation (Angstroms)
    I     Atom           X                Y                Z
 ----------------------------------------------------------------
    1      O      -3.3994011415     1.5891854975     1.6911063302
    2      C      -3.7867306649     1.6174819502     0.5025629109
    3      C      -4.4157631182     0.4469277555    -0.3281879630
    4      C      -3.3436293049    -0.6625179759    -0.7291009986
    5      C      -1.9197179748    -0.3335813815    -0.1512564238
    6      O      -1.6546083301    -1.1450009352     0.9904194172
    7      C      -0.2764847670    -0.9090548199     1.4887827139
    8      C       0.7764396367    -1.7452260068     0.6771751122
    9      O       2.0708428265    -1.0478776098     0.8584311581
   10      C       3.1051586086    -1.7500210551     0.1542996563
   11      C       4.3925468472    -0.8542407140     0.1138798660
   12      C       4.4160788482     0.3191273998    -0.9561351692
   13      C       3.1492341604     0.5783442176    -1.8500330861
   14      O       2.9858624304     1.5987450732    -2.5568162458
   15      O      -3.6977007818     2.7680447359    -0.3446705259
   16      O       2.2399987747    -0.5192592925    -1.8164200300
   17      O       2.9872812408    -2.9090912182    -0.2984372515
   18      C       1.0196376210    -0.2126961393    -2.6048351087
   19      C       4.5969712043    -0.0270208989     1.4590049274
   20      C       6.1127923525     0.4078010474     1.5505815860
   21      C       6.1618442050     1.5606789673     0.4806585381
   22      C       4.6634406755     1.5782150175    -0.0158287429
   23      O       3.8872053266     1.2457758515     1.1996868824
   24      H       5.2435960168    -1.5345950808    -0.0673710862
   25      H       5.2672680990     0.1790100764    -1.6485754772
   26      H       4.1907226833    -0.5184788292     2.3638793482
   27      H       6.3443277685     0.7835250711     2.5599810293
   28      H       6.7991091380    -0.4213433265     1.3161312140
   29      H       6.4254027642     2.5271264603     0.9389355670
   30      H       6.8693845685     1.3535685360    -0.3378748332
   31      H       4.3173070603     2.5338248218    -0.4560673609
   32      O      -1.1167450607     0.5120279381    -0.6140029007
   33      C      -3.0369035088     3.8787327585     0.3802475304
   34      C      -5.4351509685    -0.4234246762     0.5250540362
   35      C      -6.3095749872    -1.2740171691    -0.4773598713
   36      C      -5.2641827727    -2.3540323454    -0.9446449100
   37      C      -3.9988128644    -1.9524686700    -0.0859642114
   38      O      -4.5769833983    -1.4381607810     1.1772070304
   39      H      -4.8925247920     0.8767755927    -1.2265442346
   40      H      -3.2510631031    -0.7373249982    -1.8277710096
   41      H      -2.0003963567     3.6110278767     0.6705153181
   42      H      -6.0023492513     0.1475562383     1.2853546098
   43      H      -7.1574742750    -1.7367177933     0.0526796079
   44      H      -6.7010214704    -0.6686000334    -1.3104184806
   45      H      -5.5939811571    -3.3738502548    -0.6906696825
   46      H      -5.0614989724    -2.3081194883    -2.0267145943
   47      H      -3.2852365947    -2.7725890569     0.1201805120
   48      H      -3.5982542184     4.1605187236     1.2943427129
   49      H      -3.0161030565     4.7322442274    -0.3218514839
   50      H       0.7245385274    -1.1426857466    -3.1258680048
   51      H       1.2383318323     0.5903441382    -3.3357056856
   52      H       0.2046916929     0.1184345618    -1.9179075878
   53      H       0.8251374791    -2.7941158793     1.0418488379
   54      H       0.5011325356    -1.7695238825    -0.3985957558
   55      H      -0.2846706925    -1.2056156256     2.5557175121
   56      H      -0.0133689345     0.1670039458     1.4004378687
 ----------------------------------------------------------------

    9   -1510.2824792992      2.83E-09 Convergence criterion met
 Total energy in the final basis set = -1510.28247930
 Final energy is   -1510.28247929922
 **  OPTIMIZATION CONVERGED  **

                    Orbital Energies (a.u.)
 --------------------------------------------------------------

 Alpha MOs
 -- Occupied --
-18.946 -18.935 -18.934 -18.923 -18.889 -18.885 -18.883 -18.874
-18.868 -18.864 -10.109 -10.098 -10.098 -10.094 -10.073 -10.068
-10.062 -10.062 -10.061 -10.057 -10.056 -10.045 -10.043 -10.039
-10.037 -10.033 -10.022 -10.021 -10.018 -10.017  -1.022  -1.011
 -1.010  -1.000  -0.971  -0.968  -0.945  -0.935  -0.932  -0.928
 -0.766  -0.760  -0.728  -0.721  -0.713  -0.705  -0.693  -0.662
 -0.654  -0.615  -0.597  -0.581  -0.550  -0.541  -0.539  -0.535
 -0.517  -0.510  -0.488  -0.474  -0.464  -0.460  -0.455  -0.439
 -0.434  -0.432  -0.425  -0.412  -0.410  -0.409  -0.406  -0.400
 -0.397  -0.381  -0.376  -0.368  -0.359  -0.355  -0.353  -0.348
 -0.343  -0.339  -0.333  -0.330  -0.328  -0.326  -0.322  -0.311
 -0.310  -0.308  -0.304  -0.301  -0.291  -0.287  -0.284  -0.279
 -0.274  -0.257  -0.252  -0.247  -0.237  -0.235  -0.231  -0.187
 -0.177  -0.172  -0.165  -0.163  -0.153  -0.151  -0.145  -0.144
 -0.140

          Ground-State Mulliken Net Atomic Charges

     Atom                 Charge (a.u.)
  ----------------------------------------
      1 O                    -0.211360
      2 C                     0.204901
      3 C                    -0.079204
      4 C                    -0.077668
      5 C                     0.212722
      6 O                    -0.160285
      7 C                    -0.048800
      8 C                    -0.047537
      9 O                    -0.172285
     10 C                     0.218000
     11 C                    -0.080912
     12 C                    -0.077791
     13 C                     0.212727
     14 O                    -0.218106
     15 O                    -0.167858
     16 O                    -0.170903
     17 O                    -0.217909
     18 C                    -0.146713
     19 C                     0.026314
     20 C                    -0.144229
     21 C                    -0.144214
     22 C                     0.025019
     23 O                    -0.188162
     24 H                     0.082676
     25 H                     0.085154
     26 H                     0.084226
     27 H                     0.077288
     28 H                     0.073173
     29 H                     0.077923
     30 H                     0.073449
     31 H                     0.088476
     32 O                    -0.219397
     33 C                    -0.128704
     34 C                     0.025768
     35 C                    -0.143507
     36 C                    -0.144615
     37 C                     0.025640
     38 O                    -0.184107
     39 H                     0.086862
     40 H                     0.085557
     41 H                     0.092179
     42 H                     0.085225
     43 H                     0.078593
     44 H                     0.073861
     45 H                     0.078548
     46 H                     0.072966
     47 H                     0.088738
     48 H                     0.088894
     49 H                     0.091164
     50 H                     0.081268
     51 H                     0.097644
     52 H                     0.104403
     53 H                     0.087314
     54 H                     0.087675
     55 H                     0.095196
     56 H                     0.104725
  ----------------------------------------
  Sum of atomic charges =     0.000000

                    Cartesian Multipole Moments
 -----------------------------------------------------------------
    Charge (ESU x 10^10)
                -0.0000
    Dipole Moment (Debye)
         X      -0.7043      Y      -0.1895      Z      -0.9970
       Tot       1.2353
    Quadrupole Moments (Debye-Ang)
        XX    -137.9170     XY       0.6487     YY    -161.2785
        XZ      11.2358     YZ       3.0024     ZZ    -163.1853

 Total job time:  54.07s(wall), 2530.47s(cpu)
        *  Thank you very much for using Q-Chem.  Have a nice day.  *
