 Q-Chem 5.0, Q-Chem, Inc., Pleasanton, CA (2017)
 Q-Chem 5.0.1 for Intel X86 EM64T Linux

User input:
--------------------------------------------------------------
$molecule
0  1
O -3.3994011415 1.5891854975 1.6911063302
C -3.7867306649 1.6174819502 0.5025629109
C -4.4157631182 0.4469277555 -0.328187963
C -3.3436293049 -0.6625179759 -0.7291009986
C -1.9197179748 -0.3335813815 -0.1512564238
O -1.6546083301 -1.1450009352 0.9904194172
C -0.276484767 -0.9090548199 1.4887827139
C 0.7764396367 -1.7452260068 0.6771751122
O 2.0708428265 -1.0478776098 0.8584311581
C 3.1051586086 -1.7500210551 0.1542996563
C 4.3925468472 -0.854240714 0.113879866
C 4.4160788482 0.3191273998 -0.9561351692
C 3.1492341604 0.5783442176 -1.8500330861
O 2.9858624304 1.5987450732 -2.5568162458
O -3.6977007818 2.7680447359 -0.3446705259
O 2.2399987747 -0.5192592925 -1.81642003
O 2.9872812408 -2.9090912182 -0.2984372515
C 1.019637621 -0.2126961393 -2.6048351087
C 4.5969712043 -0.0270208989 1.4590049274
C 6.1127923525 0.4078010474 1.550581586
C 6.161844205 1.5606789673 0.4806585381
C 4.6634406755 1.5782150175 -0.0158287429
O 3.8872053266 1.2457758515 1.1996868824
H 5.2435960168 -1.5345950808 -0.0673710862
H 5.267268099 0.1790100764 -1.6485754772
H 4.1907226833 -0.5184788292 2.3638793482
H 6.3443277685 0.7835250711 2.5599810293
H 6.799109138 -0.4213433265 1.316131214
H 6.4254027642 2.5271264603 0.938935567
H 6.8693845685 1.353568536 -0.3378748332
H 4.3173070603 2.5338248218 -0.4560673609
O -1.1167450607 0.5120279381 -0.6140029007
C -3.0369035088 3.8787327585 0.3802475304
C -5.4351509685 -0.4234246762 0.5250540362
C -6.3095749872 -1.2740171691 -0.4773598713
C -5.2641827727 -2.3540323454 -0.94464491
C -3.9988128644 -1.95246867 -0.0859642114
O -4.5769833983 -1.438160781 1.1772070304
H -4.892524792 0.8767755927 -1.2265442346
H -3.2510631031 -0.7373249982 -1.8277710096
H -2.0003963567 3.6110278767 0.6705153181
H -6.0023492513 0.1475562383 1.2853546098
H -7.157474275 -1.7367177933 0.0526796079
H -6.7010214704 -0.6686000334 -1.3104184806
H -5.5939811571 -3.3738502548 -0.6906696825
H -5.0614989724 -2.3081194883 -2.0267145943
H -3.2852365947 -2.7725890569 0.120180512
H -3.5982542184 4.1605187236 1.2943427129
H -3.0161030565 4.7322442274 -0.3218514839
H 0.7245385274 -1.1426857466 -3.1258680048
H 1.2383318323 0.5903441382 -3.3357056856
H 0.2046916929 0.1184345618 -1.9179075878
H 0.8251374791 -2.7941158793 1.0418488379
H 0.5011325356 -1.7695238825 -0.3985957558
H -0.2846706925 -1.2056156256 2.5557175121
H -0.0133689345 0.1670039458 1.4004378687
$end

$rem
JOBTYPE                   OPT
METHOD                    B3LYP
DFT_D                     d3_op
BASIS                     STO-3G
GEOM_OPT_MAX_CYCLES       100
GEOM_OPT_TOL_GRADIENT     300
GEOM_OPT_TOL_DISPLACEMENT 1200
GEOM_OPT_TOL_ENERGY       100
SYMMETRY                  False
THRESH                    12
SCF_CONVERGENCE           8
MAX_SUB_FILE_NUM          128
MEM_STATIC                400
MEM_TOTAL                 4000
$end
--------------------------------------------------------------

   16   -1510.2824890750      5.63E-09 Convergence criterion met
 Total energy in the final basis set = -1510.28248908
   15   -1510.2815873634      4.46E-09 Convergence criterion met
 Total energy in the final basis set = -1510.28158736
   14   -1510.2807920156      4.47E-09 Convergence criterion met
 Total energy in the final basis set = -1510.28079202
   14   -1510.2835804812      9.83E-09 Convergence criterion met
 Total energy in the final basis set = -1510.28358048
   13   -1510.2848908818      7.08E-09 Convergence criterion met
 Total energy in the final basis set = -1510.28489088
   13   -1510.2860454498      5.89E-09 Convergence criterion met
 Total energy in the final basis set = -1510.28604545
   13   -1510.2867444554      8.06E-09 Convergence criterion met
 Total energy in the final basis set = -1510.28674446
   13   -1510.2873823507      5.15E-09 Convergence criterion met
   11   -1510.2937691161      7.36E-09 Convergence criterion met
 Total energy in the final basis set = -1510.29376912
   11   -1510.2937708053      3.89E-09 Convergence criterion met
 Total energy in the final basis set = -1510.29377081
   11   -1510.2937649406      4.42E-09 Convergence criterion met
 Total energy in the final basis set = -1510.29376494
    9   -1510.2937616956      5.39E-09 Convergence criterion met
 Total energy in the final basis set = -1510.29376170
    9   -1510.2937583754      3.89E-09 Convergence criterion met
 Total energy in the final basis set = -1510.29375838
    9   -1510.2937560407      3.48E-09 Convergence criterion met
 Total energy in the final basis set = -1510.29375604

             Standard Nuclear Orientation (Angstroms)
    I     Atom           X                Y                Z
 ----------------------------------------------------------------
    1      O      -1.9322108768     1.3790718603    -0.6921500501
    2      C      -3.1793308685     1.4640401958    -0.7759284352
    3      C      -4.2039419816     0.2823051052    -0.8597802902
    4      C      -3.5205671080    -1.1411505042    -0.7135969421
    5      C      -1.9535736684    -1.0721418936    -0.5741782978
    6      O      -1.6169085032    -0.9266963041     0.8065706506
    7      C      -0.1844929787    -0.5904043636     0.9915611024
    8      C       0.8077411286    -1.7484818386     0.6070316836
    9      O       2.1569876304    -1.1453851304     0.7112936363
   10      C       3.0700541590    -1.7274217848    -0.2264810838
   11      C       4.3954376303    -0.8968317098    -0.1468371135
   12      C       4.1528837122     0.6588703797    -0.3563948236
   13      C       2.6580528434     1.0283784303    -0.6761228104
   14      O       1.9079113674     1.8003944848    -0.0387339648
   15      O      -3.8924457284     2.6983163601    -0.8084347241
   16      O       2.3031905554     0.3589277769    -1.8875121228
   17      O       2.8158317712    -2.7127532117    -0.9505474261
   18      C       0.9217832524     0.7052132686    -2.3072671744
   19      C       4.9999269858    -0.8946058339     1.3243436082
   20      C       6.4715123814    -0.3196769302     1.2617265972
   21      C       6.1913786248     1.2204040061     1.0885023908
   22      C       4.6133541781     1.2362027035     1.0438620223
   23      O       4.2350912709     0.1732658800     2.0047370483
   24      H       5.1039092601    -1.3064122815    -0.8875931297
   25      H       4.7832843651     1.0401556909    -1.1804428885
   26      H       4.8929816989    -1.8541966538     1.8667299762
   27      H       7.0083615152    -0.5311692784     2.2002382025
   28      H       7.0459210375    -0.7442588611     0.4228036096
   29      H       6.5589621891     1.7963394847     1.9526247295
   30      H       6.6391827511     1.6341358390     0.1707737149
   31      H       4.1261009978     2.1926092437     1.3156145830
   32      O      -1.1410599802    -1.2481627504    -1.5144056238
   33      C      -2.9447173686     3.8338969308    -0.7048357305
   34      C      -5.1959255439     0.2735106654     0.3829339463
   35      C      -6.4027362739    -0.6888579773     0.0467900967
   36      C      -5.7190803907    -2.0976858846     0.2041134615
   37      C      -4.2456107962    -1.6810909464     0.5925225085
   38      O      -4.4353910735    -0.4639067548     1.4154602744
   39      H      -4.7603579362     0.3721809111    -1.8106627160
   40      H      -3.7429874168    -1.7692633605    -1.5943664176
   41      H      -2.2491529210     3.8626883189    -1.5682959204
   42      H      -5.4765534194     1.2823755402     0.7430120298
   43      H      -7.2182565778    -0.5510922817     0.7743389345
   44      H      -6.7997279426    -0.5171837180    -0.9664578650
   45      H      -6.1800837592    -2.6807492144     1.0172075641
   46      H      -5.7530844751    -2.6946554088    -0.7211750026
   47      H      -3.6713409866    -2.4416211267     1.1553077624
   48      H      -2.3473210914     3.7799617830     0.2279198942
   49      H      -3.5660925402     4.7480675840    -0.6981064210
   50      H       0.9369031778     0.8159786348    -3.4076406354
   51      H       0.6014821634     1.6523745163    -1.8307663787
   52      H       0.2079231195    -0.1040150390    -2.0192611787
   53      H       0.7090865254    -2.6084745957     1.3041654180
   54      H       0.6107263024    -2.0964080262    -0.4285782554
   55      H      -0.0828830179    -0.3541205752     2.0695632113
   56      H       0.0781994045     0.3188255978     0.4075287091
 ----------------------------------------------------------------

    9   -1510.2937533677      2.43E-09 Convergence criterion met
 Total energy in the final basis set = -1510.29375337
 Final energy is   -1510.29375336774
 **  OPTIMIZATION CONVERGED  **

                    Orbital Energies (a.u.)
 --------------------------------------------------------------

 Alpha MOs
 -- Occupied --
-18.948 -18.930 -18.924 -18.918 -18.891 -18.890 -18.882 -18.870
-18.868 -18.862 -10.111 -10.103 -10.092 -10.089 -10.072 -10.064
-10.061 -10.060 -10.058 -10.055 -10.051 -10.044 -10.037 -10.031
-10.029 -10.029 -10.023 -10.021 -10.016 -10.015  -1.024  -1.008
 -1.004  -0.994  -0.973  -0.964  -0.947  -0.935  -0.928  -0.923
 -0.766  -0.757  -0.727  -0.721  -0.712  -0.701  -0.688  -0.669
 -0.643  -0.610  -0.594  -0.578  -0.548  -0.540  -0.539  -0.531
 -0.516  -0.505  -0.487  -0.470  -0.466  -0.456  -0.449  -0.439
 -0.436  -0.429  -0.425  -0.418  -0.413  -0.398  -0.397  -0.395
 -0.384  -0.380  -0.374  -0.364  -0.360  -0.355  -0.351  -0.341
 -0.338  -0.336  -0.334  -0.328  -0.326  -0.320  -0.320  -0.316
 -0.308  -0.304  -0.302  -0.299  -0.290  -0.284  -0.283  -0.274
 -0.267  -0.263  -0.248  -0.239  -0.236  -0.235  -0.228  -0.189
 -0.177  -0.168  -0.165  -0.157  -0.149  -0.148  -0.144  -0.141
 -0.137

          Ground-State Mulliken Net Atomic Charges

     Atom                 Charge (a.u.)
  ----------------------------------------
      1 O                    -0.207071
      2 C                     0.215954
      3 C                    -0.078182
      4 C                    -0.081394
      5 C                     0.223357
      6 O                    -0.168612
      7 C                    -0.050682
      8 C                    -0.056225
      9 O                    -0.172350
     10 C                     0.213115
     11 C                    -0.078074
     12 C                    -0.077649
     13 C                     0.213013
     14 O                    -0.220277
     15 O                    -0.167478
     16 O                    -0.177385
     17 O                    -0.210749
     18 C                    -0.151885
     19 C                     0.025951
     20 C                    -0.144056
     21 C                    -0.143875
     22 C                     0.024266
     23 O                    -0.186054
     24 H                     0.084697
     25 H                     0.082925
     26 H                     0.081621
     27 H                     0.076955
     28 H                     0.073155
     29 H                     0.076906
     30 H                     0.072367
     31 H                     0.088971
     32 O                    -0.223818
     33 C                    -0.128065
     34 C                     0.025099
     35 C                    -0.143718
     36 C                    -0.144268
     37 C                     0.026704
     38 O                    -0.186882
     39 H                     0.087516
     40 H                     0.084350
     41 H                     0.091279
     42 H                     0.087539
     43 H                     0.078784
     44 H                     0.073823
     45 H                     0.078522
     46 H                     0.074001
     47 H                     0.087884
     48 H                     0.095051
     49 H                     0.093161
     50 H                     0.078300
     51 H                     0.090107
     52 H                     0.109402
     53 H                     0.080527
     54 H                     0.105126
     55 H                     0.092893
     56 H                     0.105427
  ----------------------------------------
  Sum of atomic charges =    -0.000000

                    Cartesian Multipole Moments
 -----------------------------------------------------------------
    Charge (ESU x 10^10)
                 0.0000
    Dipole Moment (Debye)
         X      -1.7385      Y       1.2352      Z      -0.9144
       Tot       2.3203
    Quadrupole Moments (Debye-Ang)
        XX    -133.3325     XY       3.0954     YY    -154.4039
        XZ       5.7770     YZ      -6.7296     ZZ    -164.9809

 Total job time:  148.10s(wall), 7059.79s(cpu)
        *  Thank you very much for using Q-Chem.  Have a nice day.  *
