 Q-Chem 5.0, Q-Chem, Inc., Pleasanton, CA (2017)
 Q-Chem 5.0.1 for Intel X86 EM64T Linux

User input:
--------------------------------------------------------------
$molecule
0  1
O -3.94934 -3.66094 2.70899
C -3.26408 -4.56952 2.26188
C -3.36658 -6.02376 2.66595
C -2.68452 -6.43757 3.98026
C -2.12848 -5.31869 4.83291
O -2.94257 -5.1068 5.90891
C -2.43558 -4.11929 6.81282
C -1.41185 -4.74487 7.75449
O -0.66583 -3.71418 8.42083
C 0.27492 -4.14825 9.29589
C 1.12491 -3.02923 9.84903
C 2.33741 -2.65014 8.98624
C 2.32626 -3.17411 7.56425
O 2.97777 -2.71812 6.63572
O -2.43765 -4.30288 1.21605
O 1.89982 -4.45277 7.37289
O 0.28375 -5.27723 9.77097
C 1.98768 -5.15121 6.18411
C 0.40721 -1.67179 9.97444
C 1.1136 -0.80712 11.01723
C 2.39339 -0.46833 10.28167
C 2.11372 -1.12313 8.92418
O 0.71844 -1.01115 8.77403
H 1.45542 -3.35783 10.86093
H 3.31864 -2.91755 9.43596
H -0.673 -1.76758 10.22056
H 0.51329 0.12372 11.13323
H 1.24996 -1.28177 12.01272
H 2.4528 0.63776 10.17494
H 3.32648 -0.85751 10.74359
H 2.72606 -0.63328 8.13533
O -1.1526 -4.6447 4.52608
C -2.24691 -3.04841 0.67557
C -4.814 -6.48335 2.90725
C -4.92246 -7.99096 2.69232
C -4.18102 -8.50104 3.90906
C -3.88516 -7.17985 4.63065
O -4.98124 -6.36202 4.2979
H -2.92762 -6.60671 1.82356
H -1.84493 -7.15215 3.83109
H -1.83926 -2.3589 1.44561
H -5.55512 -5.94853 2.27353
H -5.99824 -8.26118 2.79233
H -4.54118 -8.35818 1.71522
H -4.88212 -9.12245 4.50974
H -3.25363 -9.07524 3.69579
H -3.7303 -7.38344 5.71305
H -3.20699 -2.64947 0.28394
H -1.52161 -3.11903 -0.16075
H 1.55111 -6.1616 6.32103
H 3.05043 -5.26114 5.88047
H 1.4239 -4.62066 5.38821
H -1.93123 -5.42139 8.46953
H -0.69615 -5.34534 7.15427
H -3.26592 -3.70807 7.42478
H -2.00453 -3.25145 6.26199
$end

$opt
CONSTRAINT
tors           1           2           3           4     -79.803
tors           3           4           5           6    +104.853
tors           4           5           6           7    +176.136
tors           5           6           7           8     -82.485
tors           6           7           8           9    +165.514
tors           7           8           9          10    +179.599
tors           8           9          10          11    +173.710
tors           9          10          11          12     -86.014
tors          11          12          13          14    +159.493
ENDCONSTRAINT
$end

$rem
JOBTYPE                   OPT
METHOD                    B3LYP
DFT_D                     d3_op
BASIS                     STO-3G
GEOM_OPT_MAX_CYCLES       100
GEOM_OPT_TOL_GRADIENT     300
GEOM_OPT_TOL_DISPLACEMENT 1200
GEOM_OPT_TOL_ENERGY       100
SYMMETRY                  False
THRESH                    12
SCF_CONVERGENCE           8
MAX_SUB_FILE_NUM          128
MEM_STATIC                400
MEM_TOTAL                 4000
$end
--------------------------------------------------------------

   15   -1510.1485688247      6.56E-09 Convergence criterion met
 Total energy in the final basis set = -1510.14856882
   14   -1510.2189359840      7.78E-09 Convergence criterion met
 Total energy in the final basis set = -1510.21893598
   15   -1510.2568026455      1.12E-09 Convergence criterion met
 Total energy in the final basis set = -1510.25680265
   14   -1510.2729645827      9.69E-09 Convergence criterion met
 Total energy in the final basis set = -1510.27296458
   14   -1510.2768906460      8.82E-09 Convergence criterion met
 Total energy in the final basis set = -1510.27689065
   13   -1510.2795165920      9.73E-09 Convergence criterion met
 Total energy in the final basis set = -1510.27951659
   12   -1510.2802042550      8.09E-09 Convergence criterion met
 Total energy in the final basis set = -1510.28020425
   13   -1510.2806043451      5.23E-09 Convergence criterion met
   11   -1510.2829729614      6.32E-09 Convergence criterion met
 Total energy in the final basis set = -1510.28297296
   10   -1510.2829871263      8.64E-09 Convergence criterion met
 Total energy in the final basis set = -1510.28298713
   10   -1510.2829926960      8.41E-09 Convergence criterion met
 Total energy in the final basis set = -1510.28299270
    9   -1510.2829965596      7.82E-09 Convergence criterion met
 Total energy in the final basis set = -1510.28299656
    9   -1510.2829986048      4.97E-09 Convergence criterion met
 Total energy in the final basis set = -1510.28299860
    9   -1510.2830003503      5.78E-09 Convergence criterion met
 Total energy in the final basis set = -1510.28300035

             Standard Nuclear Orientation (Angstroms)
    I     Atom           X                Y                Z
 ----------------------------------------------------------------
    1      O      -3.6479519373     1.5179213531     1.7676570802
    2      C      -3.9606536328     1.5499514891     0.5577535612
    3      C      -4.5880289685     0.3994776310    -0.3027334705
    4      C      -3.5002443465    -0.6625454991    -0.7837246026
    5      C      -2.0659455924    -0.3157236872    -0.2423729796
    6      O      -1.7190310298    -1.1974886954     0.8266245101
    7      C      -0.3299155240    -0.9305596899     1.2748595654
    8      C       0.7054235145    -1.6606557630     0.3520088335
    9      O       2.0174388871    -1.0489280403     0.6616012725
   10      C       3.0357785309    -1.6668977146    -0.1364537256
   11      C       4.3854404624    -0.9026400307     0.0837296981
   12      C       4.6217599403     0.3711097997    -0.8364162584
   13      C       3.3987722150     0.9471703849    -1.6466397919
   14      O       3.3386252270     2.1130083511    -2.0993691990
   15      O      -3.7681452099     2.6843761212    -0.2939310566
   16      O       2.3747957584    -0.0289516200    -1.8265699812
   17      O       2.8619253464    -2.6967985510    -0.8230492683
   18      C       1.1878265414     0.5627003436    -2.4946168058
   19      C       4.5506209535    -0.2620905528     1.5314942554
   20      C       6.0967985853    -0.1004900209     1.8091747727
   21      C       6.4470890333     1.0952257950     0.8480792213
   22      C       5.0240272125     1.4471622186     0.2605142137
   23      O       4.0903286713     1.1353952007     1.3679145392
   24      H       5.1897076711    -1.6355330426    -0.1072414956
   25      H       5.4451929146     0.1907826968    -1.5522608042
   26      H       3.9731032945    -0.7697069529     2.3276877473
   27      H       6.2705747556     0.1662247864     2.8639074911
   28      H       6.6626318244    -1.0168675123     1.5768590364
   29      H       6.8592672692     1.9536282485     1.4016559546
   30      H       7.1595023859     0.8102992584     0.0574746834
   31      H       4.8913302336     2.4923642166    -0.0813010273
   32      O      -1.3154027538     0.5909311299    -0.6751486632
   33      C      -3.0845156312     3.7665039574     0.4521729062
   34      C      -5.5549578590    -0.5320319740     0.5437529654
   35      C      -6.4355569256    -1.3681753014    -0.4656086542
   36      C      -5.3772059479    -2.4033196273    -1.0006225748
   37      C      -4.0962767374    -1.9943960047    -0.1691295671
   38      O      -4.6480687138    -1.5446925696     1.1302154559
   39      H      -5.1023532926     0.8538607475    -1.1678953772
   40      H      -3.4453843679    -0.6928672543    -1.8870278525
   41      H      -2.0588955612     3.4645698138     0.7481109225
   42      H      -6.1136832170    -0.0074194484     1.3427628004
   43      H      -7.2577991547    -1.8712650560     0.0678759043
   44      H      -6.8631037565    -0.7421598379    -1.2651455940
   45      H      -5.6711732761    -3.4389752833    -0.7674971396
   46      H      -5.2112695894    -2.3198811666    -2.0867496184
   47      H      -3.3522296003    -2.7989427605    -0.0164773221
   48      H      -3.6463681063     4.0517894801     1.3647131278
   49      H      -3.0307417185     4.6280505003    -0.2382087379
   50      H       0.9234011748    -0.0822002709    -3.3544132624
   51      H       1.4403278155     1.5839233456    -2.8430625122
   52      H       0.3358168138     0.6035474250    -1.7772294184
   53      H       0.7116968596    -2.7549060714     0.5478336896
   54      H       0.4462887441    -1.5060859053    -0.7169119300
   55      H      -0.2664879334    -1.3071551996     2.3145587144
   56      H      -0.1187025574     0.1599038641     1.2573131857
 ----------------------------------------------------------------

    9   -1510.2830005654      3.84E-09 Convergence criterion met
 Total energy in the final basis set = -1510.28300057
 Final energy is   -1510.28300056536
 **  OPTIMIZATION CONVERGED  **

                    Orbital Energies (a.u.)
 --------------------------------------------------------------

 Alpha MOs
 -- Occupied --
-18.946 -18.936 -18.934 -18.925 -18.889 -18.885 -18.883 -18.874
-18.871 -18.863 -10.109 -10.099 -10.098 -10.096 -10.074 -10.069
-10.062 -10.061 -10.061 -10.057 -10.056 -10.046 -10.043 -10.039
-10.038 -10.033 -10.022 -10.021 -10.019 -10.018  -1.022  -1.012
 -1.010  -1.001  -0.971  -0.968  -0.945  -0.935  -0.933  -0.929
 -0.766  -0.760  -0.728  -0.722  -0.714  -0.705  -0.693  -0.662
 -0.654  -0.615  -0.597  -0.581  -0.549  -0.542  -0.539  -0.535
 -0.517  -0.509  -0.488  -0.474  -0.464  -0.461  -0.456  -0.439
 -0.434  -0.433  -0.427  -0.412  -0.410  -0.409  -0.405  -0.400
 -0.397  -0.383  -0.376  -0.368  -0.360  -0.356  -0.353  -0.349
 -0.343  -0.339  -0.332  -0.330  -0.329  -0.326  -0.323  -0.311
 -0.310  -0.307  -0.304  -0.299  -0.292  -0.287  -0.285  -0.279
 -0.275  -0.258  -0.252  -0.248  -0.236  -0.235  -0.232  -0.186
 -0.177  -0.175  -0.166  -0.163  -0.156  -0.151  -0.146  -0.145
 -0.140

          Ground-State Mulliken Net Atomic Charges

     Atom                 Charge (a.u.)
  ----------------------------------------
      1 O                    -0.211224
      2 C                     0.204820
      3 C                    -0.078915
      4 C                    -0.077437
      5 C                     0.211133
      6 O                    -0.161090
      7 C                    -0.048825
      8 C                    -0.047833
      9 O                    -0.173457
     10 C                     0.218862
     11 C                    -0.081842
     12 C                    -0.076727
     13 C                     0.213680
     14 O                    -0.217219
     15 O                    -0.167925
     16 O                    -0.170601
     17 O                    -0.219022
     18 C                    -0.145711
     19 C                     0.025653
     20 C                    -0.143397
     21 C                    -0.144931
     22 C                     0.024250
     23 O                    -0.189493
     24 H                     0.082737
     25 H                     0.085599
     26 H                     0.085636
     27 H                     0.077424
     28 H                     0.073137
     29 H                     0.078137
     30 H                     0.073361
     31 H                     0.089426
     32 O                    -0.219494
     33 C                    -0.128619
     34 C                     0.025555
     35 C                    -0.143608
     36 C                    -0.144565
     37 C                     0.025300
     38 O                    -0.184666
     39 H                     0.086619
     40 H                     0.086106
     41 H                     0.091182
     42 H                     0.085797
     43 H                     0.078492
     44 H                     0.073589
     45 H                     0.078500
     46 H                     0.072973
     47 H                     0.089151
     48 H                     0.089543
     49 H                     0.091087
     50 H                     0.082015
     51 H                     0.100354
     52 H                     0.104031
     53 H                     0.087036
     54 H                     0.088001
     55 H                     0.095100
     56 H                     0.102316
  ----------------------------------------
  Sum of atomic charges =     0.000000

                    Cartesian Multipole Moments
 -----------------------------------------------------------------
    Charge (ESU x 10^10)
                 0.0000
    Dipole Moment (Debye)
         X      -0.5836      Y      -0.4583      Z      -1.0368
       Tot       1.2750
    Quadrupole Moments (Debye-Ang)
        XX    -137.8092     XY      -1.7943     YY    -162.0493
        XZ      12.0229     YZ       1.3881     ZZ    -163.2121

 Total job time:  69.02s(wall), 3153.48s(cpu)
        *  Thank you very much for using Q-Chem.  Have a nice day.  *
