 Q-Chem 5.0, Q-Chem, Inc., Pleasanton, CA (2017)
 Q-Chem 5.0.1 for Intel X86 EM64T Linux

User input:
--------------------------------------------------------------
$molecule
0  1
O -3.6479519373 1.5179213531 1.7676570802
C -3.9606536328 1.5499514891 0.5577535612
C -4.5880289685 0.399477631 -0.3027334705
C -3.5002443465 -0.6625454991 -0.7837246026
C -2.0659455924 -0.3157236872 -0.2423729796
O -1.7190310298 -1.1974886954 0.8266245101
C -0.329915524 -0.9305596899 1.2748595654
C 0.7054235145 -1.660655763 0.3520088335
O 2.0174388871 -1.0489280403 0.6616012725
C 3.0357785309 -1.6668977146 -0.1364537256
C 4.3854404624 -0.9026400307 0.0837296981
C 4.6217599403 0.3711097997 -0.8364162584
C 3.398772215 0.9471703849 -1.6466397919
O 3.338625227 2.1130083511 -2.099369199
O -3.7681452099 2.6843761212 -0.2939310566
O 2.3747957584 -0.02895162 -1.8265699812
O 2.8619253464 -2.696798551 -0.8230492683
C 1.1878265414 0.5627003436 -2.4946168058
C 4.5506209535 -0.2620905528 1.5314942554
C 6.0967985853 -0.1004900209 1.8091747727
C 6.4470890333 1.095225795 0.8480792213
C 5.0240272125 1.4471622186 0.2605142137
O 4.0903286713 1.1353952007 1.3679145392
H 5.1897076711 -1.6355330426 -0.1072414956
H 5.4451929146 0.1907826968 -1.5522608042
H 3.9731032945 -0.7697069529 2.3276877473
H 6.2705747556 0.1662247864 2.8639074911
H 6.6626318244 -1.0168675123 1.5768590364
H 6.8592672692 1.9536282485 1.4016559546
H 7.1595023859 0.8102992584 0.0574746834
H 4.8913302336 2.4923642166 -0.0813010273
O -1.3154027538 0.5909311299 -0.6751486632
C -3.0845156312 3.7665039574 0.4521729062
C -5.554957859 -0.532031974 0.5437529654
C -6.4355569256 -1.3681753014 -0.4656086542
C -5.3772059479 -2.4033196273 -1.0006225748
C -4.0962767374 -1.9943960047 -0.1691295671
O -4.6480687138 -1.5446925696 1.1302154559
H -5.1023532926 0.8538607475 -1.1678953772
H -3.4453843679 -0.6928672543 -1.8870278525
H -2.0588955612 3.4645698138 0.7481109225
H -6.113683217 -0.0074194484 1.3427628004
H -7.2577991547 -1.871265056 0.0678759043
H -6.8631037565 -0.7421598379 -1.265145594
H -5.6711732761 -3.4389752833 -0.7674971396
H -5.2112695894 -2.3198811666 -2.0867496184
H -3.3522296003 -2.7989427605 -0.0164773221
H -3.6463681063 4.0517894801 1.3647131278
H -3.0307417185 4.6280505003 -0.2382087379
H 0.9234011748 -0.0822002709 -3.3544132624
H 1.4403278155 1.5839233456 -2.8430625122
H 0.3358168138 0.603547425 -1.7772294184
H 0.7116968596 -2.7549060714 0.5478336896
H 0.4462887441 -1.5060859053 -0.71691193
H -0.2664879334 -1.3071551996 2.3145587144
H -0.1187025574 0.1599038641 1.2573131857
$end

$rem
JOBTYPE                   OPT
METHOD                    B3LYP
DFT_D                     d3_op
BASIS                     STO-3G
GEOM_OPT_MAX_CYCLES       100
GEOM_OPT_TOL_GRADIENT     300
GEOM_OPT_TOL_DISPLACEMENT 1200
GEOM_OPT_TOL_ENERGY       100
SYMMETRY                  False
THRESH                    12
SCF_CONVERGENCE           8
MAX_SUB_FILE_NUM          128
MEM_STATIC                400
MEM_TOTAL                 4000
$end
--------------------------------------------------------------

   16   -1510.2829635892      5.38E-09 Convergence criterion met
 Total energy in the final basis set = -1510.28296359
   14   -1510.2567541169      6.87E-09 Convergence criterion met
 Total energy in the final basis set = -1510.25675412
   14   -1510.2833708960      5.33E-09 Convergence criterion met
 Total energy in the final basis set = -1510.28337090
   14   -1510.2819141032      3.20E-09 Convergence criterion met
 Total energy in the final basis set = -1510.28191410
   14   -1510.2844264025      8.08E-09 Convergence criterion met
 Total energy in the final basis set = -1510.28442640
   14   -1510.2849511503      6.34E-09 Convergence criterion met
 Total energy in the final basis set = -1510.28495115
   14   -1510.2858130116      4.76E-09 Convergence criterion met
 Total energy in the final basis set = -1510.28581301
   13   -1510.2863775010      5.48E-09 Convergence criterion met
   12   -1510.2940248446      6.22E-09 Convergence criterion met
 Total energy in the final basis set = -1510.29402484
   11   -1510.2940304071      8.67E-09 Convergence criterion met
 Total energy in the final basis set = -1510.29403041
   12   -1510.2940262798      8.08E-09 Convergence criterion met
 Total energy in the final basis set = -1510.29402628
   12   -1510.2940324825      2.11E-09 Convergence criterion met
 Total energy in the final basis set = -1510.29403248
   11   -1510.2940374830      3.44E-09 Convergence criterion met
 Total energy in the final basis set = -1510.29403748
   10   -1510.2940391539      4.36E-09 Convergence criterion met
 Total energy in the final basis set = -1510.29403915

             Standard Nuclear Orientation (Angstroms)
    I     Atom           X                Y                Z
 ----------------------------------------------------------------
    1      O      -3.6793975320     2.6422643706    -0.0952907779
    2      C      -3.6945584036     1.6799303361    -0.8911993573
    3      C      -4.4761322519     0.3227056711    -0.7311229922
    4      C      -3.5998473263    -0.9078095135    -0.2609345426
    5      C      -2.1060981423    -0.5365449477     0.0215729376
    6      O      -1.4405625880    -1.6987739187     0.5092960981
    7      C      -0.0172795877    -1.4113518460     0.8122919950
    8      C       0.8891190949    -1.6695907770    -0.4428120121
    9      O       2.2385231296    -1.2324773345    -0.0229584747
   10      C       3.1265691807    -1.1067631069    -1.1421227171
   11      C       4.4501411659    -0.4801737109    -0.5896408949
   12      C       4.1738215870     0.7879818388     0.3235715838
   13      C       2.6645566520     1.2342093878     0.3516904221
   14      O       1.9351076066     1.4219262650     1.3483789530
   15      O      -3.1004093475     1.6964264952    -2.1981729487
   16      O       2.2703628761     1.4670199440    -1.0052801364
   17      O       2.8464759927    -1.4508176508    -2.3088772593
   18      C       0.8959875975     2.0169405515    -1.0735526457
   19      C       5.1459858542    -1.4440803753     0.4682914969
   20      C       6.5910200871    -0.8847361626     0.7855098896
   21      C       6.2518794648     0.3204412379     1.7400072086
   22      C       4.6746310703     0.2714477781     1.7350497721
   23      O       4.3839840672    -1.1815527242     1.7085764197
   24      H       5.1108434954    -0.2464238125    -1.4422887372
   25      H       4.7752649786     1.6488331324    -0.0218181192
   26      H       5.1046031539    -2.5193399281     0.2064340291
   27      H       7.1965778985    -1.6499977544     1.2963874377
   28      H       7.1200875623    -0.5671550431    -0.1272838035
   29      H       6.6385474934     0.1489413118     2.7572682169
   30      H       6.6426755730     1.2817191965     1.3698468697
   31      H       4.1677510777     0.7516926584     2.5947285382
   32      O      -1.5684231706     0.5870983901    -0.1196794096
   33      C      -2.3752439575     2.9703602097    -2.3972815583
   34      C      -5.5307753138     0.4092494334     0.4523839428
   35      C      -6.5801678966    -0.7564791630     0.2709962664
   36      C      -5.7203723278    -2.0043894059     0.6969920673
   37      C      -4.3507184671    -1.3164534902     1.0805971357
   38      O      -4.7545383520    -0.0099580093     1.6434825233
   39      H      -4.9635697775     0.0973494085    -1.6962400322
   40      H      -3.6189567556    -1.7321319168    -0.9972821826
   41      H      -1.6602840156     3.1628998581    -1.5730159089
   42      H      -5.9542299555     1.4203073454     0.6071335843
   43      H      -7.4394026968    -0.6098272723     0.9446042248
   44      H      -6.9504316179    -0.8263874212    -0.7643518292
   45      H      -6.1525896290    -2.5143128711     1.5726382559
   46      H      -5.6005543447    -2.7374924422    -0.1166289664
   47      H      -3.7195076862    -1.8780534553     1.7964883404
   48      H      -3.0737810111     3.8300313676    -2.4642331959
   49      H      -1.8274416587     2.8679420644    -3.3522189608
   50      H       0.6872998230     2.1508140018    -2.1505699999
   51      H       0.8360896612     3.0015326508    -0.5667865315
   52      H       0.1260125890     1.3448121233    -0.6288373097
   53      H       0.8818727686    -2.7451795501    -0.7247000892
   54      H       0.5327008648    -1.0790701093    -1.3145965964
   55      H       0.2697487586    -2.0976858594     1.6336985181
   56      H       0.1175628557    -0.3586510758     1.1438922709
 ----------------------------------------------------------------

    9   -1510.2940387951      3.29E-09 Convergence criterion met
 Total energy in the final basis set = -1510.29403880
 Final energy is   -1510.29403879505
 **  OPTIMIZATION CONVERGED  **

                    Orbital Energies (a.u.)
 --------------------------------------------------------------

 Alpha MOs
 -- Occupied --
-18.951 -18.935 -18.924 -18.922 -18.898 -18.889 -18.886 -18.878
-18.867 -18.863 -10.117 -10.101 -10.095 -10.092 -10.077 -10.076
-10.063 -10.061 -10.058 -10.056 -10.056 -10.045 -10.044 -10.037
-10.035 -10.034 -10.022 -10.020 -10.020 -10.018  -1.029  -1.015
 -1.000  -1.000  -0.972  -0.969  -0.953  -0.939  -0.929  -0.926
 -0.766  -0.763  -0.731  -0.723  -0.713  -0.705  -0.697  -0.658
 -0.652  -0.619  -0.597  -0.582  -0.547  -0.545  -0.539  -0.536
 -0.519  -0.509  -0.487  -0.477  -0.467  -0.458  -0.456  -0.442
 -0.434  -0.432  -0.429  -0.413  -0.409  -0.405  -0.404  -0.400
 -0.398  -0.380  -0.371  -0.368  -0.362  -0.358  -0.350  -0.348
 -0.345  -0.339  -0.336  -0.335  -0.330  -0.327  -0.325  -0.315
 -0.309  -0.307  -0.304  -0.302  -0.292  -0.290  -0.278  -0.276
 -0.273  -0.262  -0.251  -0.247  -0.243  -0.236  -0.233  -0.193
 -0.178  -0.175  -0.167  -0.164  -0.156  -0.146  -0.146  -0.143
 -0.142

          Ground-State Mulliken Net Atomic Charges

     Atom                 Charge (a.u.)
  ----------------------------------------
      1 O                    -0.215327
      2 C                     0.215052
      3 C                    -0.081688
      4 C                    -0.077205
      5 C                     0.221393
      6 O                    -0.168918
      7 C                    -0.050951
      8 C                    -0.047769
      9 O                    -0.170915
     10 C                     0.215118
     11 C                    -0.078186
     12 C                    -0.078095
     13 C                     0.214638
     14 O                    -0.217214
     15 O                    -0.175606
     16 O                    -0.179443
     17 O                    -0.210081
     18 C                    -0.144303
     19 C                     0.025652
     20 C                    -0.144146
     21 C                    -0.143498
     22 C                     0.024313
     23 O                    -0.187041
     24 H                     0.085810
     25 H                     0.083299
     26 H                     0.081626
     27 H                     0.077786
     28 H                     0.073712
     29 H                     0.077872
     30 H                     0.073186
     31 H                     0.090300
     32 O                    -0.206555
     33 C                    -0.128707
     34 C                     0.025266
     35 C                    -0.143996
     36 C                    -0.143795
     37 C                     0.025308
     38 O                    -0.188071
     39 H                     0.084327
     40 H                     0.088029
     41 H                     0.092996
     42 H                     0.089326
     43 H                     0.078619
     44 H                     0.073479
     45 H                     0.078944
     46 H                     0.073591
     47 H                     0.087457
     48 H                     0.084455
     49 H                     0.085801
     50 H                     0.082941
     51 H                     0.081370
     52 H                     0.106776
     53 H                     0.086876
     54 H                     0.090532
     55 H                     0.097039
     56 H                     0.108624
  ----------------------------------------
  Sum of atomic charges =    -0.000000

                    Cartesian Multipole Moments
 -----------------------------------------------------------------
    Charge (ESU x 10^10)
                 0.0000
    Dipole Moment (Debye)
         X       0.3086      Y      -1.3489      Z      -1.6501
       Tot       2.1535
    Quadrupole Moments (Debye-Ang)
        XX    -137.2580     XY      10.2299     YY    -157.6407
        XZ       7.9101     YZ      -5.8871     ZZ    -167.7998

 Total job time:  122.70s(wall), 5846.74s(cpu)
        *  Thank you very much for using Q-Chem.  Have a nice day.  *
