 Q-Chem 5.0, Q-Chem, Inc., Pleasanton, CA (2017)
 Q-Chem 5.0.1 for Intel X86 EM64T Linux

User input:
--------------------------------------------------------------
$molecule
0  1
O -4.1050048037 1.7038598395 1.5575580551
C -4.1942929266 1.5791162384 0.3170302569
C -4.5673595373 0.2906942304 -0.4947145289
C -3.3371828882 -0.708294981 -0.6518487006
C -2.0394651077 -0.1895965645 0.0703715147
O -1.7021704743 -1.0446058327 1.1674208047
C -0.31578671 -0.7604916979 1.6155585723
C 0.7007190106 -1.5250668127 0.7022381003
O 2.0374239186 -0.9585864427 0.994013118
C 3.018681512 -1.6417356403 0.2019697414
C 4.3752397907 -0.8603215831 0.2581448703
C 4.6369500038 0.1723986377 -0.9203203404
C 3.3975777463 0.704594609 -1.7378412161
O 3.4016516217 1.7574366183 -2.4154533662
O -3.9395922693 2.6316389798 -0.6194059489
O 2.2582469689 -0.1433690049 -1.5998461602
O 2.8127427249 -2.7203237227 -0.3955779483
C 1.0748795852 0.4461467093 -2.2764674637
C 4.59616349 0.0657578134 1.5334456123
C 6.1522824502 0.157497058 1.7786515927
C 6.588689363 1.0453421636 0.5538278764
C 5.1890732164 1.405387881 -0.0848414387
O 4.256944071 1.4298786946 1.0680685632
H 5.1640396796 -1.6338462582 0.2161126215
H 5.3825874171 -0.2195759166 -1.6366911277
H 3.9848601383 -0.2080218251 2.4144306954
H 6.359153476 0.6639478072 2.7351766799
H 6.6374827701 -0.8315728302 1.7878123449
H 7.1118052916 1.958317922 0.8791449724
H 7.2360185585 0.5029612796 -0.1539718786
H 5.1485046575 2.362956556 -0.6400509238
O -1.3445970252 0.7896832537 -0.2913273583
C -3.4848345249 3.8466024003 0.0957883163
C -5.6029027141 -0.6363073928 0.2741137768
C -6.2202325871 -1.6477289912 -0.7694960029
C -5.0095595291 -2.6296581264 -0.988599887
C -3.9363014961 -2.0212486963 -0.0001765225
O -4.7470003414 -1.4957940548 1.1227689728
H -4.947483783 0.6032998789 -1.4831614903
H -3.0828297374 -0.8477940886 -1.7187054206
H -2.5336067034 3.6639730595 0.6362546333
H -6.3350181171 -0.0868146351 0.8968546215
H -7.0875585294 -2.1680320612 -0.3327488108
H -6.5379701348 -1.1479190299 -1.698360018
H -5.264431761 -3.6596853966 -0.6930386236
H -4.6534291896 -2.6388660123 -2.0313191793
H -3.1735897628 -2.7311513077 0.3717036708
H -4.2430062423 4.2011747896 0.823720987
H -3.3265646308 4.6169693486 -0.6810226606
H 0.6901544418 -0.2896958015 -3.0091052297
H 1.3823817997 1.3762704392 -2.7948218279
H 0.288096001 0.66628552 -1.519409075
H 0.6713201757 -2.6171261954 0.9084424242
H 0.4442542561 -1.3737899375 -0.3670955416
H -0.2490152093 -1.1080247631 2.6649719684
H -0.1062472699 0.3292570319 1.5638561422
$end

$rem
JOBTYPE                   OPT
METHOD                    B3LYP
DFT_D                     d3_op
BASIS                     STO-3G
GEOM_OPT_MAX_CYCLES       100
GEOM_OPT_TOL_GRADIENT     300
GEOM_OPT_TOL_DISPLACEMENT 1200
GEOM_OPT_TOL_ENERGY       100
SYMMETRY                  False
THRESH                    12
SCF_CONVERGENCE           8
MAX_SUB_FILE_NUM          128
MEM_STATIC                400
MEM_TOTAL                 4000
$end
--------------------------------------------------------------

   16   -1510.2790002501      5.59E-09 Convergence criterion met
 Total energy in the final basis set = -1510.27900025
   15   -1510.2743387595      5.39E-09 Convergence criterion met
 Total energy in the final basis set = -1510.27433876
   14   -1510.2805704399      3.96E-09 Convergence criterion met
 Total energy in the final basis set = -1510.28057044
   14   -1510.2821954875      5.34E-09 Convergence criterion met
 Total energy in the final basis set = -1510.28219549
   14   -1510.2839271959      2.31E-09 Convergence criterion met
 Total energy in the final basis set = -1510.28392720
   13   -1510.2844975562      8.09E-09 Convergence criterion met
 Total energy in the final basis set = -1510.28449756
   13   -1510.2852012214      7.83E-09 Convergence criterion met
 Total energy in the final basis set = -1510.28520122
   14   -1510.2859912587      6.74E-09 Convergence criterion met
   11   -1510.2939922121      3.77E-09 Convergence criterion met
 Total energy in the final basis set = -1510.29399221
   11   -1510.2939850653      4.53E-09 Convergence criterion met
 Total energy in the final basis set = -1510.29398507
   11   -1510.2939969110      4.30E-09 Convergence criterion met
 Total energy in the final basis set = -1510.29399691
   10   -1510.2939908669      9.02E-09 Convergence criterion met
 Total energy in the final basis set = -1510.29399087
   10   -1510.2939951560      3.75E-09 Convergence criterion met
 Total energy in the final basis set = -1510.29399516
   10   -1510.2939924909      3.36E-09 Convergence criterion met
 Total energy in the final basis set = -1510.29399249

             Standard Nuclear Orientation (Angstroms)
    I     Atom           X                Y                Z
 ----------------------------------------------------------------
    1      O      -3.7157731226     2.5513795504    -0.1238779708
    2      C      -3.7101806967     1.5787847391    -0.9072901862
    3      C      -4.4643127681     0.2080511238    -0.7310326861
    4      C      -3.5623349969    -1.0034789432    -0.2598867802
    5      C      -2.0767717118    -0.5992884553     0.0205431632
    6      O      -1.3842276787    -1.7450400364     0.5096617763
    7      C       0.0323450536    -1.4237898183     0.8107703601
    8      C       0.9430170381    -1.6729216495    -0.4429375147
    9      O       2.2817854735    -1.1952142706    -0.0333061518
   10      C       3.1624316906    -1.0638813458    -1.1577138220
   11      C       4.4726312248    -0.3971098352    -0.6205526223
   12      C       4.1701586527     0.8831662914     0.2668332042
   13      C       2.6502953565     1.2912923868     0.2954941792
   14      O       1.9221651523     1.4813917288     1.2926170962
   15      O      -3.1169896116     1.5912120741    -2.2148176719
   16      O       2.2420322037     1.4834382116    -1.0637808996
   17      O       2.8866921682    -1.4320401995    -2.3181494507
   18      C       0.8537048384     1.9964421179    -1.1358454568
   19      C       5.1927557078    -1.3236466280     0.4545894990
   20      C       6.6278419498    -0.7288482981     0.7516426951
   21      C       6.2686910436     0.4932024151     1.6768604797
   22      C       4.6926194030     0.4098195353     1.6854103990
   23      O       4.4330361260    -1.0492061767     1.6936856014
   24      H       5.1259754360    -0.1657340687    -1.4794832002
   25      H       4.7473397183     1.7512948468    -0.1009562808
   26      H       5.1715765522    -2.4050028599     0.2166199211
   27      H       7.2497760187    -1.4690460028     1.2795011967
   28      H       7.1476292202    -0.4243138318    -0.1708198126
   29      H       6.6664419363     0.3577639520     2.6952304609
   30      H       6.6348900315     1.4526144669     1.2777586629
   31      H       4.1818752659     0.8983171537     2.5381318228
   32      O      -1.5651455634     0.5363581802    -0.1222196621
   33      C      -2.4264198713     2.8808582186    -2.4346846908
   34      C      -5.5126976436     0.2821822385     0.4589071753
   35      C      -6.5452088939    -0.8997401886     0.2860554299
   36      C      -5.6624025590    -2.1335576862     0.7061931310
   37      C      -4.3023627783    -1.4235057782     1.0838471693
   38      O      -4.7242226732    -0.1226937459     1.6468265092
   39      H      -4.9545084134    -0.0328756372    -1.6910061453
   40      H      -3.5648458027    -1.8294846896    -0.9946131653
   41      H      -1.7246238989     3.1115035172    -1.6089210710
   42      H      -5.9502026896     1.2872955245     0.6133920406
   43      H      -7.4012221450    -0.7664554062     0.9665048633
   44      H      -6.9225212346    -0.9761042481    -0.7462672421
   45      H      -6.0817016447    -2.6515378511     1.5833413009
   46      H      -5.5345252389    -2.8637694354    -0.1088021062
   47      H      -3.6598917927    -1.9742828144     1.7981374165
   48      H      -3.1490092840     3.7182365275    -2.5253242132
   49      H      -1.8679141436     2.7747640947    -3.3830156868
   50      H       0.6339368131     2.0971329530    -2.2142255121
   51      H       0.7725121694     2.9921010613    -0.6542260338
   52      H       0.1041314334     1.3171763884    -0.6676695930
   53      H       0.9635600771    -2.7515990932    -0.7119648367
   54      H       0.5684325083    -1.1028236162    -1.3207573955
   55      H       0.3342836117    -2.0962025960     1.6383144648
   56      H       0.1431321644    -0.3652437234     1.1325457095
 ----------------------------------------------------------------

    9   -1510.2939922286      7.44E-09 Convergence criterion met
 Total energy in the final basis set = -1510.29399223
 Final energy is   -1510.29399222860
 **  OPTIMIZATION CONVERGED  **

                    Orbital Energies (a.u.)
 --------------------------------------------------------------

 Alpha MOs
 -- Occupied --
-18.951 -18.935 -18.924 -18.922 -18.898 -18.889 -18.886 -18.878
-18.868 -18.863 -10.117 -10.101 -10.095 -10.092 -10.078 -10.076
-10.063 -10.061 -10.058 -10.057 -10.056 -10.045 -10.044 -10.037
-10.035 -10.034 -10.022 -10.020 -10.020 -10.018  -1.029  -1.015
 -1.000  -1.000  -0.972  -0.969  -0.953  -0.939  -0.929  -0.926
 -0.766  -0.763  -0.731  -0.723  -0.713  -0.705  -0.697  -0.658
 -0.652  -0.619  -0.597  -0.582  -0.547  -0.545  -0.539  -0.536
 -0.519  -0.509  -0.488  -0.477  -0.467  -0.458  -0.456  -0.442
 -0.434  -0.433  -0.429  -0.413  -0.409  -0.405  -0.404  -0.400
 -0.398  -0.380  -0.371  -0.368  -0.362  -0.358  -0.350  -0.348
 -0.345  -0.339  -0.336  -0.335  -0.330  -0.327  -0.325  -0.315
 -0.309  -0.306  -0.304  -0.302  -0.292  -0.290  -0.278  -0.276
 -0.273  -0.262  -0.251  -0.247  -0.243  -0.236  -0.233  -0.193
 -0.178  -0.175  -0.167  -0.164  -0.156  -0.146  -0.146  -0.143
 -0.142

          Ground-State Mulliken Net Atomic Charges

     Atom                 Charge (a.u.)
  ----------------------------------------
      1 O                    -0.215333
      2 C                     0.215133
      3 C                    -0.081694
      4 C                    -0.077140
      5 C                     0.221417
      6 O                    -0.168870
      7 C                    -0.050947
      8 C                    -0.047729
      9 O                    -0.170995
     10 C                     0.215116
     11 C                    -0.078243
     12 C                    -0.078096
     13 C                     0.214592
     14 O                    -0.216887
     15 O                    -0.175741
     16 O                    -0.179479
     17 O                    -0.210182
     18 C                    -0.144260
     19 C                     0.025688
     20 C                    -0.144132
     21 C                    -0.143511
     22 C                     0.024301
     23 O                    -0.187024
     24 H                     0.085779
     25 H                     0.083320
     26 H                     0.081631
     27 H                     0.077791
     28 H                     0.073706
     29 H                     0.077863
     30 H                     0.073141
     31 H                     0.090271
     32 O                    -0.206368
     33 C                    -0.128728
     34 C                     0.025216
     35 C                    -0.143957
     36 C                    -0.143847
     37 C                     0.025295
     38 O                    -0.188180
     39 H                     0.084308
     40 H                     0.088062
     41 H                     0.093150
     42 H                     0.089445
     43 H                     0.078618
     44 H                     0.073480
     45 H                     0.078951
     46 H                     0.073605
     47 H                     0.087424
     48 H                     0.084288
     49 H                     0.085771
     50 H                     0.082900
     51 H                     0.081230
     52 H                     0.106832
     53 H                     0.086871
     54 H                     0.090466
     55 H                     0.096965
     56 H                     0.108718
  ----------------------------------------
  Sum of atomic charges =    -0.000000

                    Cartesian Multipole Moments
 -----------------------------------------------------------------
    Charge (ESU x 10^10)
                 0.0000
    Dipole Moment (Debye)
         X       0.3145      Y      -1.3601      Z      -1.6606
       Tot       2.1695
    Quadrupole Moments (Debye-Ang)
        XX    -137.6170     XY      10.6687     YY    -157.2449
        XZ       7.7738     YZ      -5.8994     ZZ    -167.6790

 Total job time:  164.12s(wall), 4435.58s(cpu)
        *  Thank you very much for using Q-Chem.  Have a nice day.  *
