 Q-Chem 5.0, Q-Chem, Inc., Pleasanton, CA (2017)
 Q-Chem 5.0.1 for Intel X86 EM64T Linux

User input:
--------------------------------------------------------------
$molecule
0  1
O -3.94934 -3.66094 2.70899
C -3.26408 -4.56952 2.26188
C -3.36658 -6.02376 2.66595
C -2.68452 -6.43757 3.98026
C -2.12848 -5.31869 4.83291
O -2.82778 -5.23567 6.00317
C -2.17328 -4.43726 6.99485
C -1.11926 -5.26422 7.72376
O -0.26792 -4.402 8.49492
C 0.69963 -5.02657 9.2111
C 1.7348 -4.07287 9.75842
C 2.98491 -3.90234 8.88297
C 2.86872 -4.40868 7.45931
O 3.57865 -4.06588 6.52493
O -2.43868 -4.30325 1.21513
O 2.19596 -5.56932 7.23798
O 0.79448 -6.24389 9.3217
C 2.11383 -6.22789 6.02552
C 1.26439 -2.59909 9.84823
C 2.09761 -1.85036 10.88755
C 3.42565 -1.76032 10.16897
C 3.04228 -2.36277 8.81296
O 1.69158 -2.01272 8.64635
H 1.95136 -4.4024 10.7994
H 3.90584 -4.34442 9.32147
H 0.18433 -2.49196 10.0907
H 1.66813 -0.82582 10.96913
H 2.13481 -2.31082 11.89818
H 3.69528 -0.68585 10.06409
H 4.26176 -2.32055 10.64092
H 3.73747 -1.99534 8.02615
O -1.16919 -4.62495 4.51685
C -2.24937 -3.04921 0.67316
C -4.81375 -6.48432 2.91114
C -4.92338 -7.9894 2.68332
C -4.16831 -8.50988 3.88709
C -3.87741 -7.19614 4.62538
O -4.97604 -6.37751 4.3044
H -2.93053 -6.60753 1.82244
H -1.8344 -7.13588 3.81402
H -1.84168 -2.35852 1.4421
H -5.5585 -5.9443 2.28616
H -5.99845 -8.25853 2.79392
H -4.55485 -8.35052 1.6991
H -4.85833 -9.14942 4.4815
H -3.23549 -9.06926 3.65846
H -3.72316 -7.41873 5.70373
H -3.2101 -2.6515 0.28184
H -1.52471 -3.12016 -0.16369
H 1.49593 -7.1409 6.14802
H 3.12613 -6.52768 5.68033
H 1.6354 -5.5716 5.26721
H -1.6218 -6.03118 8.35478
H -0.4907 -5.77899 6.96804
H -2.91658 -4.08832 7.74243
H -1.73232 -3.51593 6.54917
$end

$opt
CONSTRAINT
tors           1           2           3           4     -79.803
tors           3           4           5           6    +113.633
tors           4           5           6           7    +165.582
tors           5           6           7           8     -82.485
tors           6           7           8           9    +167.115
tors           7           8           9          10    +178.862
tors           8           9          10          11    +167.718
tors           9          10          11          12     -94.420
tors          11          12          13          14    +159.493
ENDCONSTRAINT
$end

$rem
JOBTYPE                   OPT
METHOD                    B3LYP
DFT_D                     d3_op
BASIS                     STO-3G
GEOM_OPT_MAX_CYCLES       100
GEOM_OPT_TOL_GRADIENT     300
GEOM_OPT_TOL_DISPLACEMENT 1200
GEOM_OPT_TOL_ENERGY       100
SYMMETRY                  False
THRESH                    12
SCF_CONVERGENCE           8
MAX_SUB_FILE_NUM          128
MEM_STATIC                400
MEM_TOTAL                 4000
$end
--------------------------------------------------------------

   15   -1510.1429796552      7.22E-09 Convergence criterion met
 Total energy in the final basis set = -1510.14297966
   13   -1510.2133867700      8.76E-09 Convergence criterion met
 Total energy in the final basis set = -1510.21338677
   14   -1510.2512945499      7.69E-09 Convergence criterion met
 Total energy in the final basis set = -1510.25129455
   14   -1510.2681660259      8.76E-09 Convergence criterion met
 Total energy in the final basis set = -1510.26816603
   14   -1510.2740895623      6.06E-09 Convergence criterion met
 Total energy in the final basis set = -1510.27408956
    2   -1510.2740895621      1.37E-09 Convergence criterion met
 Total energy in the final basis set = -1510.27408956
   13   -1510.2751496543      6.54E-09 Convergence criterion met
 Total energy in the final basis set = -1510.27514965
   13   -1510.2760383704      5.79E-09 Convergence criterion met
   11   -1510.2791736342      8.51E-09 Convergence criterion met
 Total energy in the final basis set = -1510.27917363
   10   -1510.2791841725      5.70E-09 Convergence criterion met
 Total energy in the final basis set = -1510.27918417
    9   -1510.2791898436      9.20E-09 Convergence criterion met
 Total energy in the final basis set = -1510.27918984
    9   -1510.2791936182      7.76E-09 Convergence criterion met
 Total energy in the final basis set = -1510.27919362
    9   -1510.2791954552      5.01E-09 Convergence criterion met
 Total energy in the final basis set = -1510.27919546
    9   -1510.2791891845      4.55E-09 Convergence criterion met
 Total energy in the final basis set = -1510.27918918

             Standard Nuclear Orientation (Angstroms)
    I     Atom           X                Y                Z
 ----------------------------------------------------------------
    1      O      -4.1050048037     1.7038598395     1.5575580551
    2      C      -4.1942929266     1.5791162384     0.3170302569
    3      C      -4.5673595373     0.2906942304    -0.4947145289
    4      C      -3.3371828882    -0.7082949810    -0.6518487006
    5      C      -2.0394651077    -0.1895965645     0.0703715147
    6      O      -1.7021704743    -1.0446058327     1.1674208047
    7      C      -0.3157867100    -0.7604916979     1.6155585723
    8      C       0.7007190106    -1.5250668127     0.7022381003
    9      O       2.0374239186    -0.9585864427     0.9940131180
   10      C       3.0186815120    -1.6417356403     0.2019697414
   11      C       4.3752397907    -0.8603215831     0.2581448703
   12      C       4.6369500038     0.1723986377    -0.9203203404
   13      C       3.3975777463     0.7045946090    -1.7378412161
   14      O       3.4016516217     1.7574366183    -2.4154533662
   15      O      -3.9395922693     2.6316389798    -0.6194059489
   16      O       2.2582469689    -0.1433690049    -1.5998461602
   17      O       2.8127427249    -2.7203237227    -0.3955779483
   18      C       1.0748795852     0.4461467093    -2.2764674637
   19      C       4.5961634900     0.0657578134     1.5334456123
   20      C       6.1522824502     0.1574970580     1.7786515927
   21      C       6.5886893630     1.0453421636     0.5538278764
   22      C       5.1890732164     1.4053878810    -0.0848414387
   23      O       4.2569440710     1.4298786946     1.0680685632
   24      H       5.1640396796    -1.6338462582     0.2161126215
   25      H       5.3825874171    -0.2195759166    -1.6366911277
   26      H       3.9848601383    -0.2080218251     2.4144306954
   27      H       6.3591534760     0.6639478072     2.7351766799
   28      H       6.6374827701    -0.8315728302     1.7878123449
   29      H       7.1118052916     1.9583179220     0.8791449724
   30      H       7.2360185585     0.5029612796    -0.1539718786
   31      H       5.1485046575     2.3629565560    -0.6400509238
   32      O      -1.3445970252     0.7896832537    -0.2913273583
   33      C      -3.4848345249     3.8466024003     0.0957883163
   34      C      -5.6029027141    -0.6363073928     0.2741137768
   35      C      -6.2202325871    -1.6477289912    -0.7694960029
   36      C      -5.0095595291    -2.6296581264    -0.9885998870
   37      C      -3.9363014961    -2.0212486963    -0.0001765225
   38      O      -4.7470003414    -1.4957940548     1.1227689728
   39      H      -4.9474837830     0.6032998789    -1.4831614903
   40      H      -3.0828297374    -0.8477940886    -1.7187054206
   41      H      -2.5336067034     3.6639730595     0.6362546333
   42      H      -6.3350181171    -0.0868146351     0.8968546215
   43      H      -7.0875585294    -2.1680320612    -0.3327488108
   44      H      -6.5379701348    -1.1479190299    -1.6983600180
   45      H      -5.2644317610    -3.6596853966    -0.6930386236
   46      H      -4.6534291896    -2.6388660123    -2.0313191793
   47      H      -3.1735897628    -2.7311513077     0.3717036708
   48      H      -4.2430062423     4.2011747896     0.8237209870
   49      H      -3.3265646308     4.6169693486    -0.6810226606
   50      H       0.6901544418    -0.2896958015    -3.0091052297
   51      H       1.3823817997     1.3762704392    -2.7948218279
   52      H       0.2880960010     0.6662855200    -1.5194090750
   53      H       0.6713201757    -2.6171261954     0.9084424242
   54      H       0.4442542561    -1.3737899375    -0.3670955416
   55      H      -0.2490152093    -1.1080247631     2.6649719684
   56      H      -0.1062472699     0.3292570319     1.5638561422
 ----------------------------------------------------------------

    9   -1510.2791892992      3.15E-09 Convergence criterion met
 Total energy in the final basis set = -1510.27918930
 Final energy is   -1510.27918929918
 **  OPTIMIZATION CONVERGED  **

                    Orbital Energies (a.u.)
 --------------------------------------------------------------

 Alpha MOs
 -- Occupied --
-18.945 -18.937 -18.933 -18.926 -18.888 -18.885 -18.884 -18.873
-18.873 -18.866 -10.109 -10.101 -10.097 -10.097 -10.075 -10.070
-10.061 -10.061 -10.060 -10.058 -10.057 -10.050 -10.043 -10.040
-10.038 -10.034 -10.022 -10.021 -10.020 -10.018  -1.022  -1.014
 -1.009  -1.003  -0.971  -0.969  -0.946  -0.935  -0.934  -0.931
 -0.766  -0.761  -0.728  -0.722  -0.715  -0.705  -0.694  -0.661
 -0.657  -0.616  -0.598  -0.582  -0.549  -0.543  -0.539  -0.536
 -0.517  -0.510  -0.488  -0.478  -0.464  -0.461  -0.457  -0.439
 -0.435  -0.433  -0.428  -0.413  -0.411  -0.408  -0.405  -0.401
 -0.397  -0.387  -0.376  -0.368  -0.360  -0.356  -0.354  -0.350
 -0.344  -0.338  -0.332  -0.331  -0.330  -0.326  -0.324  -0.312
 -0.310  -0.307  -0.305  -0.300  -0.292  -0.288  -0.285  -0.279
 -0.276  -0.258  -0.252  -0.250  -0.237  -0.234  -0.233  -0.186
 -0.176  -0.175  -0.168  -0.164  -0.158  -0.150  -0.148  -0.145
 -0.140

          Ground-State Mulliken Net Atomic Charges

     Atom                 Charge (a.u.)
  ----------------------------------------
      1 O                    -0.211419
      2 C                     0.205726
      3 C                    -0.079185
      4 C                    -0.077489
      5 C                     0.211087
      6 O                    -0.163137
      7 C                    -0.050112
      8 C                    -0.048075
      9 O                    -0.173372
     10 C                     0.218556
     11 C                    -0.081993
     12 C                    -0.075852
     13 C                     0.214181
     14 O                    -0.216652
     15 O                    -0.167987
     16 O                    -0.171013
     17 O                    -0.218294
     18 C                    -0.144286
     19 C                     0.024669
     20 C                    -0.142680
     21 C                    -0.145373
     22 C                     0.024138
     23 O                    -0.190387
     24 H                     0.082380
     25 H                     0.086350
     26 H                     0.087534
     27 H                     0.077562
     28 H                     0.073139
     29 H                     0.078427
     30 H                     0.073485
     31 H                     0.089526
     32 O                    -0.218100
     33 C                    -0.128303
     34 C                     0.025546
     35 C                    -0.143698
     36 C                    -0.144605
     37 C                     0.024514
     38 O                    -0.185428
     39 H                     0.086201
     40 H                     0.085768
     41 H                     0.091834
     42 H                     0.085725
     43 H                     0.078458
     44 H                     0.073566
     45 H                     0.078547
     46 H                     0.072693
     47 H                     0.090411
     48 H                     0.088507
     49 H                     0.090747
     50 H                     0.081487
     51 H                     0.102406
     52 H                     0.101378
     53 H                     0.087921
     54 H                     0.087485
     55 H                     0.094327
     56 H                     0.103159
  ----------------------------------------
  Sum of atomic charges =     0.000000

                    Cartesian Multipole Moments
 -----------------------------------------------------------------
    Charge (ESU x 10^10)
                 0.0000
    Dipole Moment (Debye)
         X      -0.1168      Y      -0.7581      Z      -1.1819
       Tot       1.4090
    Quadrupole Moments (Debye-Ang)
        XX    -141.2212     XY      -1.7205     YY    -162.0665
        XZ      13.7436     YZ       1.4542     ZZ    -162.9569

 Total job time:  78.03s(wall), 3715.41s(cpu)
        *  Thank you very much for using Q-Chem.  Have a nice day.  *
