 Q-Chem 5.0, Q-Chem, Inc., Pleasanton, CA (2017)
 Q-Chem 5.0.1 for Intel X86 EM64T Linux

User input:
--------------------------------------------------------------
$molecule
0  1
O -3.94934 -3.66094 2.70899
C -3.26408 -4.56952 2.26188
C -3.36658 -6.02376 2.66595
C -2.62164 -6.45303 3.94057
C -2.00427 -5.34602 4.76608
O -2.75657 -5.12663 5.88471
C -2.17952 -4.162 6.77115
C -1.34737 -4.8623 7.84037
O -0.50853 -3.90827 8.51048
C 0.2772 -4.41227 9.49422
C 1.15955 -3.36789 10.13563
C 2.49555 -3.12096 9.4198
C 2.60122 -3.6684 8.0106
O 3.29652 -3.20252 7.11949
O -2.43291 -4.30259 1.22002
O 2.20197 -4.95758 7.83323
O 0.11144 -5.52135 9.98725
C 2.30649 -5.66222 6.65109
C 0.57098 -1.94362 10.16635
C 1.224 -1.13939 11.28892
C 2.61676 -0.94747 10.72488
C 2.44357 -1.58022 9.33898
O 1.09632 -1.33005 9.01567
H 1.33542 -3.70621 11.18259
H 3.37436 -3.50004 9.98612
H -0.53569 -1.92722 10.27377
H 0.71353 -0.14999 11.31967
H 1.18063 -1.60455 12.29718
H 2.81085 0.14469 10.63707
H 3.43439 -1.43574 11.29818
H 3.19722 -1.16245 8.63603
O -1.02266 -4.70297 4.41341
C -2.24065 -3.04811 0.68018
C -4.80684 -6.45912 2.98802
C -4.9545 -7.96359 2.7745
C -4.15386 -8.49177 3.9448
C -3.79639 -7.17897 4.6537
O -4.89469 -6.34109 4.38597
H -2.99313 -6.61031 1.79508
H -1.80313 -7.18077 3.74525
H -1.83726 -2.35803 1.45194
H -5.57351 -5.90974 2.39865
H -6.02755 -8.21454 2.93565
H -4.63724 -8.33411 1.77601
H -4.82953 -9.10577 4.58117
H -3.2489 -9.07866 3.67674
H -3.58495 -7.39027 5.72502
H -3.19922 -2.65014 0.28388
H -1.51137 -3.11833 -0.15271
H 1.89393 -6.68128 6.79836
H 3.37106 -5.74757 6.34569
H 1.72405 -5.15382 5.85297
H -2.0218 -5.40152 8.54243
H -0.68349 -5.59944 7.33551
H -2.98124 -3.56246 7.25139
H -1.54265 -3.41665 6.24264
$end

$opt
CONSTRAINT
tors           1           2           3           4     -82.986
tors           3           4           5           6    +104.853
tors           4           5           6           7    +175.445
tors           5           6           7           8     -94.275
tors           6           7           8           9    +165.514
tors           7           8           9          10    +179.599
tors           8           9          10          11    +178.542
tors           9          10          11          12     -86.014
tors          11          12          13          14    +151.281
ENDCONSTRAINT
$end

$rem
JOBTYPE                   OPT
METHOD                    B3LYP
DFT_D                     d3_op
BASIS                     STO-3G
GEOM_OPT_MAX_CYCLES       100
GEOM_OPT_TOL_GRADIENT     300
GEOM_OPT_TOL_DISPLACEMENT 1200
GEOM_OPT_TOL_ENERGY       100
SYMMETRY                  False
THRESH                    12
SCF_CONVERGENCE           8
MAX_SUB_FILE_NUM          128
MEM_STATIC                400
MEM_TOTAL                 4000
$end
--------------------------------------------------------------

   15   -1510.1507280618      6.49E-09 Convergence criterion met
 Total energy in the final basis set = -1510.15072806
   13   -1510.2203101024      9.06E-09 Convergence criterion met
 Total energy in the final basis set = -1510.22031010
   15   -1510.2575784829      1.25E-09 Convergence criterion met
 Total energy in the final basis set = -1510.25757848
   15   -1510.2737221551      1.16E-09 Convergence criterion met
 Total energy in the final basis set = -1510.27372216
   14   -1510.2786802187      5.53E-09 Convergence criterion met
 Total energy in the final basis set = -1510.27868022
   13   -1510.2797513781      4.23E-09 Convergence criterion met
 Total energy in the final basis set = -1510.27975138
   13   -1510.2798499671      4.47E-09 Convergence criterion met
 Total energy in the final basis set = -1510.27984997
   12   -1510.2803370471      9.37E-09 Convergence criterion met
   10   -1510.2814235263      8.16E-09 Convergence criterion met
 Total energy in the final basis set = -1510.28142353
   11   -1510.2814360556      5.09E-09 Convergence criterion met
 Total energy in the final basis set = -1510.28143606
   11   -1510.2814429069      3.44E-09 Convergence criterion met
 Total energy in the final basis set = -1510.28144291
    9   -1510.2814476087      7.38E-09 Convergence criterion met
 Total energy in the final basis set = -1510.28144761
    9   -1510.2814503312      7.07E-09 Convergence criterion met
 Total energy in the final basis set = -1510.28145033
    9   -1510.2814514194      6.50E-09 Convergence criterion met
 Total energy in the final basis set = -1510.28145142

             Standard Nuclear Orientation (Angstroms)
    I     Atom           X                Y                Z
 ----------------------------------------------------------------
    1      O      -3.9609290308     1.5939319149     1.6823113558
    2      C      -4.1980261052     1.5389111970     0.4562508341
    3      C      -4.7084265760     0.3075361262    -0.3687727753
    4      C      -3.5247166276    -0.6753463691    -0.7875953151
    5      C      -2.1289929215    -0.1832318940    -0.2612495784
    6      O      -1.7142878053    -0.9790844845     0.8541037490
    7      C      -0.3487101844    -0.5743253331     1.2688100530
    8      C       0.7055311776    -1.4988780864     0.5739695615
    9      O       2.0095409605    -0.8207619265     0.7477338992
   10      C       3.0423355584    -1.6091447685     0.1445664259
   11      C       4.4115006800    -0.8670625863     0.3003236415
   12      C       4.7453656300     0.1984922209    -0.8303176584
   13      C       3.5392929097     0.7210219277    -1.7037341240
   14      O       3.4832908628     1.8495863413    -2.2412335335
   15      O      -4.0128776518     2.6315554274    -0.4503150674
   16      O       2.5220021757    -0.2734696734    -1.8350995790
   17      O       2.8633203890    -2.7456158962    -0.3442588426
   18      C       1.3285665075     0.2763737439    -2.5256552714
   19      C       4.5639419094     0.0218802224     1.6108593916
   20      C       6.1045690737     0.1127304769     1.9395580110
   21      C       6.5994415425     1.0431925043     0.7699879644
   22      C       5.2340465025     1.4125361009     0.0658186853
   23      O       4.2402758902     1.3967218104     1.1666596466
   24      H       5.1842708125    -1.6568243010     0.2819708296
   25      H       5.5346006069    -0.1732486187    -1.5100741080
   26      H       3.9097859803    -0.2787834779     2.4515465185
   27      H       6.2579946883     0.5871867675     2.9221347145
   28      H       6.5951763569    -0.8736943000     1.9411892030
   29      H       7.0963316259     1.9488017791     1.1522381937
   30      H       7.2887712646     0.5270983531     0.0823900343
   31      H       5.2120511212     2.3850910230    -0.4637485973
   32      O      -1.4376789811     0.7379504536    -0.7570385117
   33      C      -3.4294375669     3.7899681875     0.2652380267
   34      C      -5.6109051557    -0.6689138851     0.4965848847
   35      C      -6.3861076750    -1.6222201234    -0.4963160965
   36      C      -5.2302972212    -2.5896669953    -0.9491467116
   37      C      -4.0113077086    -2.0258731138    -0.1163385743
   38      O      -4.6323932831    -1.5689747660     1.1484717684
   39      H      -5.2403991719     0.6800601607    -1.2615635297
   40      H      -3.4564507034    -0.7540436123    -1.8877718531
   41      H      -2.3990416763     3.5695323096     0.6122165454
   42      H      -6.2350452934    -0.1625180352     1.2578942359
   43      H      -7.1836542697    -2.1661841201     0.0344187700
   44      H      -6.8337387245    -1.0694299401    -1.3377515478
   45      H      -5.4402583945    -3.6322066666    -0.6620525541
   46      H      -5.0452779768    -2.5534646914    -2.0347586784
   47      H      -3.2016067369    -2.7513008230     0.0890538238
   48      H      -4.0432326964     4.0807923632     1.1418013668
   49      H      -3.4026709716     4.6195494085    -0.4648261182
   50      H       0.9884258974    -0.4780713646    -3.2601483171
   51      H       1.6001542949     1.2211657486    -3.0370222994
   52      H       0.5152903112     0.4725048995    -1.7913928897
   53      H       0.7118807595    -2.5125099321     1.0300249348
   54      H       0.4624639012    -1.6128485835    -0.5048140097
   55      H      -0.3020835451    -0.6759841572     2.3709658111
   56      H      -0.1611743953     0.4795789429     0.9727715173
 ----------------------------------------------------------------

    9   -1510.2814512091      2.24E-09 Convergence criterion met
 Total energy in the final basis set = -1510.28145121
 Final energy is   -1510.28145120912
 **  OPTIMIZATION CONVERGED  **

                    Orbital Energies (a.u.)
 --------------------------------------------------------------

 Alpha MOs
 -- Occupied --
-18.943 -18.938 -18.934 -18.926 -18.888 -18.885 -18.881 -18.875
-18.874 -18.864 -10.107 -10.101 -10.098 -10.096 -10.071 -10.070
-10.062 -10.061 -10.060 -10.058 -10.057 -10.054 -10.043 -10.039
-10.039 -10.034 -10.021 -10.020 -10.019 -10.018  -1.020  -1.014
 -1.009  -1.003  -0.970  -0.968  -0.944  -0.936  -0.935  -0.929
 -0.765  -0.761  -0.728  -0.722  -0.714  -0.705  -0.693  -0.662
 -0.658  -0.614  -0.597  -0.580  -0.549  -0.543  -0.538  -0.536
 -0.517  -0.510  -0.487  -0.475  -0.464  -0.462  -0.456  -0.438
 -0.436  -0.433  -0.428  -0.412  -0.411  -0.408  -0.404  -0.402
 -0.397  -0.383  -0.374  -0.369  -0.361  -0.355  -0.353  -0.350
 -0.344  -0.338  -0.333  -0.332  -0.329  -0.328  -0.323  -0.311
 -0.310  -0.307  -0.305  -0.300  -0.294  -0.287  -0.284  -0.279
 -0.276  -0.257  -0.252  -0.249  -0.239  -0.234  -0.232  -0.183
 -0.177  -0.176  -0.168  -0.163  -0.158  -0.151  -0.147  -0.144
 -0.140

          Ground-State Mulliken Net Atomic Charges

     Atom                 Charge (a.u.)
  ----------------------------------------
      1 O                    -0.210783
      2 C                     0.204699
      3 C                    -0.078634
      4 C                    -0.077460
      5 C                     0.207757
      6 O                    -0.163042
      7 C                    -0.051755
      8 C                    -0.047198
      9 O                    -0.174311
     10 C                     0.218057
     11 C                    -0.082235
     12 C                    -0.076155
     13 C                     0.214585
     14 O                    -0.214295
     15 O                    -0.167918
     16 O                    -0.169734
     17 O                    -0.219431
     18 C                    -0.139237
     19 C                     0.025175
     20 C                    -0.142800
     21 C                    -0.145236
     22 C                     0.023796
     23 O                    -0.189785
     24 H                     0.083027
     25 H                     0.085853
     26 H                     0.085895
     27 H                     0.077632
     28 H                     0.073334
     29 H                     0.078288
     30 H                     0.073273
     31 H                     0.090358
     32 O                    -0.218761
     33 C                    -0.128557
     34 C                     0.025399
     35 C                    -0.143701
     36 C                    -0.144510
     37 C                     0.025287
     38 O                    -0.184758
     39 H                     0.086476
     40 H                     0.086000
     41 H                     0.090438
     42 H                     0.086024
     43 H                     0.078334
     44 H                     0.073352
     45 H                     0.078475
     46 H                     0.072870
     47 H                     0.089104
     48 H                     0.089812
     49 H                     0.091074
     50 H                     0.085217
     51 H                     0.101867
     52 H                     0.097553
     53 H                     0.087444
     54 H                     0.086140
     55 H                     0.093768
     56 H                     0.103932
  ----------------------------------------
  Sum of atomic charges =    -0.000000

                    Cartesian Multipole Moments
 -----------------------------------------------------------------
    Charge (ESU x 10^10)
                 0.0000
    Dipole Moment (Debye)
         X      -0.3684      Y      -0.5743      Z      -1.0999
       Tot       1.2943
    Quadrupole Moments (Debye-Ang)
        XX    -138.0988     XY      -1.4628     YY    -163.1725
        XZ      12.2575     YZ       2.3295     ZZ    -162.0073

 Total job time:  68.63s(wall), 3267.04s(cpu)
        *  Thank you very much for using Q-Chem.  Have a nice day.  *
