 Q-Chem 5.0, Q-Chem, Inc., Pleasanton, CA (2017)
 Q-Chem 5.0.1 for Intel X86 EM64T Linux

User input:
--------------------------------------------------------------
$molecule
0  1
O -3.9609290308 1.5939319149 1.6823113558
C -4.1980261052 1.538911197 0.4562508341
C -4.708426576 0.3075361262 -0.3687727753
C -3.5247166276 -0.6753463691 -0.7875953151
C -2.1289929215 -0.183231894 -0.2612495784
O -1.7142878053 -0.9790844845 0.854103749
C -0.3487101844 -0.5743253331 1.268810053
C 0.7055311776 -1.4988780864 0.5739695615
O 2.0095409605 -0.8207619265 0.7477338992
C 3.0423355584 -1.6091447685 0.1445664259
C 4.41150068 -0.8670625863 0.3003236415
C 4.74536563 0.1984922209 -0.8303176584
C 3.5392929097 0.7210219277 -1.703734124
O 3.4832908628 1.8495863413 -2.2412335335
O -4.0128776518 2.6315554274 -0.4503150674
O 2.5220021757 -0.2734696734 -1.835099579
O 2.863320389 -2.7456158962 -0.3442588426
C 1.3285665075 0.2763737439 -2.5256552714
C 4.5639419094 0.0218802224 1.6108593916
C 6.1045690737 0.1127304769 1.939558011
C 6.5994415425 1.0431925043 0.7699879644
C 5.2340465025 1.4125361009 0.0658186853
O 4.2402758902 1.3967218104 1.1666596466
H 5.1842708125 -1.656824301 0.2819708296
H 5.5346006069 -0.1732486187 -1.510074108
H 3.9097859803 -0.2787834779 2.4515465185
H 6.2579946883 0.5871867675 2.9221347145
H 6.5951763569 -0.8736943 1.941189203
H 7.0963316259 1.9488017791 1.1522381937
H 7.2887712646 0.5270983531 0.0823900343
H 5.2120511212 2.385091023 -0.4637485973
O -1.4376789811 0.7379504536 -0.7570385117
C -3.4294375669 3.7899681875 0.2652380267
C -5.6109051557 -0.6689138851 0.4965848847
C -6.386107675 -1.6222201234 -0.4963160965
C -5.2302972212 -2.5896669953 -0.9491467116
C -4.0113077086 -2.0258731138 -0.1163385743
O -4.6323932831 -1.568974766 1.1484717684
H -5.2403991719 0.6800601607 -1.2615635297
H -3.4564507034 -0.7540436123 -1.8877718531
H -2.3990416763 3.5695323096 0.6122165454
H -6.2350452934 -0.1625180352 1.2578942359
H -7.1836542697 -2.1661841201 0.03441877
H -6.8337387245 -1.0694299401 -1.3377515478
H -5.4402583945 -3.6322066666 -0.6620525541
H -5.0452779768 -2.5534646914 -2.0347586784
H -3.2016067369 -2.751300823 0.0890538238
H -4.0432326964 4.0807923632 1.1418013668
H -3.4026709716 4.6195494085 -0.4648261182
H 0.9884258974 -0.4780713646 -3.2601483171
H 1.6001542949 1.2211657486 -3.0370222994
H 0.5152903112 0.4725048995 -1.7913928897
H 0.7118807595 -2.5125099321 1.0300249348
H 0.4624639012 -1.6128485835 -0.5048140097
H -0.3020835451 -0.6759841572 2.3709658111
H -0.1611743953 0.4795789429 0.9727715173
$end

$rem
JOBTYPE                   OPT
METHOD                    B3LYP
DFT_D                     d3_op
BASIS                     STO-3G
GEOM_OPT_MAX_CYCLES       100
GEOM_OPT_TOL_GRADIENT     300
GEOM_OPT_TOL_DISPLACEMENT 1200
GEOM_OPT_TOL_ENERGY       100
SYMMETRY                  False
THRESH                    12
SCF_CONVERGENCE           8
MAX_SUB_FILE_NUM          128
MEM_STATIC                400
MEM_TOTAL                 4000
$end
--------------------------------------------------------------

   16   -1510.2814427270      5.29E-09 Convergence criterion met
 Total energy in the final basis set = -1510.28144273
   15   -1510.2700863769      6.92E-09 Convergence criterion met
 Total energy in the final basis set = -1510.27008638
   14   -1510.2826970822      4.49E-09 Convergence criterion met
 Total energy in the final basis set = -1510.28269708
   14   -1510.2816375255      6.90E-09 Convergence criterion met
 Total energy in the final basis set = -1510.28163753
   14   -1510.2841396345      7.55E-09 Convergence criterion met
 Total energy in the final basis set = -1510.28413963
   13   -1510.2847304027      9.70E-09 Convergence criterion met
 Total energy in the final basis set = -1510.28473040
   13   -1510.2853510892      8.94E-09 Convergence criterion met
 Total energy in the final basis set = -1510.28535109
   13   -1510.2860052027      3.81E-09 Convergence criterion met
   12   -1510.2998939160      7.16E-09 Convergence criterion met
 Total energy in the final basis set = -1510.29989392
   11   -1510.2998972038      6.01E-09 Convergence criterion met
 Total energy in the final basis set = -1510.29989720
   10   -1510.2999027949      8.82E-09 Convergence criterion met
 Total energy in the final basis set = -1510.29990279
   11   -1510.2999018206      7.61E-09 Convergence criterion met
 Total energy in the final basis set = -1510.29990182
   11   -1510.2999037001      4.47E-09 Convergence criterion met
 Total energy in the final basis set = -1510.29990370
   11   -1510.2999026463      1.47E-09 Convergence criterion met
 Total energy in the final basis set = -1510.29990265

             Standard Nuclear Orientation (Angstroms)
    I     Atom           X                Y                Z
 ----------------------------------------------------------------
    1      O      -3.4209051206     2.1018924101     1.3773410388
    2      C      -3.2185798579     1.5489952194     0.2757740003
    3      C      -4.1087392650     0.4692495664    -0.4373105173
    4      C      -3.2929603382    -0.8174506349    -0.8863329174
    5      C      -1.7810306265    -0.7540432985    -0.4803648659
    6      O      -1.7004816046    -0.6452525933     0.9411953768
    7      C      -0.2930678690    -0.4920461382     1.3842489566
    8      C       0.5238726091    -1.8413508346     1.3460158316
    9      O       1.9655645993    -1.4880979648     1.3368096060
   10      C       2.4911885061    -1.5926590723     0.0082650098
   11      C       3.9040992820    -0.9112488948    -0.0504271483
   12      C       3.8127533301     0.5884543852    -0.5898421439
   13      C       2.3484751739     1.0156493460    -0.9490411020
   14      O       1.4574632628     1.3797577373    -0.1405361889
   15      O      -2.1066606637     1.8158477009    -0.5849092553
   16      O       2.1772622563     0.9152651398    -2.3522082104
   17      O       1.8866142584    -2.1256280309    -0.9492123466
   18      C       0.7617142735     1.1674789863    -2.7335066181
   19      C       4.5438128489    -0.6696805340     1.3786982684
   20      C       6.0648205936    -0.2850570293     1.1864657539
   21      C       5.9445148519     1.2041029308     0.6908617010
   22      C       4.3767209655     1.3871706703     0.6611892496
   23      O       3.9133278705     0.5954301783     1.8223104521
   24      H       4.5526619844    -1.5184172598    -0.7070584890
   25      H       4.4406727930     0.7202783442    -1.4883651200
   26      H       4.3463219352    -1.4771448022     2.1089357750
   27      H       6.6039915807    -0.3501323082     2.1448016492
   28      H       6.5667887094    -0.9372221829     0.4540488897
   29      H       6.3984061755     1.9058359541     1.4086096799
   30      H       6.4020239122     1.3644021745    -0.2984598670
   31      H       4.0161351024     2.4311914120     0.7376436024
   32      O      -0.7893373027    -0.8247852785    -1.2426417549
   33      C      -1.1793536758     2.8020013334     0.0220690782
   34      C      -5.1725003947    -0.1673787578     0.5478576721
   35      C      -6.2704461238    -0.9012351230    -0.3170881434
   36      C      -5.4760713195    -2.1733010371    -0.7957778454
   37      C      -4.0794677965    -1.9475274025    -0.0900250556
   38      O      -4.4339446840    -1.2836475837     1.1838033959
   39      H      -4.5954091973     0.9444175444    -1.3092764351
   40      H      -3.3424046725    -0.9701413117    -1.9785010706
   41      H      -0.1491227260     2.3904788513    -0.0701075299
   42      H      -5.5489556806     0.5350524657     1.3169201727
   43      H      -7.1332560886    -1.1778335750     0.3094879270
   44      H      -6.6257758542    -0.2803572748    -1.1547506090
   45      H      -5.9432229213    -3.1023631217    -0.4323470068
   46      H      -5.3824069588    -2.2309046169    -1.8920931805
   47      H      -3.4944408372    -2.8681617203     0.1009530415
   48      H      -1.4481721198     2.9646681538     1.0841527381
   49      H      -1.2594084165     3.7619154802    -0.5260719678
   50      H       0.7205253948     1.0178421577    -3.8273746434
   51      H       0.4610718961     2.2065112578    -2.4921846137
   52      H       0.0823645064     0.4454761219    -2.2186280065
   53      H       0.3332666914    -2.4646242471     2.2420908851
   54      H       0.2877710230    -2.4091757450     0.4200156868
   55      H      -0.3576611120    -0.1115767682     2.4221943623
   56      H       0.2543324560     0.2520637118     0.7560466655
 ----------------------------------------------------------------

    9   -1510.2999034439      2.60E-09 Convergence criterion met
 Total energy in the final basis set = -1510.29990344
 Final energy is   -1510.29990344390
 **  OPTIMIZATION CONVERGED  **

                    Orbital Energies (a.u.)
 --------------------------------------------------------------

 Alpha MOs
 -- Occupied --
-18.944 -18.932 -18.930 -18.924 -18.888 -18.885 -18.884 -18.876
-18.874 -18.871 -10.110 -10.101 -10.098 -10.095 -10.061 -10.060
-10.060 -10.059 -10.055 -10.053 -10.046 -10.041 -10.040 -10.037
-10.036 -10.035 -10.022 -10.020 -10.019 -10.018  -1.018  -1.013
 -1.008  -1.001  -0.970  -0.967  -0.942  -0.937  -0.932  -0.930
 -0.765  -0.761  -0.726  -0.722  -0.711  -0.704  -0.688  -0.659
 -0.649  -0.612  -0.596  -0.578  -0.548  -0.543  -0.538  -0.535
 -0.514  -0.507  -0.481  -0.477  -0.462  -0.460  -0.451  -0.441
 -0.433  -0.431  -0.427  -0.418  -0.412  -0.406  -0.401  -0.397
 -0.380  -0.379  -0.369  -0.366  -0.362  -0.359  -0.352  -0.349
 -0.343  -0.337  -0.332  -0.329  -0.326  -0.323  -0.318  -0.311
 -0.308  -0.306  -0.303  -0.301  -0.291  -0.286  -0.282  -0.279
 -0.272  -0.259  -0.245  -0.241  -0.237  -0.234  -0.232  -0.191
 -0.176  -0.170  -0.161  -0.159  -0.156  -0.152  -0.148  -0.144
 -0.141

          Ground-State Mulliken Net Atomic Charges

     Atom                 Charge (a.u.)
  ----------------------------------------
      1 O                    -0.212042
      2 C                     0.214337
      3 C                    -0.077793
      4 C                    -0.078608
      5 C                     0.220046
      6 O                    -0.167689
      7 C                    -0.061989
      8 C                    -0.057439
      9 O                    -0.168827
     10 C                     0.204890
     11 C                    -0.077223
     12 C                    -0.078394
     13 C                     0.218941
     14 O                    -0.221481
     15 O                    -0.178949
     16 O                    -0.161205
     17 O                    -0.207143
     18 C                    -0.143674
     19 C                     0.026179
     20 C                    -0.144505
     21 C                    -0.143682
     22 C                     0.025505
     23 O                    -0.184454
     24 H                     0.086107
     25 H                     0.087887
     26 H                     0.089109
     27 H                     0.078277
     28 H                     0.073454
     29 H                     0.078393
     30 H                     0.073625
     31 H                     0.084541
     32 O                    -0.219558
     33 C                    -0.151621
     34 C                     0.024557
     35 C                    -0.143960
     36 C                    -0.144033
     37 C                     0.026105
     38 O                    -0.185280
     39 H                     0.083769
     40 H                     0.084446
     41 H                     0.109781
     42 H                     0.090456
     43 H                     0.077941
     44 H                     0.072786
     45 H                     0.077711
     46 H                     0.073333
     47 H                     0.082199
     48 H                     0.094876
     49 H                     0.075015
     50 H                     0.087154
     51 H                     0.081705
     52 H                     0.119768
     53 H                     0.085682
     54 H                     0.100992
     55 H                     0.090007
     56 H                     0.109971
  ----------------------------------------
  Sum of atomic charges =     0.000000

                    Cartesian Multipole Moments
 -----------------------------------------------------------------
    Charge (ESU x 10^10)
                 0.0000
    Dipole Moment (Debye)
         X       1.1288      Y      -0.0268      Z      -2.0166
       Tot       2.3112
    Quadrupole Moments (Debye-Ang)
        XX    -138.3526     XY       3.8620     YY    -156.4330
        XZ       8.9481     YZ      -6.0103     ZZ    -165.7923

 Total job time:  173.60s(wall), 8256.05s(cpu)
        *  Thank you very much for using Q-Chem.  Have a nice day.  *
