 Q-Chem 5.0, Q-Chem, Inc., Pleasanton, CA (2017)
 Q-Chem 5.0.1 for Intel X86 EM64T Linux

User input:
--------------------------------------------------------------
$molecule
0  1
O -3.94934 -3.66094 2.70899
C -3.26408 -4.56952 2.26188
C -3.36658 -6.02376 2.66595
C -2.94005 -6.38691 4.09775
C -2.6273 -5.23101 5.02195
O -3.65055 -5.05669 5.90964
C -3.3588 -4.08761 6.92207
C -2.79445 -4.77531 8.16091
O -2.22766 -3.798 9.04775
C -1.69835 -4.28955 10.19551
C -1.03332 -3.22778 11.03874
C 0.43157 -2.93923 10.6794
C 0.90057 -3.47133 9.34015
O 1.8727 -3.06792 8.71823
O -2.38723 -4.29014 1.26142
O 0.46573 -4.70395 8.95959
O -1.94473 -5.40981 10.6255
C 0.88705 -5.38427 7.83328
C -1.65702 -1.8242 10.92115
C -1.3188 -1.00139 12.16314
C 0.15908 -0.7547 11.94316
C 0.34516 -1.40084 10.56562
O -0.89136 -1.19598 9.92471
H -1.11306 -3.57148 12.09546
H 1.16622 -3.26379 11.44848
H -2.75713 -1.84502 10.76005
H -1.85847 -0.03146 12.07212
H -1.58126 -1.47753 13.13231
H 0.32465 0.34405 11.88218
H 0.83569 -1.2005 12.70403
H 1.23144 -0.9594 10.05877
O -1.63227 -4.52428 4.91378
C -2.17897 -3.0308 0.73908
C -4.81017 -6.5516 2.62745
C -4.80335 -8.06428 2.42192
C -4.28929 -8.52677 3.76809
C -4.20719 -7.18677 4.51104
O -5.25429 -6.4284 3.95547
H -2.74416 -6.59273 1.93725
H -2.05287 -7.0572 4.13479
H -1.81568 -2.34308 1.5325
H -5.43636 -6.05865 1.85162
H -5.86439 -8.38592 2.31663
H -4.22313 -8.42108 1.54386
H -5.06144 -9.18151 4.23024
H -3.30952 -9.05112 3.74933
H -4.25934 -7.37434 5.60613
H -3.12147 -2.63661 0.30237
H -1.41253 -3.09077 -0.06059
H 0.36235 -6.35992 7.77891
H 1.98072 -5.57204 7.88271
H 0.64541 -4.79684 6.92163
H -3.5972 -5.3713 8.64969
H -1.98218 -5.46112 7.83756
H -4.28398 -3.53559 7.1908
H -2.64506 -3.30448 6.57914
$end

$opt
CONSTRAINT
tors           1           2           3           4     -67.808
tors           3           4           5           6    +104.853
tors           4           5           6           7    +172.822
tors           5           6           7           8     -93.825
tors           6           7           8           9    +167.112
tors           7           8           9          10    +179.599
tors           8           9          10          11    +175.957
tors           9          10          11          12     -86.014
tors          11          12          13          14    +159.493
ENDCONSTRAINT
$end

$rem
JOBTYPE                   OPT
METHOD                    B3LYP
DFT_D                     d3_op
BASIS                     STO-3G
GEOM_OPT_MAX_CYCLES       100
GEOM_OPT_TOL_GRADIENT     300
GEOM_OPT_TOL_DISPLACEMENT 1200
GEOM_OPT_TOL_ENERGY       100
SYMMETRY                  False
THRESH                    12
SCF_CONVERGENCE           8
MAX_SUB_FILE_NUM          128
MEM_STATIC                400
MEM_TOTAL                 4000
$end
--------------------------------------------------------------

   15   -1510.1489688521      6.49E-09 Convergence criterion met
 Total energy in the final basis set = -1510.14896885
   14   -1510.2193123815      7.44E-09 Convergence criterion met
 Total energy in the final basis set = -1510.21931238
   15   -1510.2570283856      1.19E-09 Convergence criterion met
 Total energy in the final basis set = -1510.25702839
   14   -1510.2727610237      8.56E-09 Convergence criterion met
 Total energy in the final basis set = -1510.27276102
   14   -1510.2762334568      8.44E-09 Convergence criterion met
 Total energy in the final basis set = -1510.27623346
   13   -1510.2787264575      4.62E-09 Convergence criterion met
 Total energy in the final basis set = -1510.27872646
   12   -1510.2791945149      8.75E-09 Convergence criterion met
 Total energy in the final basis set = -1510.27919451
   12   -1510.2794459338      6.53E-09 Convergence criterion met
   11   -1510.2808524271      7.67E-09 Convergence criterion met
 Total energy in the final basis set = -1510.28085243
   12   -1510.2808717684      2.06E-09 Convergence criterion met
 Total energy in the final basis set = -1510.28087177
   10   -1510.2808933930      7.95E-09 Convergence criterion met
 Total energy in the final basis set = -1510.28089339
   11   -1510.2809124253      5.79E-09 Convergence criterion met
 Total energy in the final basis set = -1510.28091243
   10   -1510.2809167411      7.41E-09 Convergence criterion met
 Total energy in the final basis set = -1510.28091674
    9   -1510.2809192924      7.64E-09 Convergence criterion met
 Total energy in the final basis set = -1510.28091929

             Standard Nuclear Orientation (Angstroms)
    I     Atom           X                Y                Z
 ----------------------------------------------------------------
    1      O      -3.8050808760     1.5668119551     1.5929149390
    2      C      -4.2532860100     1.5201305979     0.4265547017
    3      C      -4.6888195367     0.2506740352    -0.3820980851
    4      C      -3.4612001482    -0.6960685092    -0.7477388803
    5      C      -2.0956435535    -0.1460617715    -0.1999456393
    6      O      -1.6790549831    -0.9009032366     0.9423675835
    7      C      -0.3113632129    -0.4813137558     1.3369691448
    8      C       0.7325598678    -1.4294008540     0.6596471612
    9      O       2.0503194566    -0.7771704728     0.8301524505
   10      C       3.0630754010    -1.5993257351     0.2381121220
   11      C       4.4422742204    -0.8645362216     0.3254696509
   12      C       4.7623291065     0.1480071555    -0.8585320023
   13      C       3.5724123183     0.6182960529    -1.7811178612
   14      O       3.5914346769     1.6525992535    -2.4859599280
   15      O      -4.4475139638     2.6684326609    -0.4064973166
   16      O       2.4763113240    -0.2956557541    -1.7436785930
   17      O       2.8616972223    -2.7494494546    -0.2085025874
   18      C       1.3126168201     0.2367495805    -2.4955780232
   19      C       4.6264393606     0.0815416837     1.5914969441
   20      C       6.1746801765     0.1949429768     1.8762758983
   21      C       6.6326365476     1.0887713563     0.6639078952
   22      C       5.2480739689     1.4094977235    -0.0259429597
   23      O       4.2801772364     1.4332534317     1.0964723178
   24      H       5.2091217909    -1.6601988166     0.3258187785
   25      H       5.5611256507    -0.2493106166    -1.5120618066
   26      H       3.9973888819    -0.1856243000     2.4621226462
   27      H       6.3502689818     0.7024551454     2.8384349729
   28      H       6.6723642785    -0.7877025476     1.8978322413
   29      H       7.1199271011     2.0162061396     1.0037936009
   30      H       7.3184200321     0.5598974671    -0.0174415430
   31      H       5.2057904111     2.3566088870    -0.5987618479
   32      O      -1.4202171359     0.7770922485    -0.7138497231
   33      C      -3.9978262772     3.8894081717     0.3022386488
   34      C      -5.5810542888    -0.7433722823     0.4789119839
   35      C      -6.2931881571    -1.7404728476    -0.5187511966
   36      C      -5.0913361193    -2.6734324041    -0.9207383127
   37      C      -3.9177494825    -2.0512274238    -0.0644717496
   38      O      -4.5908421501    -1.5953881241     1.1737969256
   39      H      -5.2145235879     0.5855138129    -1.2930242457
   40      H      -3.3606912382    -0.7942383551    -1.8439519588
   41      H      -2.9181291771     3.8389634469     0.5509170671
   42      H      -6.2466739364    -0.2477942880     1.2117136380
   43      H      -7.0861552666    -2.3031765096    -0.0008346961
   44      H      -6.7354747080    -1.2183471568    -1.3822886297
   45      H      -5.2723175650    -3.7177727268    -0.6208161101
   46      H      -4.8762409194    -2.6490640367    -2.0010643253
   47      H      -3.0883908475    -2.7423797037     0.1777171664
   48      H      -4.5682830181     4.0516590129     1.2396781526
   49      H      -4.1789923797     4.7300316714    -0.3923545672
   50      H       0.9685822674    -0.5470435787    -3.1975027656
   51      H       1.6231846947     1.1431343618    -3.0529514451
   52      H       0.4911323026     0.4886445019    -1.7880805412
   53      H       0.7163112468    -2.4377002663     1.1273550615
   54      H       0.4944219683    -1.5513801246    -0.4191905827
   55      H      -0.2564096236    -0.5515236528     2.4411157896
   56      H      -0.1276962633     0.5637687893     1.0092381034
 ----------------------------------------------------------------

    9   -1510.2809197504      4.11E-09 Convergence criterion met
 Total energy in the final basis set = -1510.28091975
 Final energy is   -1510.28091975036
 **  OPTIMIZATION CONVERGED  **

                    Orbital Energies (a.u.)
 --------------------------------------------------------------

 Alpha MOs
 -- Occupied --
-18.941 -18.938 -18.935 -18.925 -18.889 -18.885 -18.879 -18.874
-18.874 -18.863 -10.106 -10.101 -10.098 -10.096 -10.070 -10.068
-10.063 -10.061 -10.061 -10.058 -10.057 -10.053 -10.042 -10.039
-10.039 -10.034 -10.022 -10.021 -10.019 -10.018  -1.019  -1.014
 -1.010  -1.002  -0.971  -0.968  -0.942  -0.935  -0.935  -0.929
 -0.765  -0.761  -0.728  -0.722  -0.714  -0.705  -0.693  -0.663
 -0.658  -0.613  -0.597  -0.579  -0.549  -0.543  -0.539  -0.536
 -0.517  -0.510  -0.488  -0.476  -0.464  -0.461  -0.455  -0.437
 -0.435  -0.433  -0.427  -0.412  -0.412  -0.408  -0.404  -0.401
 -0.396  -0.384  -0.375  -0.369  -0.360  -0.356  -0.352  -0.350
 -0.343  -0.338  -0.333  -0.332  -0.329  -0.326  -0.322  -0.311
 -0.310  -0.307  -0.305  -0.300  -0.293  -0.288  -0.284  -0.278
 -0.276  -0.257  -0.252  -0.248  -0.237  -0.234  -0.232  -0.182
 -0.178  -0.177  -0.166  -0.161  -0.158  -0.150  -0.147  -0.145
 -0.140

          Ground-State Mulliken Net Atomic Charges

     Atom                 Charge (a.u.)
  ----------------------------------------
      1 O                    -0.211175
      2 C                     0.205293
      3 C                    -0.079205
      4 C                    -0.077890
      5 C                     0.209675
      6 O                    -0.162195
      7 C                    -0.051536
      8 C                    -0.047072
      9 O                    -0.172891
     10 C                     0.218439
     11 C                    -0.082110
     12 C                    -0.076212
     13 C                     0.214321
     14 O                    -0.216034
     15 O                    -0.168065
     16 O                    -0.169758
     17 O                    -0.219744
     18 C                    -0.140109
     19 C                     0.025460
     20 C                    -0.143022
     21 C                    -0.145026
     22 C                     0.024130
     23 O                    -0.189463
     24 H                     0.082962
     25 H                     0.085895
     26 H                     0.086069
     27 H                     0.077594
     28 H                     0.073307
     29 H                     0.078309
     30 H                     0.073401
     31 H                     0.089511
     32 O                    -0.220694
     33 C                    -0.128763
     34 C                     0.025863
     35 C                    -0.143602
     36 C                    -0.144550
     37 C                     0.025590
     38 O                    -0.184258
     39 H                     0.086674
     40 H                     0.085529
     41 H                     0.091640
     42 H                     0.084590
     43 H                     0.078386
     44 H                     0.073705
     45 H                     0.078557
     46 H                     0.073017
     47 H                     0.089297
     48 H                     0.088799
     49 H                     0.090842
     50 H                     0.084103
     51 H                     0.102622
     52 H                     0.098182
     53 H                     0.087285
     54 H                     0.085963
     55 H                     0.093737
     56 H                     0.104629
  ----------------------------------------
  Sum of atomic charges =     0.000000

                    Cartesian Multipole Moments
 -----------------------------------------------------------------
    Charge (ESU x 10^10)
                 0.0000
    Dipole Moment (Debye)
         X      -0.6381      Y      -0.4942      Z      -0.9582
       Tot       1.2528
    Quadrupole Moments (Debye-Ang)
        XX    -136.9559     XY      -2.2463     YY    -162.1970
        XZ      11.7017     YZ       3.2566     ZZ    -162.3687

 Total job time:  68.76s(wall), 3273.97s(cpu)
        *  Thank you very much for using Q-Chem.  Have a nice day.  *
