 Q-Chem 5.0, Q-Chem, Inc., Pleasanton, CA (2017)
 Q-Chem 5.0.1 for Intel X86 EM64T Linux

User input:
--------------------------------------------------------------
$molecule
0  1
O -3.805080876 1.5668119551 1.592914939
C -4.25328601 1.5201305979 0.4265547017
C -4.6888195367 0.2506740352 -0.3820980851
C -3.4612001482 -0.6960685092 -0.7477388803
C -2.0956435535 -0.1460617715 -0.1999456393
O -1.6790549831 -0.9009032366 0.9423675835
C -0.3113632129 -0.4813137558 1.3369691448
C 0.7325598678 -1.429400854 0.6596471612
O 2.0503194566 -0.7771704728 0.8301524505
C 3.063075401 -1.5993257351 0.238112122
C 4.4422742204 -0.8645362216 0.3254696509
C 4.7623291065 0.1480071555 -0.8585320023
C 3.5724123183 0.6182960529 -1.7811178612
O 3.5914346769 1.6525992535 -2.485959928
O -4.4475139638 2.6684326609 -0.4064973166
O 2.476311324 -0.2956557541 -1.743678593
O 2.8616972223 -2.7494494546 -0.2085025874
C 1.3126168201 0.2367495805 -2.4955780232
C 4.6264393606 0.0815416837 1.5914969441
C 6.1746801765 0.1949429768 1.8762758983
C 6.6326365476 1.0887713563 0.6639078952
C 5.2480739689 1.4094977235 -0.0259429597
O 4.2801772364 1.4332534317 1.0964723178
H 5.2091217909 -1.6601988166 0.3258187785
H 5.5611256507 -0.2493106166 -1.5120618066
H 3.9973888819 -0.1856243 2.4621226462
H 6.3502689818 0.7024551454 2.8384349729
H 6.6723642785 -0.7877025476 1.8978322413
H 7.1199271011 2.0162061396 1.0037936009
H 7.3184200321 0.5598974671 -0.017441543
H 5.2057904111 2.356608887 -0.5987618479
O -1.4202171359 0.7770922485 -0.7138497231
C -3.9978262772 3.8894081717 0.3022386488
C -5.5810542888 -0.7433722823 0.4789119839
C -6.2931881571 -1.7404728476 -0.5187511966
C -5.0913361193 -2.6734324041 -0.9207383127
C -3.9177494825 -2.0512274238 -0.0644717496
O -4.5908421501 -1.5953881241 1.1737969256
H -5.2145235879 0.5855138129 -1.2930242457
H -3.3606912382 -0.7942383551 -1.8439519588
H -2.9181291771 3.8389634469 0.5509170671
H -6.2466739364 -0.247794288 1.211713638
H -7.0861552666 -2.3031765096 -0.0008346961
H -6.735474708 -1.2183471568 -1.3822886297
H -5.272317565 -3.7177727268 -0.6208161101
H -4.8762409194 -2.6490640367 -2.0010643253
H -3.0883908475 -2.7423797037 0.1777171664
H -4.5682830181 4.0516590129 1.2396781526
H -4.1789923797 4.7300316714 -0.3923545672
H 0.9685822674 -0.5470435787 -3.1975027656
H 1.6231846947 1.1431343618 -3.0529514451
H 0.4911323026 0.4886445019 -1.7880805412
H 0.7163112468 -2.4377002663 1.1273550615
H 0.4944219683 -1.5513801246 -0.4191905827
H -0.2564096236 -0.5515236528 2.4411157896
H -0.1276962633 0.5637687893 1.0092381034
$end

$rem
JOBTYPE                   OPT
METHOD                    B3LYP
DFT_D                     d3_op
BASIS                     STO-3G
GEOM_OPT_MAX_CYCLES       100
GEOM_OPT_TOL_GRADIENT     300
GEOM_OPT_TOL_DISPLACEMENT 1200
GEOM_OPT_TOL_ENERGY       100
SYMMETRY                  False
THRESH                    12
SCF_CONVERGENCE           8
MAX_SUB_FILE_NUM          128
MEM_STATIC                400
MEM_TOTAL                 4000
$end
--------------------------------------------------------------

   16   -1510.2809153351      5.55E-09 Convergence criterion met
 Total energy in the final basis set = -1510.28091534
   15   -1510.2713517544      6.76E-09 Convergence criterion met
 Total energy in the final basis set = -1510.27135175
   14   -1510.2820882734      3.75E-09 Convergence criterion met
 Total energy in the final basis set = -1510.28208827
   14   -1510.2813739822      4.24E-09 Convergence criterion met
 Total energy in the final basis set = -1510.28137398
   14   -1510.2839361264      8.11E-09 Convergence criterion met
 Total energy in the final basis set = -1510.28393613
   14   -1510.2844580992      2.93E-09 Convergence criterion met
 Total energy in the final basis set = -1510.28445810
   13   -1510.2850863711      8.91E-09 Convergence criterion met
 Total energy in the final basis set = -1510.28508637
   13   -1510.2857442792      4.08E-09 Convergence criterion met
   12   -1510.2937912095      9.27E-09 Convergence criterion met
 Total energy in the final basis set = -1510.29379121
   12   -1510.2938504195      6.21E-09 Convergence criterion met
 Total energy in the final basis set = -1510.29385042
   13   -1510.2938591235      1.88E-09 Convergence criterion met
 Total energy in the final basis set = -1510.29385912
   13   -1510.2938492869      1.50E-09 Convergence criterion met
 Total energy in the final basis set = -1510.29384929
   12   -1510.2938807709      3.98E-09 Convergence criterion met
 Total energy in the final basis set = -1510.29388077
   12   -1510.2938977603      3.92E-09 Convergence criterion met
 Total energy in the final basis set = -1510.29389776

             Standard Nuclear Orientation (Angstroms)
    I     Atom           X                Y                Z
 ----------------------------------------------------------------
    1      O      -2.2381458582     1.6268851446    -0.6679175552
    2      C      -3.4869902646     1.5612101263    -0.5939103665
    3      C      -4.3736861157     0.2830980602    -0.7749533342
    4      C      -3.5180874876    -1.0453707992    -0.8876420302
    5      C      -1.9656017455    -0.8176033279    -0.7611171757
    6      O      -1.6260250009    -0.7108612798     0.6233407572
    7      C      -0.1972467463    -0.3590772363     0.7985423163
    8      C       0.7710729811    -1.5585641750     0.4941632968
    9      O       2.1363059759    -1.0080099934     0.6565054240
   10      C       3.0885584076    -1.7360776616    -0.1280869991
   11      C       4.4543350396    -0.9834381481    -0.0047819156
   12      C       4.3316899605     0.5636112558    -0.3412317228
   13      C       2.8909158386     1.0065631746    -0.7927445753
   14      O       2.1713235275     1.8937937767    -0.2842665398
   15      O      -4.3318262033     2.6813224929    -0.3390588788
   16      O       2.5607294968     0.2596282731    -1.9660056130
   17      O       2.8331086686    -2.7757888109    -0.7713301383
   18      C       1.2524866742     0.6886577898    -2.5213070340
   19      C       4.9512048068    -0.9087522042     1.5055351022
   20      C       6.4602450331    -0.4379016596     1.5125009254
   21      C       6.3030813283     1.0975855149     1.2036678944
   22      C       4.7372817323     1.2148354835     1.0436192935
   23      O       4.2177574708     0.2560055947     2.0472397175
   24      H       5.1867765713    -1.4899371432    -0.6567779241
   25      H       5.0409296288     0.8411880899    -1.1426336880
   26      H       4.7381808226    -1.8152626740     2.1051281370
   27      H       6.9109935977    -0.6081509126     2.5030713795
   28      H       7.0617987292    -0.9652599068     0.7550320099
   29      H       6.6528622250     1.7160867096     2.0454552542
   30      H       6.8393789762     1.4053004425     0.2918563281
   31      H       4.3040901667     2.2201507598     1.2104406078
   32      O      -1.1467427880    -0.8572835781    -1.7099052992
   33      C      -3.5124129836     3.9046795692    -0.1651151659
   34      C      -5.2683204229    -0.0332641147     0.5024175317
   35      C      -6.3914900665    -1.0561506065     0.0705158824
   36      C      -5.5540820664    -2.3815992334    -0.0675699469
   37      C      -4.1102483023    -1.8765839284     0.3290486194
   38      O      -4.3724601878    -0.8426533854     1.3571482145
   39      H      -5.0076643319     0.4302154441    -1.6688523493
   40      H      -3.6965786873    -1.5471968917    -1.8549152232
   41      H      -2.9372207994     4.1418347878    -1.0832977954
   42      H      -5.6217968940     0.8670962399     1.0414532471
   43      H      -7.1558505616    -1.1412208963     0.8592788767
   44      H      -6.8843492957    -0.7608593575    -0.8693754318
   45      H      -5.8994142111    -3.1531411113     0.6389025190
   46      H      -5.5811309384    -2.7985587535    -1.0870583510
   47      H      -3.4312803700    -2.6548149781     0.7271002554
   48      H      -2.8016097742     3.8003655144     0.6797221656
   49      H      -4.2268007493     4.7210368614     0.0473729125
   50      H       1.3309991630     0.5940344376    -3.6203013334
   51      H       1.0421325025     1.7403840066    -2.2453369232
   52      H       0.4204462114     0.0415201688    -2.1519490925
   53      H       0.5970795012    -2.3957365056     1.2047953885
   54      H       0.6191515242    -1.9322356508    -0.5401618065
   55      H      -0.0982067662    -0.0617789761     1.8615532611
   56      H       0.0805213120     0.5076508722     0.1608071994
 ----------------------------------------------------------------

   11   -1510.2938968535      8.45E-09 Convergence criterion met
 Total energy in the final basis set = -1510.29389685
 Final energy is   -1510.29389685354
 **  OPTIMIZATION CONVERGED  **

                    Orbital Energies (a.u.)
 --------------------------------------------------------------

 Alpha MOs
 -- Occupied --
-18.947 -18.931 -18.926 -18.916 -18.891 -18.889 -18.882 -18.871
-18.869 -18.860 -10.110 -10.103 -10.093 -10.088 -10.071 -10.063
-10.063 -10.062 -10.061 -10.056 -10.051 -10.044 -10.038 -10.031
-10.029 -10.029 -10.023 -10.022 -10.016 -10.015  -1.023  -1.009
 -1.005  -0.994  -0.973  -0.964  -0.947  -0.935  -0.930  -0.922
 -0.766  -0.757  -0.727  -0.721  -0.712  -0.701  -0.689  -0.668
 -0.643  -0.610  -0.594  -0.578  -0.548  -0.540  -0.539  -0.531
 -0.516  -0.505  -0.487  -0.471  -0.466  -0.455  -0.449  -0.439
 -0.436  -0.429  -0.425  -0.417  -0.412  -0.399  -0.397  -0.395
 -0.385  -0.381  -0.373  -0.364  -0.360  -0.355  -0.351  -0.341
 -0.337  -0.335  -0.334  -0.329  -0.326  -0.322  -0.319  -0.317
 -0.308  -0.304  -0.302  -0.299  -0.288  -0.285  -0.284  -0.277
 -0.267  -0.263  -0.249  -0.240  -0.237  -0.235  -0.228  -0.189
 -0.176  -0.169  -0.164  -0.160  -0.149  -0.147  -0.145  -0.140
 -0.137

          Ground-State Mulliken Net Atomic Charges

     Atom                 Charge (a.u.)
  ----------------------------------------
      1 O                    -0.206522
      2 C                     0.215490
      3 C                    -0.078320
      4 C                    -0.081021
      5 C                     0.222789
      6 O                    -0.168183
      7 C                    -0.048934
      8 C                    -0.053215
      9 O                    -0.171492
     10 C                     0.213785
     11 C                    -0.078516
     12 C                    -0.077679
     13 C                     0.213085
     14 O                    -0.220426
     15 O                    -0.167666
     16 O                    -0.178567
     17 O                    -0.211334
     18 C                    -0.151102
     19 C                     0.025876
     20 C                    -0.144064
     21 C                    -0.143976
     22 C                     0.024274
     23 O                    -0.186475
     24 H                     0.084712
     25 H                     0.082720
     26 H                     0.081461
     27 H                     0.077030
     28 H                     0.073297
     29 H                     0.076942
     30 H                     0.072543
     31 H                     0.089278
     32 O                    -0.222842
     33 C                    -0.127975
     34 C                     0.025234
     35 C                    -0.143560
     36 C                    -0.144360
     37 C                     0.026929
     38 O                    -0.186105
     39 H                     0.087120
     40 H                     0.084616
     41 H                     0.091644
     42 H                     0.088153
     43 H                     0.078767
     44 H                     0.073815
     45 H                     0.078560
     46 H                     0.074000
     47 H                     0.086267
     48 H                     0.094273
     49 H                     0.092968
     50 H                     0.079798
     51 H                     0.086979
     52 H                     0.109696
     53 H                     0.081869
     54 H                     0.100121
     55 H                     0.094316
     56 H                     0.103928
  ----------------------------------------
  Sum of atomic charges =    -0.000000

                    Cartesian Multipole Moments
 -----------------------------------------------------------------
    Charge (ESU x 10^10)
                 0.0000
    Dipole Moment (Debye)
         X      -1.8495      Y       0.9065      Z      -0.6595
       Tot       2.1627
    Quadrupole Moments (Debye-Ang)
        XX    -131.7843     XY       1.3142     YY    -155.0575
        XZ       6.0136     YZ      -4.4005     ZZ    -164.1586

 Total job time:  99.98s(wall), 4331.57s(cpu)
        *  Thank you very much for using Q-Chem.  Have a nice day.  *
