 Q-Chem 5.0, Q-Chem, Inc., Pleasanton, CA (2017)
 Q-Chem 5.0.1 for Intel X86 EM64T Linux

User input:
--------------------------------------------------------------
$molecule
0  1
O -3.94934 -3.66094 2.70899
C -3.26408 -4.56952 2.26188
C -3.36658 -6.02376 2.66595
C -2.83704 -6.4052 4.05805
C -2.42726 -5.26227 4.96019
O -3.36132 -5.08764 5.94124
C -2.93751 -4.18461 6.96798
C -2.06041 -4.914 7.9803
O -1.61608 -3.99754 8.99299
C -0.83097 -4.53325 9.96034
C -0.12379 -3.48816 10.79
C 1.20016 -2.98051 10.20031
C 1.44199 -3.308 8.74052
O 2.22108 -2.72256 8.0024
O -2.41258 -4.29619 1.23807
O 1.15909 -4.58152 8.35074
O -0.84568 -5.72036 10.26064
C 1.51228 -5.13738 7.13532
C -0.89745 -2.16796 10.96962
C -0.4045 -1.4463 12.22271
C 0.96959 -0.99914 11.7683
C 0.94211 -1.46232 10.30721
O -0.41171 -1.3452 9.93877
H 0.0467 -3.9466 11.79094
H 2.09889 -3.306 10.76872
H -1.99979 -2.30762 11.01293
H -1.04557 -0.54532 12.35524
H -0.42259 -2.0491 13.15609
H 1.01225 0.11139 11.82483
H 1.82354 -1.44254 12.3248
H 1.66134 -0.86345 9.70624
O -1.43814 -4.56247 4.77928
C -2.21417 -3.03936 0.7059
C -4.81721 -6.52762 2.73331
C -4.85133 -8.03897 2.52095
C -4.24676 -8.51795 3.8231
C -4.08387 -7.18397 4.56351
O -5.1566 -6.40428 4.09212
H -2.80743 -6.59817 1.89159
H -1.96246 -7.09184 4.02028
H -1.82893 -2.34997 1.48745
H -5.49149 -6.01959 2.00929
H -5.92236 -8.34298 2.49292
H -4.34338 -8.39933 1.60058
H -4.9948 -9.15997 4.3396
H -3.28183 -9.06134 3.72894
H -4.05668 -7.37797 5.65833
H -3.16622 -2.64387 0.29172
H -1.46829 -3.10442 -0.11258
H 1.14754 -6.18408 7.0929
H 2.61711 -5.14237 7.0206
H 1.05061 -4.56219 6.30443
H -2.65234 -5.74197 8.43129
H -1.18609 -5.34578 7.45514
H -3.83914 -3.82801 7.50971
H -2.4399 -3.27686 6.55624
$end

$opt
CONSTRAINT
tors           1           2           3           4     -72.498
tors           3           4           5           6    +105.971
tors           4           5           6           7    +169.773
tors           5           6           7           8     -82.460
tors           6           7           8           9    +178.842
tors           7           8           9          10    +179.599
tors           8           9          10          11    +165.851
tors           9          10          11          12     -85.220
tors          11          12          13          14    +159.493
ENDCONSTRAINT
$end

$rem
JOBTYPE                   OPT
METHOD                    B3LYP
DFT_D                     d3_op
BASIS                     STO-3G
GEOM_OPT_MAX_CYCLES       100
GEOM_OPT_TOL_GRADIENT     300
GEOM_OPT_TOL_DISPLACEMENT 1200
GEOM_OPT_TOL_ENERGY       100
SYMMETRY                  False
THRESH                    12
SCF_CONVERGENCE           8
MAX_SUB_FILE_NUM          128
MEM_STATIC                400
MEM_TOTAL                 4000
$end
--------------------------------------------------------------

   15   -1510.1470236092      6.43E-09 Convergence criterion met
 Total energy in the final basis set = -1510.14702361
   13   -1510.2172728103      8.44E-09 Convergence criterion met
 Total energy in the final basis set = -1510.21727281
   14   -1510.2549628863      6.28E-09 Convergence criterion met
 Total energy in the final basis set = -1510.25496289
   14   -1510.2708855755      6.25E-09 Convergence criterion met
 Total energy in the final basis set = -1510.27088558
   14   -1510.2747695467      8.91E-09 Convergence criterion met
 Total energy in the final basis set = -1510.27476955
   13   -1510.2776088846      7.39E-09 Convergence criterion met
 Total energy in the final basis set = -1510.27760888
   12   -1510.2782494350      8.11E-09 Convergence criterion met
 Total energy in the final basis set = -1510.27824943
   12   -1510.2785724112      7.94E-09 Convergence criterion met
   12   -1510.2802788874      3.68E-09 Convergence criterion met
 Total energy in the final basis set = -1510.28027889
   11   -1510.2803233909      6.54E-09 Convergence criterion met
 Total energy in the final basis set = -1510.28032339
   11   -1510.2803698961      6.99E-09 Convergence criterion met
 Total energy in the final basis set = -1510.28036990
   11   -1510.2803901488      7.22E-09 Convergence criterion met
 Total energy in the final basis set = -1510.28039015
   11   -1510.2804001869      5.30E-09 Convergence criterion met
 Total energy in the final basis set = -1510.28040019
    9   -1510.2804024848      8.57E-09 Convergence criterion met
 Total energy in the final basis set = -1510.28040248

             Standard Nuclear Orientation (Angstroms)
    I     Atom           X                Y                Z
 ----------------------------------------------------------------
    1      O      -3.8666983284     1.4357776682     1.7448614779
    2      C      -4.2356249872     1.4613450852     0.5505675205
    3      C      -4.6856731153     0.2537720634    -0.3412348935
    4      C      -3.4661071775    -0.6812851239    -0.7629983466
    5      C      -2.0948127518    -0.1742779635    -0.1862806461
    6      O      -1.6693488756    -1.0116224757     0.8937965427
    7      C      -0.2715215134    -0.6735967967     1.2594247227
    8      C       0.7220469093    -1.4028900963     0.2962069669
    9      O       2.0826573111    -0.9917479613     0.7094784178
   10      C       3.0462549373    -1.6371092547    -0.1335567904
   11      C       4.4358639025    -0.9408135806     0.0544976135
   12      C       4.6956551641     0.3516296947    -0.8336665977
   13      C       3.4839021565     1.0368475270    -1.5733990563
   14      O       3.4935584522     2.2224008067    -1.9772017833
   15      O      -4.2942103990     2.6494696073    -0.2466912323
   16      O       2.3823080139     0.1478818466    -1.7585833795
   17      O       2.7972728025    -2.6191511079    -0.8656435841
   18      C       1.2426696776     0.8534127261    -2.4011971554
   19      C       4.6894291331    -0.3597132325     1.5151891772
   20      C       6.2505077529    -0.2866169423     1.7400794573
   21      C       6.6292746757     0.9130993798     0.7948088194
   22      C       5.2052995857     1.3633022862     0.2809279221
   23      O       4.2996407868     1.0648081310     1.4147088874
   24      H       5.1972818006    -1.7013079498    -0.1963147240
   25      H       5.4769942084     0.1528092802    -1.5907502894
   26      H       4.1148725545    -0.8637507436     2.3158507007
   27      H       6.4733542627    -0.0541981246     2.7937577990
   28      H       6.7603105600    -1.2246266854     1.4685965087
   29      H       7.1172611616     1.7300707007     1.3493266643
   30      H       7.2864373539     0.6069295209    -0.0347042083
   31      H       5.1185874869     2.4254243707    -0.0211889077
   32      O      -1.4269404395     0.7894484596    -0.6307516924
   33      C      -3.8052178562     3.8082364074     0.5363554517
   34      C      -5.5896885675    -0.7833378805     0.4526357064
   35      C      -6.3022947997    -1.7150192317    -0.6058359100
   36      C      -5.1068524303    -2.6367688155    -1.0501575171
   37      C      -3.9324057763    -2.0695601751    -0.1580121489
   38      O      -4.6076203346    -1.6803267219     1.1019642464
   39      H      -5.2022831185     0.6534997702    -1.2312108083
   40      H      -3.3669182433    -0.7170323968    -1.8631577898
   41      H      -2.7564952273     3.6607504164     0.8657389978
   42      H      -6.2554901665    -0.3266666159     1.2100934679
   43      H      -7.1060051085    -2.2971164641    -0.1276527395
   44      H      -6.7309185924    -1.1398667572    -1.4420702488
   45      H      -5.2982348091    -3.6931584612    -0.8036383162
   46      H      -4.8868447654    -2.5599869399    -2.1270567658
   47      H      -3.1076904016    -2.7778970821     0.0473133743
   48      H      -4.4335931040     3.9914473322     1.4320110989
   49      H      -3.8617397233     4.6801587009    -0.1407323266
   50      H       0.9510919393     0.2846208779    -3.3050320358
   51      H       1.5639011136     1.8774706313    -2.6777914936
   52      H       0.3827793005     0.8985402553    -1.6955499173
   53      H       0.5945521076    -2.5049664480     0.3760945646
   54      H       0.5304870895    -1.1124097328    -0.7563932146
   55      H      -0.1302144162    -1.0237337244     2.3008784042
   56      H      -0.1066035847     0.4231728760     1.2061293352
 ----------------------------------------------------------------

    9   -1510.2804033936      5.21E-09 Convergence criterion met
 Total energy in the final basis set = -1510.28040339
 Final energy is   -1510.28040339365
 **  OPTIMIZATION CONVERGED  **

                    Orbital Energies (a.u.)
 --------------------------------------------------------------

 Alpha MOs
 -- Occupied --
-18.944 -18.937 -18.934 -18.925 -18.889 -18.885 -18.881 -18.874
-18.873 -18.867 -10.108 -10.101 -10.098 -10.096 -10.073 -10.068
-10.063 -10.061 -10.061 -10.058 -10.057 -10.050 -10.043 -10.040
-10.039 -10.034 -10.022 -10.021 -10.019 -10.018  -1.020  -1.013
 -1.010  -1.003  -0.971  -0.969  -0.944  -0.935  -0.935  -0.930
 -0.765  -0.761  -0.728  -0.722  -0.714  -0.705  -0.693  -0.662
 -0.657  -0.614  -0.598  -0.581  -0.549  -0.542  -0.539  -0.536
 -0.516  -0.510  -0.487  -0.477  -0.464  -0.463  -0.454  -0.438
 -0.435  -0.433  -0.428  -0.412  -0.412  -0.409  -0.404  -0.399
 -0.395  -0.385  -0.376  -0.368  -0.360  -0.357  -0.353  -0.349
 -0.343  -0.339  -0.332  -0.331  -0.329  -0.327  -0.324  -0.311
 -0.310  -0.307  -0.305  -0.301  -0.293  -0.287  -0.284  -0.279
 -0.276  -0.258  -0.252  -0.249  -0.239  -0.234  -0.233  -0.184
 -0.177  -0.176  -0.168  -0.162  -0.158  -0.150  -0.147  -0.144
 -0.141

          Ground-State Mulliken Net Atomic Charges

     Atom                 Charge (a.u.)
  ----------------------------------------
      1 O                    -0.210769
      2 C                     0.204978
      3 C                    -0.078954
      4 C                    -0.077885
      5 C                     0.210116
      6 O                    -0.161288
      7 C                    -0.049067
      8 C                    -0.049000
      9 O                    -0.173630
     10 C                     0.217783
     11 C                    -0.081732
     12 C                    -0.076421
     13 C                     0.213349
     14 O                    -0.216965
     15 O                    -0.168148
     16 O                    -0.171248
     17 O                    -0.216296
     18 C                    -0.144294
     19 C                     0.025728
     20 C                    -0.143297
     21 C                    -0.145039
     22 C                     0.024325
     23 O                    -0.189309
     24 H                     0.082697
     25 H                     0.085949
     26 H                     0.086051
     27 H                     0.077651
     28 H                     0.073323
     29 H                     0.078366
     30 H                     0.073374
     31 H                     0.089681
     32 O                    -0.220541
     33 C                    -0.128624
     34 C                     0.025748
     35 C                    -0.143756
     36 C                    -0.144473
     37 C                     0.025334
     38 O                    -0.184338
     39 H                     0.086556
     40 H                     0.085850
     41 H                     0.091606
     42 H                     0.085015
     43 H                     0.078395
     44 H                     0.073603
     45 H                     0.078619
     46 H                     0.073032
     47 H                     0.089413
     48 H                     0.088491
     49 H                     0.090865
     50 H                     0.083263
     51 H                     0.102485
     52 H                     0.100961
     53 H                     0.086823
     54 H                     0.089440
     55 H                     0.095308
     56 H                     0.100894
  ----------------------------------------
  Sum of atomic charges =     0.000000

                    Cartesian Multipole Moments
 -----------------------------------------------------------------
    Charge (ESU x 10^10)
                 0.0000
    Dipole Moment (Debye)
         X      -0.4752      Y      -0.4776      Z      -1.3040
       Tot       1.4677
    Quadrupole Moments (Debye-Ang)
        XX    -137.2934     XY      -3.3049     YY    -161.9707
        XZ      10.9113     YZ       1.7131     ZZ    -163.2284

 Total job time:  72.24s(wall), 3436.46s(cpu)
        *  Thank you very much for using Q-Chem.  Have a nice day.  *
