 Q-Chem 5.0, Q-Chem, Inc., Pleasanton, CA (2017)
 Q-Chem 5.0.1 for Intel X86 EM64T Linux

User input:
--------------------------------------------------------------
$molecule
0  1
O -3.8666983284 1.4357776682 1.7448614779
C -4.2356249872 1.4613450852 0.5505675205
C -4.6856731153 0.2537720634 -0.3412348935
C -3.4661071775 -0.6812851239 -0.7629983466
C -2.0948127518 -0.1742779635 -0.1862806461
O -1.6693488756 -1.0116224757 0.8937965427
C -0.2715215134 -0.6735967967 1.2594247227
C 0.7220469093 -1.4028900963 0.2962069669
O 2.0826573111 -0.9917479613 0.7094784178
C 3.0462549373 -1.6371092547 -0.1335567904
C 4.4358639025 -0.9408135806 0.0544976135
C 4.6956551641 0.3516296947 -0.8336665977
C 3.4839021565 1.036847527 -1.5733990563
O 3.4935584522 2.2224008067 -1.9772017833
O -4.294210399 2.6494696073 -0.2466912323
O 2.3823080139 0.1478818466 -1.7585833795
O 2.7972728025 -2.6191511079 -0.8656435841
C 1.2426696776 0.8534127261 -2.4011971554
C 4.6894291331 -0.3597132325 1.5151891772
C 6.2505077529 -0.2866169423 1.7400794573
C 6.6292746757 0.9130993798 0.7948088194
C 5.2052995857 1.3633022862 0.2809279221
O 4.2996407868 1.064808131 1.4147088874
H 5.1972818006 -1.7013079498 -0.196314724
H 5.4769942084 0.1528092802 -1.5907502894
H 4.1148725545 -0.8637507436 2.3158507007
H 6.4733542627 -0.0541981246 2.793757799
H 6.76031056 -1.2246266854 1.4685965087
H 7.1172611616 1.7300707007 1.3493266643
H 7.2864373539 0.6069295209 -0.0347042083
H 5.1185874869 2.4254243707 -0.0211889077
O -1.4269404395 0.7894484596 -0.6307516924
C -3.8052178562 3.8082364074 0.5363554517
C -5.5896885675 -0.7833378805 0.4526357064
C -6.3022947997 -1.7150192317 -0.60583591
C -5.1068524303 -2.6367688155 -1.0501575171
C -3.9324057763 -2.0695601751 -0.1580121489
O -4.6076203346 -1.6803267219 1.1019642464
H -5.2022831185 0.6534997702 -1.2312108083
H -3.3669182433 -0.7170323968 -1.8631577898
H -2.7564952273 3.6607504164 0.8657389978
H -6.2554901665 -0.3266666159 1.2100934679
H -7.1060051085 -2.2971164641 -0.1276527395
H -6.7309185924 -1.1398667572 -1.4420702488
H -5.2982348091 -3.6931584612 -0.8036383162
H -4.8868447654 -2.5599869399 -2.1270567658
H -3.1076904016 -2.7778970821 0.0473133743
H -4.433593104 3.9914473322 1.4320110989
H -3.8617397233 4.6801587009 -0.1407323266
H 0.9510919393 0.2846208779 -3.3050320358
H 1.5639011136 1.8774706313 -2.6777914936
H 0.3827793005 0.8985402553 -1.6955499173
H 0.5945521076 -2.504966448 0.3760945646
H 0.5304870895 -1.1124097328 -0.7563932146
H -0.1302144162 -1.0237337244 2.3008784042
H -0.1066035847 0.423172876 1.2061293352
$end

$rem
JOBTYPE                   OPT
METHOD                    B3LYP
DFT_D                     d3_op
BASIS                     STO-3G
GEOM_OPT_MAX_CYCLES       100
GEOM_OPT_TOL_GRADIENT     300
GEOM_OPT_TOL_DISPLACEMENT 1200
GEOM_OPT_TOL_ENERGY       100
SYMMETRY                  False
THRESH                    12
SCF_CONVERGENCE           8
MAX_SUB_FILE_NUM          128
MEM_STATIC                400
MEM_TOTAL                 4000
$end
--------------------------------------------------------------

   16   -1510.2803129128      6.16E-09 Convergence criterion met
 Total energy in the final basis set = -1510.28031291
   14   -1510.2797162918      7.88E-09 Convergence criterion met
 Total energy in the final basis set = -1510.27971629
   14   -1510.2820192767      3.96E-09 Convergence criterion met
 Total energy in the final basis set = -1510.28201928
   14   -1510.2837567328      5.25E-09 Convergence criterion met
 Total energy in the final basis set = -1510.28375673
   14   -1510.2854828082      4.18E-09 Convergence criterion met
 Total energy in the final basis set = -1510.28548281
   14   -1510.2861775980      6.71E-09 Convergence criterion met
 Total energy in the final basis set = -1510.28617760
   13   -1510.2868471525      2.86E-09 Convergence criterion met
 Total energy in the final basis set = -1510.28684715
   14   -1510.2874076490      5.04E-09 Convergence criterion met
   10   -1510.2939291916      7.45E-09 Convergence criterion met
 Total energy in the final basis set = -1510.29392919
   12   -1510.2939025758      3.58E-09 Convergence criterion met
 Total energy in the final basis set = -1510.29390258
   10   -1510.2939105467      3.96E-09 Convergence criterion met
 Total energy in the final basis set = -1510.29391055
   11   -1510.2938985568      5.47E-09 Convergence criterion met
 Total energy in the final basis set = -1510.29389856
   10   -1510.2939036059      6.14E-09 Convergence criterion met
 Total energy in the final basis set = -1510.29390361
    9   -1510.2939024892      6.35E-09 Convergence criterion met
 Total energy in the final basis set = -1510.29390249

             Standard Nuclear Orientation (Angstroms)
    I     Atom           X                Y                Z
 ----------------------------------------------------------------
    1      O      -2.0220659609     1.4973932369    -0.4612843135
    2      C      -3.2738590962     1.5415165088    -0.4966384012
    3      C      -4.2519087426     0.3473731181    -0.7610065948
    4      C      -3.5021726020    -1.0421822790    -0.8969288561
    5      C      -1.9382971754    -0.9313713518    -0.7481749991
    6      O      -1.6012625513    -0.9993972526     0.6389211657
    7      C      -0.1699959234    -0.6893545293     0.8723349636
    8      C       0.8157111709    -1.7828355774     0.3197104810
    9      O       2.1722595659    -1.2165588994     0.5038289574
   10      C       3.0706943676    -1.6637026883    -0.5193010778
   11      C       4.4125629630    -0.8824297429    -0.3217934327
   12      C       4.1965302574     0.6893942657    -0.2493152049
   13      C       2.7080262395     1.1354247545    -0.4924594135
   14      O       1.9793674623     1.8160299069     0.2627308651
   15      O      -4.0345655873     2.7313253538    -0.3015611843
   16      O       2.3351539120     0.6762540273    -1.7935321095
   17      O       2.7915494501    -2.5195030351    -1.3850396086
   18      C       0.9613147896     1.1155137408    -2.1463565387
   19      C       5.0395085195    -1.1502056101     1.1161220755
   20      C       6.5170363206    -0.5892569523     1.1291458311
   21      C       6.2572737061     0.9590498618     1.2454313964
   22      C       4.6789615745     1.0009450976     1.2261524447
   23      O       4.2987771826    -0.2121685034     1.9876141864
   24      H       5.1018921553    -1.1672925362    -1.1353871169
   25      H       4.8299964221     1.1994590976    -0.9982013424
   26      H       4.9269720503    -2.1901136396     1.4798084823
   27      H       7.0671390369    -0.9747163529     2.0021993045
   28      H       7.0700155657    -0.8608497910     0.2157162492
   29      H       6.6422011870     1.3618494232     2.1958488970
   30      H       6.7004170020     1.5294334579     0.4136065941
   31      H       4.2095010776     1.8989936617     1.6729400299
   32      O      -1.1227885060    -0.9235519074    -1.7020521392
   33      C      -3.1265891291     3.8764386259    -0.0499373271
   34      C      -5.2072248322     0.0592177835     0.4783428446
   35      C      -6.3857672960    -0.8699443011    -0.0144184415
   36      C      -5.6442065939    -2.2508460126    -0.1541799779
   37      C      -4.1784643631    -1.8577146996     0.2857667766
   38      O      -4.3949633378    -0.8329064933     1.3341337947
   39      H      -4.8413264769     0.5810386049    -1.6666851165
   40      H      -3.7066633881    -1.4992395516    -1.8810500478
   41      H      -2.4777934230     4.0784780078    -0.9265578945
   42      H      -5.5153551397     0.9665547762     1.0333175785
   43      H      -7.1816471894    -0.9136037203     0.7462571765
   44      H      -6.8239701182    -0.5208357435    -0.9630940759
   45      H      -6.0616596444    -3.0043721730     0.5323918171
   46      H      -5.6764099220    -2.6506794925    -1.1803644658
   47      H      -3.5629099432    -2.6889935067     0.6790483885
   48      H      -2.4809166320     3.6966278997     0.8335474757
   49      H      -3.7807809943     4.7477967235     0.1361925497
   50      H       0.9804734016     1.4115899684    -3.2119288102
   51      H       0.6591831192     1.9749435800    -1.5162198435
   52      H       0.2328330226     0.2815485507    -1.9998283107
   53      H       0.7105642537    -2.7348426710     0.8835960951
   54      H       0.6139566407    -1.9744501289    -0.7550462812
   55      H      -0.0685726482    -0.6149816154     1.9734507898
   56      H       0.0931943431     0.2953579163     0.4291386913
 ----------------------------------------------------------------

    9   -1510.2939010826      2.99E-09 Convergence criterion met
 Total energy in the final basis set = -1510.29390108
 Final energy is   -1510.29390108260
 **  OPTIMIZATION CONVERGED  **

                    Orbital Energies (a.u.)
 --------------------------------------------------------------

 Alpha MOs
 -- Occupied --
-18.948 -18.930 -18.924 -18.917 -18.891 -18.890 -18.882 -18.870
-18.869 -18.861 -10.111 -10.103 -10.092 -10.089 -10.072 -10.064
-10.061 -10.061 -10.058 -10.055 -10.052 -10.044 -10.038 -10.031
-10.029 -10.028 -10.023 -10.022 -10.016 -10.015  -1.024  -1.008
 -1.004  -0.994  -0.973  -0.964  -0.948  -0.935  -0.928  -0.922
 -0.766  -0.757  -0.727  -0.721  -0.712  -0.701  -0.688  -0.669
 -0.643  -0.610  -0.594  -0.578  -0.549  -0.540  -0.539  -0.531
 -0.516  -0.505  -0.487  -0.471  -0.466  -0.455  -0.449  -0.439
 -0.436  -0.429  -0.425  -0.418  -0.413  -0.398  -0.397  -0.395
 -0.384  -0.381  -0.374  -0.364  -0.360  -0.356  -0.351  -0.341
 -0.338  -0.336  -0.334  -0.329  -0.326  -0.320  -0.320  -0.316
 -0.308  -0.305  -0.302  -0.299  -0.290  -0.284  -0.283  -0.275
 -0.267  -0.263  -0.248  -0.239  -0.236  -0.235  -0.228  -0.190
 -0.176  -0.168  -0.164  -0.157  -0.149  -0.147  -0.144  -0.141
 -0.137

          Ground-State Mulliken Net Atomic Charges

     Atom                 Charge (a.u.)
  ----------------------------------------
      1 O                    -0.206886
      2 C                     0.215748
      3 C                    -0.078284
      4 C                    -0.081353
      5 C                     0.223313
      6 O                    -0.168332
      7 C                    -0.050334
      8 C                    -0.056115
      9 O                    -0.172083
     10 C                     0.213439
     11 C                    -0.077993
     12 C                    -0.077608
     13 C                     0.213259
     14 O                    -0.220712
     15 O                    -0.167227
     16 O                    -0.177802
     17 O                    -0.210863
     18 C                    -0.152259
     19 C                     0.025830
     20 C                    -0.144165
     21 C                    -0.143794
     22 C                     0.024428
     23 O                    -0.186182
     24 H                     0.084796
     25 H                     0.082866
     26 H                     0.081637
     27 H                     0.076946
     28 H                     0.073248
     29 H                     0.076954
     30 H                     0.072448
     31 H                     0.089037
     32 O                    -0.223872
     33 C                    -0.128069
     34 C                     0.025321
     35 C                    -0.143597
     36 C                    -0.144275
     37 C                     0.026736
     38 O                    -0.186394
     39 H                     0.087408
     40 H                     0.084495
     41 H                     0.091137
     42 H                     0.087443
     43 H                     0.078734
     44 H                     0.073845
     45 H                     0.078610
     46 H                     0.074000
     47 H                     0.087506
     48 H                     0.095092
     49 H                     0.093216
     50 H                     0.078252
     51 H                     0.089609
     52 H                     0.109816
     53 H                     0.080627
     54 H                     0.104741
     55 H                     0.093178
     56 H                     0.104485
  ----------------------------------------
  Sum of atomic charges =    -0.000000

                    Cartesian Multipole Moments
 -----------------------------------------------------------------
    Charge (ESU x 10^10)
                 0.0000
    Dipole Moment (Debye)
         X      -1.8008      Y       1.2659      Z      -0.7007
       Tot       2.3101
    Quadrupole Moments (Debye-Ang)
        XX    -132.7865     XY       1.7092     YY    -152.5219
        XZ       5.8435     YZ      -4.3535     ZZ    -166.8886

 Total job time:  130.14s(wall), 6195.36s(cpu)
        *  Thank you very much for using Q-Chem.  Have a nice day.  *
