 Q-Chem 5.0, Q-Chem, Inc., Pleasanton, CA (2017)
 Q-Chem 5.0.1 for Intel X86 EM64T Linux

User input:
--------------------------------------------------------------
$molecule
0  1
O -3.94934 -3.66094 2.70899
C -3.26408 -4.56952 2.26188
C -3.36658 -6.02376 2.66595
C -2.68452 -6.43757 3.98026
C -2.12848 -5.31869 4.83291
O -2.94257 -5.1068 5.90891
C -2.38017 -4.21 6.87261
C -1.41421 -4.95791 7.78567
O -0.52156 -4.02859 8.42003
C 0.38435 -4.5762 9.26774
C 1.33944 -3.55899 9.84544
C 2.57259 -3.26381 8.97914
C 2.49842 -3.73645 7.54116
O 3.19489 -3.32699 6.62364
O -2.43816 -4.30302 1.2156
O 1.89726 -4.93174 7.28981
O 0.2866 -5.71191 9.71638
C 1.89314 -5.5809 6.07005
C 0.74878 -2.14783 10.02501
C 1.54363 -1.38413 11.08286
C 2.8379 -1.13559 10.33697
C 2.48347 -1.72134 8.96554
O 1.10216 -1.48041 8.84046
H 1.64994 -3.95067 10.84108
H 3.53411 -3.62422 9.40587
H -0.33237 -2.15474 10.2852
H 1.03061 -0.40814 11.23949
H 1.651 -1.90306 12.05963
H 2.99169 -0.03607 10.26078
H 3.7399 -1.61727 10.77268
H 3.12682 -1.26325 8.18222
O -1.14642 -4.65131 4.53221
C -2.24827 -3.04878 0.67431
C -4.81405 -6.48323 2.90693
C -4.92254 -7.99089 2.6924
C -4.1817 -8.50062 3.90963
C -3.88568 -7.17919 4.63067
O -4.98157 -6.36133 4.29746
H -2.9274 -6.60667 1.82366
H -1.84554 -7.15312 3.83224
H -1.8407 -2.35858 1.44377
H -5.55494 -5.94854 2.27283
H -5.99835 -8.26111 2.79194
H -4.54072 -8.35832 1.71559
H -4.88327 -9.12138 4.51045
H -3.25452 -9.07539 3.697
H -3.73109 -7.3825 5.71318
H -3.20872 -2.65059 0.28278
H -1.52327 -3.11952 -0.16226
H 1.31746 -6.52465 6.15969
H 2.93176 -5.82631 5.76221
H 1.41634 -4.9401 5.299
H -1.98631 -5.57571 8.51341
H -0.79148 -5.63472 7.16263
H -3.18209 -3.76192 7.49638
H -1.87673 -3.35146 6.37098
$end

$opt
CONSTRAINT
tors           1           2           3           4     -79.803
tors           3           4           5           6    +104.853
tors           4           5           6           7    +170.825
tors           5           6           7           8     -82.174
tors           6           7           8           9    +160.016
tors           7           8           9          10    +179.599
tors           8           9          10          11    +176.947
tors           9          10          11          12     -86.014
tors          11          12          13          14    +160.795
ENDCONSTRAINT
$end

$rem
JOBTYPE                   OPT
METHOD                    B3LYP
DFT_D                     d3_op
BASIS                     STO-3G
GEOM_OPT_MAX_CYCLES       100
GEOM_OPT_TOL_GRADIENT     300
GEOM_OPT_TOL_DISPLACEMENT 1200
GEOM_OPT_TOL_ENERGY       100
SYMMETRY                  False
THRESH                    12
SCF_CONVERGENCE           8
MAX_SUB_FILE_NUM          128
MEM_STATIC                400
MEM_TOTAL                 4000
$end
--------------------------------------------------------------

   15   -1510.1473917312      6.85E-09 Convergence criterion met
 Total energy in the final basis set = -1510.14739173
   14   -1510.2180075685      7.30E-09 Convergence criterion met
 Total energy in the final basis set = -1510.21800757
   15   -1510.2559427087      1.09E-09 Convergence criterion met
 Total energy in the final basis set = -1510.25594271
   14   -1510.2718876481      9.18E-09 Convergence criterion met
 Total energy in the final basis set = -1510.27188765
   14   -1510.2757469965      9.44E-09 Convergence criterion met
 Total energy in the final basis set = -1510.27574700
   13   -1510.2787431572      3.70E-09 Convergence criterion met
 Total energy in the final basis set = -1510.27874316
   13   -1510.2794520621      5.83E-09 Convergence criterion met
 Total energy in the final basis set = -1510.27945206
   12   -1510.2798661073      7.96E-09 Convergence criterion met
   11   -1510.2822438941      7.06E-09 Convergence criterion met
 Total energy in the final basis set = -1510.28224389
   10   -1510.2822602892      8.57E-09 Convergence criterion met
 Total energy in the final basis set = -1510.28226029
   10   -1510.2822681117      6.97E-09 Convergence criterion met
 Total energy in the final basis set = -1510.28226811
   10   -1510.2822791073      7.64E-09 Convergence criterion met
 Total energy in the final basis set = -1510.28227911
    9   -1510.2822833645      7.51E-09 Convergence criterion met
 Total energy in the final basis set = -1510.28228336
    9   -1510.2822859215      5.97E-09 Convergence criterion met
 Total energy in the final basis set = -1510.28228592

             Standard Nuclear Orientation (Angstroms)
    I     Atom           X                Y                Z
 ----------------------------------------------------------------
    1      O      -3.8074081039     1.5281294000     1.7794104752
    2      C      -4.0386275888     1.5472910416     0.5511644694
    3      C      -4.5622542304     0.3738178012    -0.3467300947
    4      C      -3.4031809248    -0.6445239161    -0.7485903294
    5      C      -2.0183678163    -0.2456584893    -0.1201950180
    6      O      -1.7050282845    -1.1107790760     0.9733628902
    7      C      -0.3094407399    -0.8776438412     1.4203680265
    8      C       0.7038055407    -1.6605201812     0.5140711735
    9      O       2.0107423338    -0.9951317485     0.7126979594
   10      C       3.0122713707    -1.6525142087    -0.0756060705
   11      C       4.3697246205    -0.8865437087     0.0875655511
   12      C       4.5964965878     0.3453879691    -0.8908863119
   13      C       3.3611905552     0.8813057693    -1.7097657174
   14      O       3.2971643894     2.0157484003    -2.2350216071
   15      O      -3.8302148175     2.6866920487    -0.2903726154
   16      O       2.3319621810    -0.1005946391    -1.8087283435
   17      O       2.8250241661    -2.7172443476    -0.7030021426
   18      C       1.1221310739     0.4566672514    -2.4636978867
   19      C       4.5605048569    -0.1846410108     1.5030610322
   20      C       6.1117715993    -0.0172742783     1.7470666321
   21      C       6.4481347859     1.1368462611     0.7314619457
   22      C       5.0164611589     1.4673127904     0.1523143993
   23      O       4.1004936775     1.2056442255     1.2867561032
   24      H       5.1665509267    -1.6321377617    -0.0838941780
   25      H       5.4096842761     0.1324647846    -1.6094726455
   26      H       3.9951843979    -0.6557053489     2.3298597943
   27      H       6.3059608674     0.2911235322     2.7867284099
   28      H       6.6701137977    -0.9445969350     1.5413970024
   29      H       6.8700178596     2.0168729949     1.2421745645
   30      H       7.1473639774     0.8179501368    -0.0579562982
   31      H       4.8814775557     2.4974287459    -0.2318293526
   32      O      -1.2647231125     0.6710984301    -0.5258034733
   33      C      -3.2310230701     3.7922872857     0.4928532146
   34      C      -5.5491497144    -0.5955317171     0.4321372161
   35      C      -6.3199898010    -1.4673085520    -0.6355632780
   36      C      -5.1872513596    -2.4622233030    -1.0867380279
   37      C      -3.9857608614    -1.9989176919    -0.1707243833
   38      O      -4.6451115090    -1.5700637061     1.0847297567
   39      H      -5.0315583076     0.8085728033    -1.2468427976
   40      H      -3.2725737958    -0.6738032619    -1.8456137394
   41      H      -2.2124093006     3.5286067184     0.8443982870
   42      H      -6.1840008386    -0.0935980812     1.1875628516
   43      H      -7.1595010140    -2.0005937898    -0.1615802672
   44      H      -6.7117236218    -0.8598978557    -1.4670549114
   45      H      -5.4560016101    -3.5075170378    -0.8667039704
   46      H      -4.9484588066    -2.3775367308    -2.1590511185
   47      H      -3.2219494193    -2.7718769036     0.0368806172
   48      H      -3.8523644615     4.0540424075     1.3733415778
   49      H      -3.1719556590     4.6569925223    -0.1931571852
   50      H       0.8069416105    -0.2520484421    -3.2532478258
   51      H       1.3687908466     1.4420119789    -2.9065044704
   52      H       0.3070870592     0.5704268476    -1.7112758062
   53      H       0.7487303015    -2.7351191804     0.7944652283
   54      H       0.3927965729    -1.5990103323    -0.5512560896
   55      H      -0.2598093679    -1.2282420514     2.4696523019
   56      H      -0.0630681537     0.2047783786     1.3732124126
 ----------------------------------------------------------------

    9   -1510.2822866684      2.33E-09 Convergence criterion met
 Total energy in the final basis set = -1510.28228667
 Final energy is   -1510.28228666840
 **  OPTIMIZATION CONVERGED  **

                    Orbital Energies (a.u.)
 --------------------------------------------------------------

 Alpha MOs
 -- Occupied --
-18.945 -18.936 -18.934 -18.925 -18.889 -18.885 -18.884 -18.874
-18.872 -18.863 -10.109 -10.099 -10.098 -10.096 -10.074 -10.070
-10.062 -10.061 -10.061 -10.057 -10.057 -10.047 -10.043 -10.039
-10.038 -10.033 -10.022 -10.021 -10.019 -10.018  -1.022  -1.012
 -1.009  -1.001  -0.971  -0.968  -0.945  -0.935  -0.934  -0.929
 -0.766  -0.761  -0.728  -0.722  -0.714  -0.705  -0.693  -0.662
 -0.655  -0.615  -0.597  -0.581  -0.549  -0.542  -0.539  -0.535
 -0.517  -0.510  -0.488  -0.474  -0.464  -0.460  -0.456  -0.439
 -0.434  -0.433  -0.427  -0.411  -0.410  -0.409  -0.405  -0.401
 -0.397  -0.383  -0.376  -0.368  -0.359  -0.355  -0.353  -0.349
 -0.343  -0.339  -0.332  -0.330  -0.329  -0.327  -0.323  -0.311
 -0.310  -0.308  -0.304  -0.300  -0.293  -0.287  -0.284  -0.280
 -0.275  -0.258  -0.252  -0.248  -0.235  -0.235  -0.232  -0.186
 -0.177  -0.175  -0.165  -0.164  -0.156  -0.151  -0.146  -0.145
 -0.140

          Ground-State Mulliken Net Atomic Charges

     Atom                 Charge (a.u.)
  ----------------------------------------
      1 O                    -0.210735
      2 C                     0.204823
      3 C                    -0.078811
      4 C                    -0.077553
      5 C                     0.210944
      6 O                    -0.161401
      7 C                    -0.049692
      8 C                    -0.047410
      9 O                    -0.173343
     10 C                     0.219184
     11 C                    -0.081845
     12 C                    -0.076800
     13 C                     0.214028
     14 O                    -0.216821
     15 O                    -0.168105
     16 O                    -0.170155
     17 O                    -0.220127
     18 C                    -0.144975
     19 C                     0.025712
     20 C                    -0.143452
     21 C                    -0.144840
     22 C                     0.024354
     23 O                    -0.189431
     24 H                     0.082799
     25 H                     0.085540
     26 H                     0.085497
     27 H                     0.077412
     28 H                     0.073135
     29 H                     0.078128
     30 H                     0.073396
     31 H                     0.089242
     32 O                    -0.218486
     33 C                    -0.128701
     34 C                     0.025508
     35 C                    -0.143642
     36 C                    -0.144589
     37 C                     0.025326
     38 O                    -0.184572
     39 H                     0.086587
     40 H                     0.086036
     41 H                     0.091052
     42 H                     0.085912
     43 H                     0.078456
     44 H                     0.073620
     45 H                     0.078593
     46 H                     0.072974
     47 H                     0.089017
     48 H                     0.089692
     49 H                     0.091045
     50 H                     0.081834
     51 H                     0.100145
     52 H                     0.103569
     53 H                     0.087022
     54 H                     0.086562
     55 H                     0.094680
     56 H                     0.103662
  ----------------------------------------
  Sum of atomic charges =     0.000000

                    Cartesian Multipole Moments
 -----------------------------------------------------------------
    Charge (ESU x 10^10)
                 0.0000
    Dipole Moment (Debye)
         X      -0.4375      Y      -0.5185      Z      -1.0391
       Tot       1.2410
    Quadrupole Moments (Debye-Ang)
        XX    -138.9397     XY      -1.8782     YY    -162.1109
        XZ      12.6005     YZ       1.7110     ZZ    -162.9951

 Total job time:  60.40s(wall), 2873.35s(cpu)
        *  Thank you very much for using Q-Chem.  Have a nice day.  *
