 Q-Chem 5.0, Q-Chem, Inc., Pleasanton, CA (2017)
 Q-Chem 5.0.1 for Intel X86 EM64T Linux

User input:
--------------------------------------------------------------
$molecule
0  1
O -3.94934 -3.66094 2.70899
C -3.26408 -4.56952 2.26188
C -3.36658 -6.02376 2.66595
C -2.71863 -6.42973 3.99982
C -2.1956 -5.30492 4.86545
O -3.01155 -5.13411 5.94734
C -2.53305 -4.14288 6.86262
C -1.48553 -4.74742 7.79179
O -0.77257 -3.70212 8.47144
C 0.19079 -4.11694 9.3311
C 0.95983 -2.97359 9.94916
C 2.14839 -2.46875 9.11804
C 2.18047 -2.91701 7.67072
O 2.72356 -2.31666 6.75464
O -2.43547 -4.30211 1.21794
O 1.94476 -4.2378 7.44021
O 0.26754 -5.26374 9.75475
C 2.06349 -4.86164 6.21453
C 0.1544 -1.67359 10.13961
C 0.79303 -0.82648 11.23877
C 2.05906 -0.37051 10.54336
C 1.8333 -0.95741 9.14507
O 0.43511 -0.92486 8.98361
H 1.30606 -3.33148 10.94587
H 3.13815 -2.71288 9.56239
H -0.91997 -1.85119 10.36485
H 0.13418 0.05804 11.39344
H 0.94555 -1.34347 12.21055
H 2.05641 0.74164 10.50651
H 3.00782 -0.73523 10.99325
H 2.42148 -0.38398 8.39538
O -1.22589 -4.61313 4.57877
C -2.24531 -3.04763 0.67728
C -4.8163 -6.49491 2.86703
C -4.90634 -8.00298 2.64814
C -4.19214 -8.50798 3.88319
C -3.92932 -7.18535 4.61532
O -5.02289 -6.37682 4.25295
H -2.89768 -6.60497 1.83855
H -1.86638 -7.13322 3.87106
H -1.8405 -2.35707 1.44786
H -5.54407 -5.96534 2.21374
H -5.98219 -8.28163 2.72048
H -4.49746 -8.36677 1.68097
H -4.90206 -9.13912 4.46299
H -3.25281 -9.07093 3.69344
H -3.8041 -7.39144 5.70096
H -3.2051 -2.65037 0.28319
H -1.51803 -3.11761 -0.15738
H 1.79381 -5.93202 6.32374
H 3.10917 -4.79148 5.84654
H 1.37494 -4.39214 5.48065
H -1.97714 -5.45328 8.49806
H -0.74792 -5.31074 7.17907
H -3.37383 -3.76779 7.48347
H -2.13295 -3.25427 6.32149
$end

$opt
CONSTRAINT
tors           1           2           3           4     -78.123
tors           3           4           5           6    +107.343
tors           4           5           6           7    +176.136
tors           5           6           7           8     -82.485
tors           6           7           8           9    +165.642
tors           7           8           9          10    +179.981
tors           8           9          10          11    +176.471
tors           9          10          11          12     -86.014
tors          11          12          13          14    +153.819
ENDCONSTRAINT
$end

$rem
JOBTYPE                   OPT
METHOD                    B3LYP
DFT_D                     d3_op
BASIS                     STO-3G
GEOM_OPT_MAX_CYCLES       100
GEOM_OPT_TOL_GRADIENT     300
GEOM_OPT_TOL_DISPLACEMENT 1200
GEOM_OPT_TOL_ENERGY       100
SYMMETRY                  False
THRESH                    12
SCF_CONVERGENCE           8
MAX_SUB_FILE_NUM          128
MEM_STATIC                400
MEM_TOTAL                 4000
$end
--------------------------------------------------------------

   15   -1510.1506458195      6.61E-09 Convergence criterion met
 Total energy in the final basis set = -1510.15064582
   14   -1510.2204969917      8.17E-09 Convergence criterion met
 Total energy in the final basis set = -1510.22049699
   15   -1510.2580408570      1.20E-09 Convergence criterion met
 Total energy in the final basis set = -1510.25804086
    2   -1510.2580408567      3.95E-10 Convergence criterion met
 Total energy in the final basis set = -1510.25804086
   15   -1510.2744277918      1.16E-09 Convergence criterion met
 Total energy in the final basis set = -1510.27442779
   14   -1510.2793660436      6.20E-09 Convergence criterion met
 Total energy in the final basis set = -1510.27936604
   13   -1510.2805687713      4.93E-09 Convergence criterion met
 Total energy in the final basis set = -1510.28056877
   13   -1510.2805426363      5.59E-09 Convergence criterion met
   11   -1510.2831003000      3.16E-09 Convergence criterion met
 Total energy in the final basis set = -1510.28310030
   10   -1510.2831144386      7.74E-09 Convergence criterion met
 Total energy in the final basis set = -1510.28311444
   10   -1510.2831262079      8.12E-09 Convergence criterion met
 Total energy in the final basis set = -1510.28312621
   10   -1510.2831331250      9.26E-09 Convergence criterion met
 Total energy in the final basis set = -1510.28313312
    9   -1510.2831357785      5.36E-09 Convergence criterion met
 Total energy in the final basis set = -1510.28313578
    9   -1510.2831369244      3.19E-09 Convergence criterion met
 Total energy in the final basis set = -1510.28313692

             Standard Nuclear Orientation (Angstroms)
    I     Atom           X                Y                Z
 ----------------------------------------------------------------
    1      O      -3.6087236992     1.4485273029     1.7992725400
    2      C      -3.9508472272     1.5237621484     0.5992856165
    3      C      -4.5924377365     0.4023706427    -0.2888888108
    4      C      -3.5180361013    -0.6582765625    -0.8008156785
    5      C      -2.0780306215    -0.3387402590    -0.2581595649
    6      O      -1.7080004045    -1.2834732338     0.7483124039
    7      C      -0.3134262910    -1.0295974848     1.1866760547
    8      C       0.7127294685    -1.6901119172     0.2030765969
    9      O       2.0214134231    -1.0829562912     0.5330151185
   10      C       3.0363097552    -1.6278406384    -0.3206558114
   11      C       4.3919402169    -0.9045922051    -0.0131685562
   12      C       4.6366699474     0.4539938590    -0.7989507179
   13      C       3.3946555503     1.1193243583    -1.5069692767
   14      O       3.2836024493     2.3425665621    -1.7475793367
   15      O      -3.7852470259     2.6907173577    -0.2131873313
   16      O       2.4180441961     0.1447261125    -1.8720637825
   17      O       2.8589517015    -2.5914022997    -1.0965888662
   18      C       1.2045755915     0.7916466499    -2.4330741790
   19      C       4.5563241303    -0.4156630013     1.4919998723
   20      C       6.1020735219    -0.3053434990     1.7925138582
   21      C       6.4779889227     0.9695178496     0.9494514263
   22      C       5.0633560114     1.4041381287     0.3982326612
   23      O       4.1191395362     0.9986003296     1.4670993186
   24      H       5.1899186343    -1.6214299283    -0.2775647783
   25      H       5.4403697484     0.3389884632    -1.5499053661
   26      H       3.9658453615    -0.9914696881     2.2301326354
   27      H       6.2705723265    -0.1395778131     2.8686854451
   28      H       6.6569932437    -1.2047722955     1.4817653430
   29      H       6.9067687011     1.7629338083     1.5817373225
   30      H       7.1860133259     0.7463734802     0.1352938867
   31      H       4.9475092262     2.4804517770     0.1636313169
   32      O      -1.3389685608     0.5975015282    -0.6449939473
   33      C      -3.0923076317     3.7490679088     0.5581468624
   34      C      -5.5671272041    -0.5407885019     0.5360351148
   35      C      -6.4595430326    -1.3417476116    -0.4912515080
   36      C      -5.4135056172    -2.3731073936    -1.0567888995
   37      C      -4.1261775606    -1.9992872819    -0.2187019243
   38      O      -4.6694005871    -1.5774045821     1.0935261643
   39      H      -5.1043668987     0.8861450690    -1.1394466491
   40      H      -3.4682090280    -0.6613959564    -1.9048727703
   41      H      -2.0674643307     3.4340760343     0.8426958031
   42      H      -6.1186360805    -0.0310312892     1.3495766656
   43      H      -7.2845459706    -1.8503562291     0.0326635225
   44      H      -6.8844093835    -0.6915431802    -1.2727410498
   45      H      -5.7174126145    -3.4115266056    -0.8504372527
   46      H      -5.2493846329    -2.2622854547    -2.1407282288
   47      H      -3.3895086722    -2.8145940343    -0.0888142534
   48      H      -3.6494082832     4.0144503637     1.4796823358
   49      H      -3.0364507694     4.6278911662    -0.1099195740
   50      H       0.9266390059     0.2423116504    -3.3525095261
   51      H       1.4301375017     1.8506679267    -2.6683655355
   52      H       0.3683594018     0.7396864460    -1.6979575385
   53      H       0.7337898154    -2.7942735652     0.3299808462
   54      H       0.4335942294    -1.4721811108    -0.8499307112
   55      H      -0.2264397785    -1.4688874376     2.1997381968
   56      H      -0.1131367171     0.0619850533     1.2332699207
 ----------------------------------------------------------------

    8   -1510.2831371509      9.41E-09 Convergence criterion met
 Total energy in the final basis set = -1510.28313715
 Final energy is   -1510.28313715085
 **  OPTIMIZATION CONVERGED  **

                    Orbital Energies (a.u.)
 --------------------------------------------------------------

 Alpha MOs
 -- Occupied --
-18.946 -18.936 -18.934 -18.925 -18.889 -18.884 -18.883 -18.874
-18.872 -18.863 -10.109 -10.099 -10.098 -10.095 -10.074 -10.069
-10.062 -10.061 -10.061 -10.057 -10.056 -10.047 -10.043 -10.039
-10.038 -10.033 -10.022 -10.021 -10.019 -10.018  -1.022  -1.012
 -1.009  -1.001  -0.971  -0.967  -0.945  -0.935  -0.934  -0.929
 -0.766  -0.760  -0.728  -0.722  -0.714  -0.705  -0.693  -0.662
 -0.655  -0.615  -0.597  -0.581  -0.549  -0.542  -0.539  -0.535
 -0.517  -0.509  -0.488  -0.474  -0.464  -0.461  -0.456  -0.438
 -0.435  -0.433  -0.427  -0.411  -0.410  -0.409  -0.404  -0.400
 -0.397  -0.382  -0.375  -0.368  -0.360  -0.356  -0.353  -0.349
 -0.343  -0.339  -0.332  -0.330  -0.328  -0.327  -0.324  -0.311
 -0.309  -0.307  -0.304  -0.299  -0.293  -0.287  -0.285  -0.279
 -0.275  -0.258  -0.252  -0.248  -0.237  -0.235  -0.232  -0.186
 -0.176  -0.174  -0.167  -0.163  -0.156  -0.150  -0.146  -0.145
 -0.139

          Ground-State Mulliken Net Atomic Charges

     Atom                 Charge (a.u.)
  ----------------------------------------
      1 O                    -0.211583
      2 C                     0.205107
      3 C                    -0.079032
      4 C                    -0.077453
      5 C                     0.211287
      6 O                    -0.161357
      7 C                    -0.048907
      8 C                    -0.047938
      9 O                    -0.174316
     10 C                     0.218695
     11 C                    -0.081899
     12 C                    -0.076640
     13 C                     0.214021
     14 O                    -0.215929
     15 O                    -0.167888
     16 O                    -0.170320
     17 O                    -0.219324
     18 C                    -0.144521
     19 C                     0.025478
     20 C                    -0.143229
     21 C                    -0.145130
     22 C                     0.023882
     23 O                    -0.189643
     24 H                     0.082801
     25 H                     0.085520
     26 H                     0.085607
     27 H                     0.077409
     28 H                     0.073160
     29 H                     0.078209
     30 H                     0.073295
     31 H                     0.090008
     32 O                    -0.219780
     33 C                    -0.128566
     34 C                     0.025627
     35 C                    -0.143619
     36 C                    -0.144571
     37 C                     0.025102
     38 O                    -0.184892
     39 H                     0.086577
     40 H                     0.086073
     41 H                     0.091647
     42 H                     0.085583
     43 H                     0.078478
     44 H                     0.073632
     45 H                     0.078478
     46 H                     0.072954
     47 H                     0.089542
     48 H                     0.089114
     49 H                     0.090983
     50 H                     0.083037
     51 H                     0.099839
     52 H                     0.103518
     53 H                     0.086765
     54 H                     0.087689
     55 H                     0.094895
     56 H                     0.102529
  ----------------------------------------
  Sum of atomic charges =     0.000000

                    Cartesian Multipole Moments
 -----------------------------------------------------------------
    Charge (ESU x 10^10)
                 0.0000
    Dipole Moment (Debye)
         X      -0.5513      Y      -0.4898      Z      -1.1734
       Tot       1.3859
    Quadrupole Moments (Debye-Ang)
        XX    -137.4302     XY      -2.3246     YY    -161.9177
        XZ      11.3767     YZ       0.4855     ZZ    -163.1179

 Total job time:  64.57s(wall), 3068.34s(cpu)
        *  Thank you very much for using Q-Chem.  Have a nice day.  *
