 Q-Chem 5.0, Q-Chem, Inc., Pleasanton, CA (2017)
 Q-Chem 5.0.1 for Intel X86 EM64T Linux

User input:
--------------------------------------------------------------
$molecule
0  1
O -3.6087236992 1.4485273029 1.79927254
C -3.9508472272 1.5237621484 0.5992856165
C -4.5924377365 0.4023706427 -0.2888888108
C -3.5180361013 -0.6582765625 -0.8008156785
C -2.0780306215 -0.338740259 -0.2581595649
O -1.7080004045 -1.2834732338 0.7483124039
C -0.313426291 -1.0295974848 1.1866760547
C 0.7127294685 -1.6901119172 0.2030765969
O 2.0214134231 -1.0829562912 0.5330151185
C 3.0363097552 -1.6278406384 -0.3206558114
C 4.3919402169 -0.9045922051 -0.0131685562
C 4.6366699474 0.453993859 -0.7989507179
C 3.3946555503 1.1193243583 -1.5069692767
O 3.2836024493 2.3425665621 -1.7475793367
O -3.7852470259 2.6907173577 -0.2131873313
O 2.4180441961 0.1447261125 -1.8720637825
O 2.8589517015 -2.5914022997 -1.0965888662
C 1.2045755915 0.7916466499 -2.433074179
C 4.5563241303 -0.4156630013 1.4919998723
C 6.1020735219 -0.305343499 1.7925138582
C 6.4779889227 0.9695178496 0.9494514263
C 5.0633560114 1.4041381287 0.3982326612
O 4.1191395362 0.9986003296 1.4670993186
H 5.1899186343 -1.6214299283 -0.2775647783
H 5.4403697484 0.3389884632 -1.5499053661
H 3.9658453615 -0.9914696881 2.2301326354
H 6.2705723265 -0.1395778131 2.8686854451
H 6.6569932437 -1.2047722955 1.481765343
H 6.9067687011 1.7629338083 1.5817373225
H 7.1860133259 0.7463734802 0.1352938867
H 4.9475092262 2.480451777 0.1636313169
O -1.3389685608 0.5975015282 -0.6449939473
C -3.0923076317 3.7490679088 0.5581468624
C -5.5671272041 -0.5407885019 0.5360351148
C -6.4595430326 -1.3417476116 -0.491251508
C -5.4135056172 -2.3731073936 -1.0567888995
C -4.1261775606 -1.9992872819 -0.2187019243
O -4.6694005871 -1.5774045821 1.0935261643
H -5.1043668987 0.886145069 -1.1394466491
H -3.468209028 -0.6613959564 -1.9048727703
H -2.0674643307 3.4340760343 0.8426958031
H -6.1186360805 -0.0310312892 1.3495766656
H -7.2845459706 -1.8503562291 0.0326635225
H -6.8844093835 -0.6915431802 -1.2727410498
H -5.7174126145 -3.4115266056 -0.8504372527
H -5.2493846329 -2.2622854547 -2.1407282288
H -3.3895086722 -2.8145940343 -0.0888142534
H -3.6494082832 4.0144503637 1.4796823358
H -3.0364507694 4.6278911662 -0.109919574
H 0.9266390059 0.2423116504 -3.3525095261
H 1.4301375017 1.8506679267 -2.6683655355
H 0.3683594018 0.739686446 -1.6979575385
H 0.7337898154 -2.7942735652 0.3299808462
H 0.4335942294 -1.4721811108 -0.8499307112
H -0.2264397785 -1.4688874376 2.1997381968
H -0.1131367171 0.0619850533 1.2332699207
$end

$rem
JOBTYPE                   OPT
METHOD                    B3LYP
DFT_D                     d3_op
BASIS                     STO-3G
GEOM_OPT_MAX_CYCLES       100
GEOM_OPT_TOL_GRADIENT     300
GEOM_OPT_TOL_DISPLACEMENT 1200
GEOM_OPT_TOL_ENERGY       100
SYMMETRY                  False
THRESH                    12
SCF_CONVERGENCE           8
MAX_SUB_FILE_NUM          128
MEM_STATIC                400
MEM_TOTAL                 4000
$end
--------------------------------------------------------------

   16   -1510.2831360643      5.52E-09 Convergence criterion met
 Total energy in the final basis set = -1510.28313606
   15   -1510.2507247898      7.57E-09 Convergence criterion met
 Total energy in the final basis set = -1510.25072479
   14   -1510.2838125783      4.06E-09 Convergence criterion met
 Total energy in the final basis set = -1510.28381258
   14   -1510.2834715530      6.54E-09 Convergence criterion met
 Total energy in the final basis set = -1510.28347155
   14   -1510.2852884339      7.26E-09 Convergence criterion met
 Total energy in the final basis set = -1510.28528843
   13   -1510.2860686060      7.94E-09 Convergence criterion met
 Total energy in the final basis set = -1510.28606861
   14   -1510.2862517993      4.81E-09 Convergence criterion met
 Total energy in the final basis set = -1510.28625180
   13   -1510.2864928548      4.26E-09 Convergence criterion met
   13   -1510.2940065791      3.68E-09 Convergence criterion met
 Total energy in the final basis set = -1510.29400658
   13   -1510.2939679601      3.89E-09 Convergence criterion met
 Total energy in the final basis set = -1510.29396796
   12   -1510.2940811750      9.07E-09 Convergence criterion met
 Total energy in the final basis set = -1510.29408117
   10   -1510.2940923580      8.69E-09 Convergence criterion met
 Total energy in the final basis set = -1510.29409236
    9   -1510.2940863460      8.29E-09 Convergence criterion met
 Total energy in the final basis set = -1510.29408635
    9   -1510.2940876434      8.12E-09 Convergence criterion met
 Total energy in the final basis set = -1510.29408764

             Standard Nuclear Orientation (Angstroms)
    I     Atom           X                Y                Z
 ----------------------------------------------------------------
    1      O      -3.7026635804     2.6342250157     0.0152405659
    2      C      -3.7104495022     1.7009629779    -0.8147486975
    3      C      -4.4862847178     0.3353583196    -0.7059799359
    4      C      -3.6018442648    -0.9103477131    -0.2931582034
    5      C      -2.1079828683    -0.5454028592    -0.0025918202
    6      O      -1.4331132421    -1.7290721623     0.4159935473
    7      C      -0.0112359550    -1.4501858363     0.7322248940
    8      C       0.8967142432    -1.6490710246    -0.5323722967
    9      O       2.2437084556    -1.2257850688    -0.0912009695
   10      C       3.1346761031    -1.0517530584    -1.2014203008
   11      C       4.4551902365    -0.4472200647    -0.6180388458
   12      C       4.1735268926     0.7775282433     0.3514363324
   13      C       2.6627574376     1.2171056560     0.3998395282
   14      O       1.9340196808     1.3578050164     1.4048154878
   15      O      -3.1105011546     1.7673879934    -2.1174143763
   16      O       2.2654780797     1.5113510258    -0.9443290794
   17      O       2.8591552127    -1.3477185166    -2.3823189877
   18      C       0.8893135827     2.0599450809    -0.9831445394
   19      C       5.1510188775    -1.4566406948     0.3965335353
   20      C       6.5938517935    -0.9092719692     0.7421868326
   21      C       6.2500391329     0.2516731799     1.7487243597
   22      C       4.6731659519     0.1988270121     1.7387295567
   23      O       4.3855973267    -1.2523602807     1.6456269631
   24      H       5.1175163736    -0.1731313165    -1.4573111730
   25      H       4.7720197579     1.6555428786     0.0463862405
   26      H       5.1129014596    -2.5189350016     0.0857403453
   27      H       7.1993218644    -1.6956363190     1.2201531635
   28      H       7.1251582734    -0.5509431603    -0.1541925424
   29      H       6.6358932079     0.0359039290     2.7578662183
   30      H       6.6387661008     1.2295426285     1.4225396997
   31      H       4.1633151120     0.6384265859     2.6181167165
   32      O      -1.5779501624     0.5877050622    -0.0847406038
   33      C      -2.3909852459     3.0514070721    -2.2665635398
   34      C      -5.5322185276     0.3689061895     0.4873458609
   35      C      -6.5791103361    -0.7920574043     0.2663876060
   36      C      -5.7123969345    -2.0531876428     0.6359227334
   37      C      -4.3418766355    -1.3765636953     1.0356536853
   38      O      -4.7456318735    -0.0957743147     1.6546960442
   39      H      -4.9800262538     0.1481492736    -1.6761055750
   40      H      -3.6217497507    -1.7035732914    -1.0629132343
   41      H      -1.6744400695     3.2130420874    -1.4370147501
   42      H      -5.9576361198     1.3712691398     0.6868856103
   43      H      -7.4336617920    -0.6761709168     0.9517800158
   44      H      -6.9569052668    -0.8218489878    -0.7682201695
   45      H      -6.1361815032    -2.5975992166     1.4946932635
   46      H      -5.5976635292    -2.7545499260    -0.2059753699
   47      H      -3.7034417897    -1.9647894888     1.7232418417
   48      H      -3.0928667700     3.9104113661    -2.2966189408
   49      H      -1.8452909506     2.9900148385    -3.2261642315
   50      H       0.6760971921     2.2414254305    -2.0522563106
   51      H       0.8287949585     3.0204695227    -0.4321961485
   52      H       0.1227262027     1.3666244740    -0.5660761003
   53      H       0.8943440161    -2.7110910163    -0.8619447292
   54      H       0.5388793919    -1.0217821926    -1.3774825359
   55      H       0.2786607071    -2.1709301937     1.5226371223
   56      H       0.1191485878    -0.4124935988     1.1097755680
 ----------------------------------------------------------------

    9   -1510.2940876484      5.51E-09 Convergence criterion met
 Total energy in the final basis set = -1510.29408765
 Final energy is   -1510.29408764835
 **  OPTIMIZATION CONVERGED  **

                    Orbital Energies (a.u.)
 --------------------------------------------------------------

 Alpha MOs
 -- Occupied --
-18.951 -18.935 -18.924 -18.922 -18.898 -18.889 -18.887 -18.878
-18.867 -18.863 -10.117 -10.101 -10.095 -10.092 -10.077 -10.076
-10.063 -10.061 -10.058 -10.056 -10.056 -10.045 -10.045 -10.037
-10.035 -10.034 -10.022 -10.020 -10.020 -10.019  -1.028  -1.016
 -1.000  -1.000  -0.972  -0.969  -0.953  -0.939  -0.929  -0.926
 -0.766  -0.763  -0.731  -0.723  -0.713  -0.705  -0.697  -0.658
 -0.652  -0.619  -0.597  -0.582  -0.547  -0.545  -0.538  -0.536
 -0.519  -0.509  -0.488  -0.477  -0.467  -0.458  -0.456  -0.442
 -0.434  -0.432  -0.429  -0.413  -0.409  -0.405  -0.404  -0.400
 -0.398  -0.380  -0.371  -0.368  -0.362  -0.358  -0.350  -0.348
 -0.345  -0.339  -0.336  -0.335  -0.330  -0.327  -0.325  -0.314
 -0.310  -0.306  -0.304  -0.302  -0.292  -0.291  -0.278  -0.276
 -0.273  -0.262  -0.251  -0.247  -0.243  -0.236  -0.233  -0.193
 -0.178  -0.175  -0.167  -0.164  -0.156  -0.146  -0.146  -0.143
 -0.142

          Ground-State Mulliken Net Atomic Charges

     Atom                 Charge (a.u.)
  ----------------------------------------
      1 O                    -0.215248
      2 C                     0.215073
      3 C                    -0.081627
      4 C                    -0.077192
      5 C                     0.221295
      6 O                    -0.169096
      7 C                    -0.051019
      8 C                    -0.047696
      9 O                    -0.170876
     10 C                     0.215198
     11 C                    -0.078210
     12 C                    -0.078082
     13 C                     0.214671
     14 O                    -0.217349
     15 O                    -0.175640
     16 O                    -0.179457
     17 O                    -0.210022
     18 C                    -0.144050
     19 C                     0.025624
     20 C                    -0.144104
     21 C                    -0.143523
     22 C                     0.024261
     23 O                    -0.187004
     24 H                     0.085786
     25 H                     0.083299
     26 H                     0.081634
     27 H                     0.077782
     28 H                     0.073706
     29 H                     0.077878
     30 H                     0.073227
     31 H                     0.090381
     32 O                    -0.206527
     33 C                    -0.128706
     34 C                     0.025220
     35 C                    -0.144013
     36 C                    -0.143805
     37 C                     0.025351
     38 O                    -0.188114
     39 H                     0.084316
     40 H                     0.088046
     41 H                     0.092923
     42 H                     0.089413
     43 H                     0.078629
     44 H                     0.073466
     45 H                     0.078943
     46 H                     0.073616
     47 H                     0.087281
     48 H                     0.084584
     49 H                     0.085798
     50 H                     0.082987
     51 H                     0.081499
     52 H                     0.106447
     53 H                     0.086941
     54 H                     0.090495
     55 H                     0.096957
     56 H                     0.108631
  ----------------------------------------
  Sum of atomic charges =    -0.000000

                    Cartesian Multipole Moments
 -----------------------------------------------------------------
    Charge (ESU x 10^10)
                 0.0000
    Dipole Moment (Debye)
         X       0.3154      Y      -1.2782      Z      -1.6975
       Tot       2.1482
    Quadrupole Moments (Debye-Ang)
        XX    -137.2528     XY       9.9723     YY    -157.1530
        XZ       8.3268     YZ      -5.4320     ZZ    -168.2875

 Total job time:  108.00s(wall), 5144.22s(cpu)
        *  Thank you very much for using Q-Chem.  Have a nice day.  *
