 Q-Chem 5.0, Q-Chem, Inc., Pleasanton, CA (2017)
 Q-Chem 5.0.1 for Intel X86 EM64T Linux

User input:
--------------------------------------------------------------
$molecule
0  1
O -3.94934 -3.66094 2.70899
C -3.26408 -4.56952 2.26188
C -3.36658 -6.02376 2.66595
C -2.71863 -6.42973 3.99982
C -2.1956 -5.30492 4.86545
O -3.05326 -5.08193 5.90474
C -2.51197 -4.21253 6.90493
C -1.64629 -5.00581 7.8783
O -0.85012 -4.10862 8.66826
C -0.05056 -4.69777 9.5917
C 0.85897 -3.71759 10.2936
C 2.22707 -3.51234 9.62692
C 2.35157 -4.0194 8.20421
O 3.1269 -3.58789 7.36324
O -2.43635 -4.3023 1.21717
O 1.86905 -5.26583 7.95139
O 0.01878 -5.9088 9.76726
C 1.98297 -5.93335 6.74812
C 0.34231 -2.25742 10.30499
C 0.97293 -1.49481 11.46908
C 2.40171 -1.37559 10.98446
C 2.26336 -1.97194 9.57893
O 0.95028 -1.65154 9.19288
H 0.91985 -4.04495 11.35601
H 3.06572 -3.954 10.20793
H -0.76566 -2.18014 10.36208
H 0.51382 -0.47991 11.47431
H 0.84931 -1.95457 12.47313
H 2.66657 -0.29595 10.93685
H 3.1558 -1.92905 11.58511
H 3.07096 -1.58232 8.92098
O -1.19586 -4.64655 4.60467
C -2.24804 -3.04825 0.67485
C -4.81658 -6.49377 2.86455
C -4.90673 -8.00312 2.65293
C -4.20093 -8.50233 3.89511
C -3.93462 -7.17562 4.61788
O -5.02612 -6.3672 4.24878
H -2.89609 -6.60453 1.83924
H -1.87334 -7.14334 3.88119
H -1.8437 -2.35618 1.44431
H -5.54179 -5.96691 2.20623
H -5.98285 -8.28212 2.71904
H -4.49059 -8.37037 1.69016
H -4.91766 -9.12288 4.478
H -3.26519 -9.07409 3.7143
H -3.81057 -7.37246 5.70556
H -3.20856 -2.65272 0.28079
H -1.52119 -3.11838 -0.16017
H 1.48686 -6.92181 6.83304
H 3.05271 -6.09059 6.49372
H 1.48461 -5.3525 5.9426
H -2.29207 -5.66036 8.50556
H -0.95009 -5.64386 7.29049
H -3.33792 -3.74076 7.4779
H -1.94102 -3.37057 6.45029
$end

$opt
CONSTRAINT
tors           1           2           3           4     -78.123
tors           3           4           5           6    +103.809
tors           4           5           6           7    +168.913
tors           5           6           7           8     -83.929
tors           6           7           8           9    +165.865
tors           7           8           9          10    +178.921
tors           8           9          10          11    +174.308
tors           9          10          11          12     -90.504
tors          11          12          13          14    +153.819
ENDCONSTRAINT
$end

$rem
JOBTYPE                   OPT
METHOD                    B3LYP
DFT_D                     d3_op
BASIS                     STO-3G
GEOM_OPT_MAX_CYCLES       100
GEOM_OPT_TOL_GRADIENT     300
GEOM_OPT_TOL_DISPLACEMENT 1200
GEOM_OPT_TOL_ENERGY       100
SYMMETRY                  False
THRESH                    12
SCF_CONVERGENCE           8
MAX_SUB_FILE_NUM          128
MEM_STATIC                400
MEM_TOTAL                 4000
$end
--------------------------------------------------------------

   15   -1510.1462061780      7.03E-09 Convergence criterion met
 Total energy in the final basis set = -1510.14620618
   13   -1510.2158933545      8.55E-09 Convergence criterion met
 Total energy in the final basis set = -1510.21589335
   14   -1510.2532284692      7.82E-09 Convergence criterion met
 Total energy in the final basis set = -1510.25322847
   14   -1510.2698054710      8.84E-09 Convergence criterion met
 Total energy in the final basis set = -1510.26980547
   14   -1510.2756565623      6.24E-09 Convergence criterion met
 Total energy in the final basis set = -1510.27565656
   13   -1510.2771497331      8.96E-09 Convergence criterion met
 Total energy in the final basis set = -1510.27714973
   13   -1510.2784508741      4.36E-09 Convergence criterion met
 Total energy in the final basis set = -1510.27845087
   12   -1510.2787794866      7.01E-09 Convergence criterion met
   12   -1510.2808680036      1.49E-09 Convergence criterion met
 Total energy in the final basis set = -1510.28086800
   12   -1510.2809185418      2.34E-09 Convergence criterion met
 Total energy in the final basis set = -1510.28091854
   11   -1510.2809405929      4.64E-09 Convergence criterion met
 Total energy in the final basis set = -1510.28094059
   10   -1510.2809515256      7.13E-09 Convergence criterion met
 Total energy in the final basis set = -1510.28095153
    9   -1510.2809559088      6.44E-09 Convergence criterion met
 Total energy in the final basis set = -1510.28095591
    9   -1510.2809581960      7.31E-09 Convergence criterion met
 Total energy in the final basis set = -1510.28095820

             Standard Nuclear Orientation (Angstroms)
    I     Atom           X                Y                Z
 ----------------------------------------------------------------
    1      O      -4.0214874766     1.6537288072     1.5684500891
    2      C      -4.2354947678     1.5451697185     0.3416474098
    3      C      -4.6409856041     0.2562213160    -0.4530048240
    4      C      -3.4018553998    -0.7088845610    -0.7199559774
    5      C      -2.0636835289    -0.1563790000    -0.1088822697
    6      O      -1.7347621150    -0.8679169017     1.0884581855
    7      C      -0.3515302127    -0.5266178180     1.5036190598
    8      C       0.6700832294    -1.4230464615     0.7254976496
    9      O       1.9995001940    -0.8025697838     0.9227598970
   10      C       2.9911179111    -1.5917961222     0.2533265108
   11      C       4.3751862218    -0.8650907557     0.3349961138
   12      C       4.7020258172     0.1265459856    -0.8632170709
   13      C       3.4883631217     0.6517065264    -1.7245226029
   14      O       3.4803619291     1.7331576355    -2.3546626247
   15      O      -4.1170126726     2.6220814662    -0.5946474786
   16      O       2.3964048903    -0.2672879042    -1.7106881445
   17      O       2.7743987291    -2.7190683083    -0.2416370187
   18      C       1.2192744238     0.2946242999    -2.4206823639
   19      C       4.5915763430     0.0908095399     1.5884641580
   20      C       6.1438138441     0.1477225204     1.8685978706
   21      C       6.6331618832     0.9947958063     0.6350348110
   22      C       5.2603607042     1.3690547108    -0.0507031998
   23      O       4.2993805445     1.4489164472     1.0768596076
   24      H       5.1336937590    -1.6689863909     0.3369648393
   25      H       5.4538627527    -0.3075865111    -1.5482258413
   26      H       3.9539122295    -0.1412634151     2.4628455646
   27      H       6.3414945918     0.6707493431     2.8181514348
   28      H       6.6017794511    -0.8533397262     1.9124231369
   29      H       7.1677796086     1.9037606085     0.9528025918
   30      H       7.2871637531     0.4205952354    -0.0409301268
   31      H       5.2542394154     2.3107801893    -0.6337450040
   32      O      -1.3410557893     0.7354469974    -0.6140338927
   33      C      -3.6466156529     3.8449794225     0.0965364797
   34      C      -5.5867731272    -0.7037538113     0.3865142477
   35      C      -6.2536966221    -1.7261133678    -0.6161685472
   36      C      -5.0391206804    -2.6771088335    -0.9282118731
   37      C      -3.9085198723    -2.0398830209    -0.0256946252
   38      O      -4.6434992090    -1.5425884696     1.1598624638
   39      H      -5.1082458478     0.5673402235    -1.4035629794
   40      H      -3.2375884323    -0.8377515114    -1.8052942440
   41      H      -2.6214583310     3.7114354699     0.4987453663
   42      H      -6.2845394000    -0.1799648532     1.0680258292
   43      H      -7.0754642112    -2.2692584209    -0.1227921270
   44      H      -6.6481062142    -1.2285297689    -1.5165362681
   45      H      -5.2439603803    -3.7121161588    -0.6117772728
   46      H      -4.7653190949    -2.6819222794    -1.9954564967
   47      H      -3.0997681055    -2.7297858853     0.2811879808
   48      H      -4.3194776422     4.1275221734     0.9316082741
   49      H      -3.6421824991     4.6451550369    -0.6661567001
   50      H       0.8703967074    -0.4584864203    -3.1531152795
   51      H       1.5197383779     1.2265002573    -2.9397636084
   52      H       0.4050218063     0.5109680814    -1.6916875128
   53      H       0.6513819450    -2.4674103150     1.1059435557
   54      H       0.4103967692    -1.4497362590    -0.3543321500
   55      H      -0.2962278935    -0.7134358548     2.5938029222
   56      H      -0.1348105111     0.5419337348     1.2911661820
 ----------------------------------------------------------------

    9   -1510.2809589287      5.08E-09 Convergence criterion met
 Total energy in the final basis set = -1510.28095893
 Final energy is   -1510.28095892866
 **  OPTIMIZATION CONVERGED  **

                    Orbital Energies (a.u.)
 --------------------------------------------------------------

 Alpha MOs
 -- Occupied --
-18.944 -18.937 -18.934 -18.926 -18.889 -18.885 -18.883 -18.874
-18.873 -18.864 -10.108 -10.100 -10.098 -10.096 -10.074 -10.070
-10.062 -10.061 -10.061 -10.057 -10.056 -10.050 -10.043 -10.039
-10.039 -10.033 -10.022 -10.021 -10.019 -10.018  -1.021  -1.013
 -1.010  -1.002  -0.971  -0.968  -0.945  -0.935  -0.935  -0.930
 -0.766  -0.761  -0.728  -0.722  -0.714  -0.705  -0.693  -0.662
 -0.656  -0.615  -0.597  -0.581  -0.549  -0.543  -0.539  -0.536
 -0.517  -0.510  -0.488  -0.475  -0.464  -0.461  -0.456  -0.438
 -0.436  -0.433  -0.428  -0.412  -0.411  -0.409  -0.404  -0.401
 -0.397  -0.384  -0.376  -0.369  -0.360  -0.356  -0.353  -0.350
 -0.344  -0.339  -0.332  -0.331  -0.329  -0.327  -0.324  -0.311
 -0.310  -0.308  -0.304  -0.301  -0.293  -0.287  -0.284  -0.280
 -0.276  -0.258  -0.252  -0.249  -0.237  -0.235  -0.232  -0.185
 -0.177  -0.176  -0.167  -0.163  -0.157  -0.151  -0.147  -0.145
 -0.140

          Ground-State Mulliken Net Atomic Charges

     Atom                 Charge (a.u.)
  ----------------------------------------
      1 O                    -0.210432
      2 C                     0.204704
      3 C                    -0.078867
      4 C                    -0.077764
      5 C                     0.209409
      6 O                    -0.161579
      7 C                    -0.050105
      8 C                    -0.047821
      9 O                    -0.173638
     10 C                     0.218497
     11 C                    -0.082258
     12 C                    -0.075986
     13 C                     0.214393
     14 O                    -0.215581
     15 O                    -0.168190
     16 O                    -0.170506
     17 O                    -0.219487
     18 C                    -0.143201
     19 C                     0.024914
     20 C                    -0.142708
     21 C                    -0.145332
     22 C                     0.023741
     23 O                    -0.190082
     24 H                     0.082682
     25 H                     0.085931
     26 H                     0.086528
     27 H                     0.077483
     28 H                     0.073167
     29 H                     0.078326
     30 H                     0.073366
     31 H                     0.090158
     32 O                    -0.218706
     33 C                    -0.128678
     34 C                     0.025639
     35 C                    -0.143687
     36 C                    -0.144544
     37 C                     0.025569
     38 O                    -0.184358
     39 H                     0.086632
     40 H                     0.085949
     41 H                     0.090773
     42 H                     0.085614
     43 H                     0.078460
     44 H                     0.073568
     45 H                     0.078602
     46 H                     0.072987
     47 H                     0.088784
     48 H                     0.089531
     49 H                     0.091019
     50 H                     0.082704
     51 H                     0.101666
     52 H                     0.101089
     53 H                     0.087670
     54 H                     0.086629
     55 H                     0.094548
     56 H                     0.102773
  ----------------------------------------
  Sum of atomic charges =     0.000000

                    Cartesian Multipole Moments
 -----------------------------------------------------------------
    Charge (ESU x 10^10)
                 0.0000
    Dipole Moment (Debye)
         X      -0.4128      Y      -0.7046      Z      -1.0560
       Tot       1.3349
    Quadrupole Moments (Debye-Ang)
        XX    -139.1988     XY      -2.1039     YY    -162.3041
        XZ      12.7556     YZ       2.2076     ZZ    -162.4220

 Total job time:  66.21s(wall), 3151.63s(cpu)
        *  Thank you very much for using Q-Chem.  Have a nice day.  *
