 Q-Chem 5.0, Q-Chem, Inc., Pleasanton, CA (2017)
 Q-Chem 5.0.1 for Intel X86 EM64T Linux

User input:
--------------------------------------------------------------
$molecule
0  1
O -4.0214874766 1.6537288072 1.5684500891
C -4.2354947678 1.5451697185 0.3416474098
C -4.6409856041 0.256221316 -0.453004824
C -3.4018553998 -0.708884561 -0.7199559774
C -2.0636835289 -0.156379 -0.1088822697
O -1.734762115 -0.8679169017 1.0884581855
C -0.3515302127 -0.526617818 1.5036190598
C 0.6700832294 -1.4230464615 0.7254976496
O 1.999500194 -0.8025697838 0.922759897
C 2.9911179111 -1.5917961222 0.2533265108
C 4.3751862218 -0.8650907557 0.3349961138
C 4.7020258172 0.1265459856 -0.8632170709
C 3.4883631217 0.6517065264 -1.7245226029
O 3.4803619291 1.7331576355 -2.3546626247
O -4.1170126726 2.6220814662 -0.5946474786
O 2.3964048903 -0.2672879042 -1.7106881445
O 2.7743987291 -2.7190683083 -0.2416370187
C 1.2192744238 0.2946242999 -2.4206823639
C 4.591576343 0.0908095399 1.588464158
C 6.1438138441 0.1477225204 1.8685978706
C 6.6331618832 0.9947958063 0.635034811
C 5.2603607042 1.3690547108 -0.0507031998
O 4.2993805445 1.4489164472 1.0768596076
H 5.133693759 -1.6689863909 0.3369648393
H 5.4538627527 -0.3075865111 -1.5482258413
H 3.9539122295 -0.1412634151 2.4628455646
H 6.3414945918 0.6707493431 2.8181514348
H 6.6017794511 -0.8533397262 1.9124231369
H 7.1677796086 1.9037606085 0.9528025918
H 7.2871637531 0.4205952354 -0.0409301268
H 5.2542394154 2.3107801893 -0.633745004
O -1.3410557893 0.7354469974 -0.6140338927
C -3.6466156529 3.8449794225 0.0965364797
C -5.5867731272 -0.7037538113 0.3865142477
C -6.2536966221 -1.7261133678 -0.6161685472
C -5.0391206804 -2.6771088335 -0.9282118731
C -3.9085198723 -2.0398830209 -0.0256946252
O -4.643499209 -1.5425884696 1.1598624638
H -5.1082458478 0.5673402235 -1.4035629794
H -3.2375884323 -0.8377515114 -1.805294244
H -2.621458331 3.7114354699 0.4987453663
H -6.2845394 -0.1799648532 1.0680258292
H -7.0754642112 -2.2692584209 -0.122792127
H -6.6481062142 -1.2285297689 -1.5165362681
H -5.2439603803 -3.7121161588 -0.6117772728
H -4.7653190949 -2.6819222794 -1.9954564967
H -3.0997681055 -2.7297858853 0.2811879808
H -4.3194776422 4.1275221734 0.9316082741
H -3.6421824991 4.6451550369 -0.6661567001
H 0.8703967074 -0.4584864203 -3.1531152795
H 1.5197383779 1.2265002573 -2.9397636084
H 0.4050218063 0.5109680814 -1.6916875128
H 0.651381945 -2.467410315 1.1059435557
H 0.4103967692 -1.449736259 -0.35433215
H -0.2962278935 -0.7134358548 2.5938029222
H -0.1348105111 0.5419337348 1.291166182
$end

$rem
JOBTYPE                   OPT
METHOD                    B3LYP
DFT_D                     d3_op
BASIS                     STO-3G
GEOM_OPT_MAX_CYCLES       100
GEOM_OPT_TOL_GRADIENT     300
GEOM_OPT_TOL_DISPLACEMENT 1200
GEOM_OPT_TOL_ENERGY       100
SYMMETRY                  False
THRESH                    12
SCF_CONVERGENCE           8
MAX_SUB_FILE_NUM          128
MEM_STATIC                400
MEM_TOTAL                 4000
$end
--------------------------------------------------------------

   16   -1510.2807896690      5.46E-09 Convergence criterion met
 Total energy in the final basis set = -1510.28078967
   15   -1510.2643619563      6.27E-09 Convergence criterion met
 Total energy in the final basis set = -1510.26436196
   14   -1510.2824260301      4.30E-09 Convergence criterion met
 Total energy in the final basis set = -1510.28242603
   14   -1510.2812262586      3.76E-09 Convergence criterion met
 Total energy in the final basis set = -1510.28122626
   14   -1510.2840497624      7.48E-09 Convergence criterion met
 Total energy in the final basis set = -1510.28404976
   13   -1510.2843320727      9.79E-09 Convergence criterion met
 Total energy in the final basis set = -1510.28433207
   14   -1510.2851190420      4.36E-09 Convergence criterion met
 Total energy in the final basis set = -1510.28511904
   13   -1510.2855481714      4.96E-09 Convergence criterion met
   12   -1510.2998796722      3.37E-09 Convergence criterion met
 Total energy in the final basis set = -1510.29987967
   11   -1510.2998870188      4.50E-09 Convergence criterion met
 Total energy in the final basis set = -1510.29988702
   11   -1510.2998954858      4.70E-09 Convergence criterion met
 Total energy in the final basis set = -1510.29989549
   11   -1510.2998949318      8.85E-09 Convergence criterion met
 Total energy in the final basis set = -1510.29989493
   11   -1510.2998891733      5.81E-09 Convergence criterion met
 Total energy in the final basis set = -1510.29988917
    9   -1510.2998848526      6.52E-09 Convergence criterion met
 Total energy in the final basis set = -1510.29988485

             Standard Nuclear Orientation (Angstroms)
    I     Atom           X                Y                Z
 ----------------------------------------------------------------
    1      O      -3.4432436382     2.0317177345     1.4095000995
    2      C      -3.2272252009     1.5097960014     0.2955123902
    3      C      -4.1015661223     0.4411202827    -0.4532136163
    4      C      -3.2712080882    -0.8286131385    -0.9231171437
    5      C      -1.7630055422    -0.7609757492    -0.5043381475
    6      O      -1.6928474780    -0.6874144739     0.9200443025
    7      C      -0.2896381160    -0.5307531014     1.3750771488
    8      C       0.5410859123    -1.8707424822     1.3100927851
    9      O       1.9789886147    -1.5025575705     1.3044272331
   10      C       2.5033658927    -1.5772281421    -0.0266258537
   11      C       3.9102287438    -0.8823486687    -0.0734016452
   12      C       3.8076277412     0.6264594240    -0.5838067645
   13      C       2.3396611823     1.0535125492    -0.9285337954
   14      O       1.4472922255     1.3870060527    -0.1084612498
   15      O      -2.1113604715     1.8091228528    -0.5490283625
   16      O       2.1672404151     0.9954604574    -2.3340636451
   17      O       1.9025288264    -2.0981042745    -0.9930173649
   18      C       0.7494472421     1.2497857502    -2.7056396599
   19      C       4.5495470271    -0.6636983558     1.3598883162
   20      C       6.0683865597    -0.2679278064     1.1735274311
   21      C       5.9398397272     1.2287300627     0.7033888163
   22      C       4.3711421143     1.4048981750     0.6801102508
   23      O       3.9132420022     0.5898779900     1.8272051912
   24      H       4.5633208171    -1.4715988351    -0.7417648974
   25      H       4.4307645899     0.7799003118    -1.4822920369
   26      H       4.3567428175    -1.4856086590     2.0750679791
   27      H       6.6081354551    -0.3463027645     2.1305615432
   28      H       6.5736363119    -0.9049450569     0.4301217434
   29      H       6.3921573121     1.9205215510     1.4316957551
   30      H       6.3942105887     1.4078225185    -0.2841509954
   31      H       4.0060755442     2.4456898983     0.7763531709
   32      O      -0.7653827682    -0.8012597311    -1.2611159748
   33      C      -1.1985972750     2.7885165666     0.0900309822
   34      C      -5.1711949949    -0.2261787689     0.5049169465
   35      C      -6.2523837577    -0.9514481052    -0.3878127683
   36      C      -5.4417952474    -2.2067391275    -0.8832303323
   37      C      -4.0548986724    -1.9824519598    -0.1585091883
   38      O      -4.4290348738    -1.3489969085     1.1252094616
   39      H      -4.5814877122     0.9338700413    -1.3191212222
   40      H      -3.3108956322    -0.9576553378    -2.0187401206
   41      H      -0.1641153121     2.3885433291    -0.0043861971
   42      H      -5.5626613206     0.4560183120     1.2845120328
   43      H      -7.1196630592    -1.2482522043     0.2231554645
   44      H      -6.6042907692    -0.3168571571    -1.2166539349
   45      H      -5.9040379777    -3.1469038198    -0.5428484947
   46      H      -5.3365301673    -2.2417837164    -1.9794240674
   47      H      -3.4629550097    -2.9012802093     0.0193903998
   48      H      -1.4775180729     2.9223683858     1.1535302308
   49      H      -1.2831261707     3.7609160309    -0.4349272196
   50      H       0.7069794474     1.1315684052    -3.8033070772
   51      H       0.4426050260     2.2794712713    -2.4338869823
   52      H       0.0762821963     0.5086720528    -2.2102799345
   53      H       0.3588221663    -2.5122688418     2.1949089602
   54      H       0.3083226265    -2.4241083073     0.3745675007
   55      H      -0.3637843686    -0.1752105453     2.4211631856
   56      H       0.2540368279     0.2326030154     0.7669908775
 ----------------------------------------------------------------

    9   -1510.2998856846      7.88E-09 Convergence criterion met
 Total energy in the final basis set = -1510.29988568
 Final energy is   -1510.29988568460
 **  OPTIMIZATION CONVERGED  **

                    Orbital Energies (a.u.)
 --------------------------------------------------------------

 Alpha MOs
 -- Occupied --
-18.944 -18.932 -18.930 -18.924 -18.888 -18.885 -18.884 -18.876
-18.874 -18.871 -10.110 -10.101 -10.098 -10.095 -10.061 -10.060
-10.060 -10.059 -10.055 -10.053 -10.046 -10.041 -10.040 -10.037
-10.036 -10.035 -10.022 -10.020 -10.019 -10.018  -1.018  -1.013
 -1.008  -1.001  -0.970  -0.967  -0.941  -0.937  -0.932  -0.930
 -0.765  -0.761  -0.726  -0.722  -0.711  -0.704  -0.688  -0.659
 -0.649  -0.612  -0.596  -0.578  -0.548  -0.543  -0.538  -0.535
 -0.514  -0.507  -0.480  -0.477  -0.462  -0.460  -0.451  -0.441
 -0.433  -0.431  -0.427  -0.418  -0.412  -0.406  -0.401  -0.397
 -0.380  -0.378  -0.369  -0.366  -0.362  -0.359  -0.352  -0.349
 -0.343  -0.337  -0.332  -0.329  -0.326  -0.323  -0.317  -0.311
 -0.308  -0.306  -0.303  -0.301  -0.291  -0.286  -0.282  -0.279
 -0.271  -0.259  -0.245  -0.241  -0.237  -0.234  -0.232  -0.191
 -0.176  -0.170  -0.161  -0.159  -0.156  -0.152  -0.148  -0.144
 -0.141

          Ground-State Mulliken Net Atomic Charges

     Atom                 Charge (a.u.)
  ----------------------------------------
      1 O                    -0.212018
      2 C                     0.214320
      3 C                    -0.077778
      4 C                    -0.078661
      5 C                     0.219933
      6 O                    -0.167681
      7 C                    -0.062062
      8 C                    -0.057343
      9 O                    -0.168873
     10 C                     0.205002
     11 C                    -0.077269
     12 C                    -0.078360
     13 C                     0.219015
     14 O                    -0.221467
     15 O                    -0.178984
     16 O                    -0.161263
     17 O                    -0.207093
     18 C                    -0.143617
     19 C                     0.026192
     20 C                    -0.144493
     21 C                    -0.143714
     22 C                     0.025523
     23 O                    -0.184436
     24 H                     0.086058
     25 H                     0.087886
     26 H                     0.089141
     27 H                     0.078259
     28 H                     0.073458
     29 H                     0.078384
     30 H                     0.073643
     31 H                     0.084455
     32 O                    -0.219446
     33 C                    -0.151601
     34 C                     0.024509
     35 C                    -0.143982
     36 C                    -0.144023
     37 C                     0.026118
     38 O                    -0.185274
     39 H                     0.083759
     40 H                     0.084425
     41 H                     0.109825
     42 H                     0.090447
     43 H                     0.077942
     44 H                     0.072796
     45 H                     0.077731
     46 H                     0.073349
     47 H                     0.082213
     48 H                     0.094893
     49 H                     0.075023
     50 H                     0.087064
     51 H                     0.081701
     52 H                     0.119705
     53 H                     0.085660
     54 H                     0.100858
     55 H                     0.089923
     56 H                     0.110232
  ----------------------------------------
  Sum of atomic charges =     0.000000

                    Cartesian Multipole Moments
 -----------------------------------------------------------------
    Charge (ESU x 10^10)
                 0.0000
    Dipole Moment (Debye)
         X       1.1364      Y       0.0309      Z      -2.0246
       Tot       2.3220
    Quadrupole Moments (Debye-Ang)
        XX    -138.6231     XY       3.7492     YY    -156.0667
        XZ       9.1630     YZ      -5.6997     ZZ    -165.9079

 Total job time:  192.75s(wall), 9178.19s(cpu)
        *  Thank you very much for using Q-Chem.  Have a nice day.  *
