 Q-Chem 5.0, Q-Chem, Inc., Pleasanton, CA (2017)
 Q-Chem 5.0.1 for Intel X86 EM64T Linux

User input:
--------------------------------------------------------------
$molecule
0  1
O -3.8727260486 1.552353105 1.6886873736
C -4.1191988483 1.5458491761 0.4632051886
C -4.6348057938 0.3462737345 -0.4044766235
C -3.474790412 -0.6847629096 -0.7667081635
C -2.0933755523 -0.2668302979 -0.1428217889
O -1.7032576272 -1.1959952137 0.8729645787
C -0.3214544181 -0.8904170613 1.3183858308
C 0.7126116776 -1.6337637851 0.4073836138
O 2.0216696881 -1.003909899 0.6909194509
C 3.0342156811 -1.6294860126 -0.1071642589
C 4.4009894475 -0.907776367 0.1414667515
C 4.7050883724 0.3159762127 -0.8244381347
C 3.4700356629 0.9763628355 -1.5533039438
O 3.4005868102 2.1808355766 -1.8862753735
O -3.9472026994 2.6756817022 -0.3988177867
O 2.4328373889 0.0250576955 -1.7964201131
O 2.8458920464 -2.6483138765 -0.8065635654
C 1.2229113157 0.6884293069 -2.3453997757
C 4.5807787067 -0.222107982 1.5661220174
C 6.1291217325 -0.1815588213 1.8720506518
C 6.6027665388 0.9114527095 0.842801652
C 5.2246892758 1.3811180847 0.2305439462
O 4.2538902782 1.2034651205 1.3376268403
H 5.1792559583 -1.6776724242 -0.0087666927
H 5.4666472827 0.0535806359 -1.5821394559
H 3.9428102534 -0.6438668146 2.3662801283
H 6.3046593502 0.1415407184 2.9106769159
H 6.6162103338 -1.1573543497 1.71594861
H 7.1118301374 1.7503324505 1.3430014527
H 7.2731424319 0.5012839064 0.0704792959
H 5.1945475489 2.4212080266 -0.1491828504
O -1.3924762647 0.7089405159 -0.5023298577
C -3.3615490195 3.8052591039 0.3599884718
C -5.6282321908 -0.5984246501 0.3964948533
C -6.3932927756 -1.5013370225 -0.6493871506
C -5.2585493308 -2.5100026801 -1.063518308
C -4.062681416 -2.020709636 -0.1536190358
O -4.7294956324 -1.5539037522 1.0842244808
H -5.0984550459 0.7536872975 -1.3199855883
H -3.3375805006 -0.7487156643 -1.861752271
H -2.3349613056 3.5664188103 0.7059152222
H -6.2680551702 -0.0738110488 1.1320827196
H -7.2361095299 -2.019709364 -0.1647790546
H -6.7791612477 -0.9185352424 -1.5009644673
H -5.5298966727 -3.5482691095 -0.8151800712
H -5.0124882891 -2.456658945 -2.1362277893
H -3.3003185431 -2.7869883072 0.0815167738
H -3.9794075337 4.069823276 1.2421249252
H -3.3256035912 4.6594071922 -0.3406962053
H 0.8901577355 0.1105707827 -3.2286146161
H 1.4774601824 1.7270015642 -2.6364927177
H 0.4132644137 0.7006019846 -1.5805840847
H 0.7309371859 -2.722826158 0.6292233209
H 0.4414135989 -1.5089443372 -0.6630493096
H -0.2455616939 -1.2356220256 2.3680969542
H -0.132556789 0.2027200565 1.2634341171
$end

$rem
JOBTYPE                   OPT
METHOD                    B3LYP
DFT_D                     d3_op
BASIS                     STO-3G
GEOM_OPT_MAX_CYCLES       100
GEOM_OPT_TOL_GRADIENT     300
GEOM_OPT_TOL_DISPLACEMENT 1200
GEOM_OPT_TOL_ENERGY       100
SYMMETRY                  False
THRESH                    12
SCF_CONVERGENCE           8
MAX_SUB_FILE_NUM          128
MEM_STATIC                400
MEM_TOTAL                 4000
$end
--------------------------------------------------------------

   15   -1510.2814458529      8.90E-09 Convergence criterion met
 Total energy in the final basis set = -1510.28144585
   14   -1510.2582796618      6.69E-09 Convergence criterion met
 Total energy in the final basis set = -1510.25827966
   14   -1510.2828353125      6.88E-09 Convergence criterion met
 Total energy in the final basis set = -1510.28283531
   14   -1510.2822226776      7.90E-09 Convergence criterion met
 Total energy in the final basis set = -1510.28222268
   14   -1510.2842854209      8.60E-09 Convergence criterion met
 Total energy in the final basis set = -1510.28428542
   14   -1510.2848298892      3.22E-09 Convergence criterion met
 Total energy in the final basis set = -1510.28482989
   14   -1510.2852912386      4.64E-09 Convergence criterion met
 Total energy in the final basis set = -1510.28529124
   13   -1510.2858799048      6.56E-09 Convergence criterion met
   11   -1510.2940741535      7.58E-09 Convergence criterion met
 Total energy in the final basis set = -1510.29407415
   11   -1510.2940632199      3.95E-09 Convergence criterion met
 Total energy in the final basis set = -1510.29406322
   10   -1510.2940747134      8.60E-09 Convergence criterion met
 Total energy in the final basis set = -1510.29407471
    9   -1510.2940752857      5.96E-09 Convergence criterion met
 Total energy in the final basis set = -1510.29407529
    9   -1510.2940740858      5.13E-09 Convergence criterion met
 Total energy in the final basis set = -1510.29407409
   10   -1510.2940725598      6.66E-09 Convergence criterion met
 Total energy in the final basis set = -1510.29407256

             Standard Nuclear Orientation (Angstroms)
    I     Atom           X                Y                Z
 ----------------------------------------------------------------
    1      O      -3.7070282084     2.5914006540    -0.0391136730
    2      C      -3.7125427526     1.6406079994    -0.8489237394
    3      C      -4.4789772730     0.2727095557    -0.7075925474
    4      C      -3.5861091987    -0.9580749532    -0.2694736965
    5      C      -2.0949595170    -0.5760540284     0.0126986247
    6      O      -1.4119444850    -1.7429376422     0.4639301910
    7      C       0.0085102344    -1.4453839102     0.7701096900
    8      C       0.9147709442    -1.6692689624    -0.4915730180
    9      O       2.2593720327    -1.2214913292    -0.0675933416
   10      C       3.1421745907    -1.0635207159    -1.1867953321
   11      C       4.4595309012    -0.4312547524    -0.6259342682
   12      C       4.1699283675     0.8151100378     0.3128361247
   13      C       2.6552439892     1.2414609433     0.3537872524
   14      O       1.9270423740     1.4024489607     1.3560405022
   15      O      -3.1200572410     1.6828279736    -2.1560433435
   16      O       2.2529757825     1.4931016886    -0.9974991074
   17      O       2.8630394921    -1.3893930559    -2.3589653638
   18      C       0.8711656934     2.0256891948    -1.0510513194
   19      C       5.1704331230    -1.4069622565     0.4109817147
   20      C       6.6090742128    -0.8360238036     0.7359829287
   21      C       6.2573865703     0.3467125188     1.7138318894
   22      C       4.6809219795     0.2772856541     1.7125215083
   23      O       4.4085766712    -1.1785959265     1.6580964405
   24      H       5.1148321783    -0.1722684807    -1.4754396849
   25      H       4.7594849720     1.6902697948    -0.0166517211
   26      H       5.1419885897    -2.4772362515     0.1278468700
   27      H       7.2247124520    -1.6034882949     1.2313096974
   28      H       7.1327946561    -0.4952115957    -0.1715527664
   29      H       6.6497038000     0.1612903417     2.7264728197
   30      H       6.6342658916     1.3198239618     1.3605090906
   31      H       4.1703983088     0.7341232877     2.5827119277
   32      O      -1.5725010151     0.5579532020    -0.1001940264
   33      C      -2.4115759185     2.9687064141    -2.3380778836
   34      C      -5.5234311920     0.3254997682     0.4866367215
   35      C      -6.5643936138    -0.8452920441     0.2901706974
   36      C      -5.6898333707    -2.0941317634     0.6822394528
   37      C      -4.3230149543    -1.4021798229     1.0684310519
   38      O      -4.7334369556    -0.1115325683     1.6621837261
   39      H      -4.9733189038     0.0608964315    -1.6723032637
   40      H      -3.6005444454    -1.7668638299    -1.0230024155
   41      H      -1.6976946659     3.1585820885    -1.5122631867
   42      H      -5.9538946785     1.3294998510     0.6660935225
   43      H      -7.4183728264    -0.7208612838     0.9748002934
   44      H      -6.9438752711    -0.8969613258    -0.7429314554
   45      H      -6.1098211976    -2.6255395034     1.5509755696
   46      H      -5.5711190735    -2.8096408353    -0.1470801162
   47      H      -3.6811318783    -1.9731697726     1.7672206422
   48      H      -3.1212119522     3.8201938529    -2.3914276197
   49      H      -1.8642781938     2.8871286595    -3.2952876829
   50      H       0.6545570116     2.1711351887    -2.1249833978
   51      H       0.8014006173     3.0026020476    -0.5308342953
   52      H       0.1125055198     1.3378703122    -0.6108897038
   53      H       0.9213498380    -2.7397254975    -0.7924529189
   54      H       0.5479137750    -1.0685239626    -1.3519639902
   55      H       0.3051976697    -2.1438650171     1.5777626801
   56      H       0.1317018958    -0.3975394829     1.1211700343
 ----------------------------------------------------------------

    9   -1510.2940725559      2.81E-09 Convergence criterion met
 Total energy in the final basis set = -1510.29407256
 Final energy is   -1510.29407255594
 **  OPTIMIZATION CONVERGED  **

                    Orbital Energies (a.u.)
 --------------------------------------------------------------

 Alpha MOs
 -- Occupied --
-18.951 -18.935 -18.924 -18.922 -18.898 -18.889 -18.886 -18.878
-18.867 -18.863 -10.117 -10.101 -10.095 -10.092 -10.077 -10.076
-10.063 -10.061 -10.058 -10.056 -10.056 -10.045 -10.045 -10.037
-10.035 -10.034 -10.022 -10.020 -10.020 -10.018  -1.029  -1.015
 -1.000  -1.000  -0.972  -0.969  -0.953  -0.939  -0.929  -0.926
 -0.766  -0.763  -0.731  -0.723  -0.713  -0.705  -0.697  -0.658
 -0.652  -0.619  -0.597  -0.582  -0.547  -0.545  -0.539  -0.536
 -0.519  -0.509  -0.488  -0.477  -0.467  -0.458  -0.456  -0.442
 -0.434  -0.433  -0.429  -0.413  -0.409  -0.405  -0.404  -0.400
 -0.398  -0.380  -0.371  -0.368  -0.362  -0.358  -0.350  -0.348
 -0.345  -0.339  -0.336  -0.335  -0.330  -0.327  -0.325  -0.314
 -0.309  -0.306  -0.304  -0.302  -0.292  -0.290  -0.278  -0.276
 -0.273  -0.262  -0.251  -0.247  -0.243  -0.236  -0.233  -0.193
 -0.178  -0.175  -0.167  -0.164  -0.156  -0.146  -0.146  -0.143
 -0.142

          Ground-State Mulliken Net Atomic Charges

     Atom                 Charge (a.u.)
  ----------------------------------------
      1 O                    -0.215290
      2 C                     0.215087
      3 C                    -0.081662
      4 C                    -0.077170
      5 C                     0.221377
      6 O                    -0.168985
      7 C                    -0.051016
      8 C                    -0.047737
      9 O                    -0.170917
     10 C                     0.215183
     11 C                    -0.078195
     12 C                    -0.078089
     13 C                     0.214662
     14 O                    -0.217197
     15 O                    -0.175667
     16 O                    -0.179469
     17 O                    -0.210103
     18 C                    -0.144212
     19 C                     0.025647
     20 C                    -0.144135
     21 C                    -0.143495
     22 C                     0.024278
     23 O                    -0.187025
     24 H                     0.085804
     25 H                     0.083297
     26 H                     0.081628
     27 H                     0.077787
     28 H                     0.073712
     29 H                     0.077861
     30 H                     0.073185
     31 H                     0.090328
     32 O                    -0.206463
     33 C                    -0.128717
     34 C                     0.025231
     35 C                    -0.143992
     36 C                    -0.143821
     37 C                     0.025326
     38 O                    -0.188136
     39 H                     0.084313
     40 H                     0.088054
     41 H                     0.093016
     42 H                     0.089410
     43 H                     0.078619
     44 H                     0.073471
     45 H                     0.078949
     46 H                     0.073611
     47 H                     0.087361
     48 H                     0.084471
     49 H                     0.085799
     50 H                     0.082941
     51 H                     0.081340
     52 H                     0.106700
     53 H                     0.086881
     54 H                     0.090507
     55 H                     0.096963
     56 H                     0.108692
  ----------------------------------------
  Sum of atomic charges =    -0.000000

                    Cartesian Multipole Moments
 -----------------------------------------------------------------
    Charge (ESU x 10^10)
                 0.0000
    Dipole Moment (Debye)
         X       0.3115      Y      -1.3136      Z      -1.6757
       Tot       2.1519
    Quadrupole Moments (Debye-Ang)
        XX    -137.3792     XY      10.2792     YY    -157.1936
        XZ       8.0283     YZ      -5.6302     ZZ    -168.0446

 Total job time:  101.10s(wall), 4817.07s(cpu)
        *  Thank you very much for using Q-Chem.  Have a nice day.  *
