 Q-Chem 5.0, Q-Chem, Inc., Pleasanton, CA (2017)
 Q-Chem 5.0.1 for Intel X86 EM64T Linux

User input:
--------------------------------------------------------------
$molecule
0  1
O -3.94934 -3.66094 2.70899
C -3.26408 -4.56952 2.26188
C -3.36658 -6.02376 2.66595
C -2.71863 -6.42973 3.99982
C -2.1956 -5.30492 4.86545
O -2.95045 -5.20233 5.99907
C -2.41567 -4.27525 6.94974
C -1.41279 -4.97599 7.86042
O -0.6394 -4.00153 8.57819
C 0.29181 -4.50535 9.42563
C 1.11899 -3.43388 10.09523
C 2.39159 -3.02986 9.33658
C 2.46771 -3.47464 7.88984
O 3.05711 -2.88356 6.99665
O -2.43747 -4.30266 1.21619
O 2.19427 -4.78477 7.64603
O 0.50986 -5.70204 9.57419
C 2.30103 -5.40093 6.41573
C 0.42447 -2.05593 10.21429
C 1.04801 -1.26378 11.36311
C 2.40573 -0.9407 10.77654
C 2.23059 -1.49705 9.35871
O 0.86004 -1.33509 9.08936
H 1.31268 -3.78868 11.13279
H 3.3185 -3.38777 9.83545
H -0.67596 -2.12646 10.35846
H 0.46682 -0.31825 11.45614
H 1.06791 -1.77618 12.34911
H 2.52544 0.16536 10.75933
H 3.27129 -1.41165 11.29119
H 2.9267 -0.9821 8.66097
O -1.23111 -4.60757 4.57356
C -2.25073 -3.04903 0.67237
C -4.81628 -6.49525 2.86898
C -4.90691 -8.002 2.64344
C -4.18556 -8.51235 3.87203
C -3.92537 -7.19358 4.61269
O -5.02033 -6.38454 4.25631
H -2.89917 -6.60546 1.83794
H -1.86097 -7.12503 3.86234
H -1.84637 -2.35575 1.44071
H -5.54599 -5.96294 2.22009
H -5.98259 -8.27997 2.72121
H -4.50451 -8.36275 1.67242
H -4.88969 -9.15271 4.44876
H -3.24333 -9.06778 3.67448
H -3.80058 -7.40965 5.69623
H -3.21196 -2.65484 0.27869
H -1.52458 -3.11943 -0.16323
H 2.00249 -6.46456 6.51589
H 3.34944 -5.35591 6.05165
H 1.6252 -4.90852 5.68408
H -1.94557 -5.67678 8.54137
H -0.7109 -5.55683 7.22094
H -3.23595 -3.86288 7.57427
H -1.9505 -3.39309 6.45221
$end

$opt
CONSTRAINT
tors           1           2           3           4     -78.123
tors           3           4           5           6    +112.036
tors           4           5           6           7    +172.424
tors           5           6           7           8     -87.483
tors           6           7           8           9    +165.642
tors           7           8           9          10    +179.988
tors           8           9          10          11    +177.009
tors           9          10          11          12     -89.887
tors          11          12          13          14    +149.979
ENDCONSTRAINT
$end

$rem
JOBTYPE                   OPT
METHOD                    B3LYP
DFT_D                     d3_op
BASIS                     STO-3G
GEOM_OPT_MAX_CYCLES       100
GEOM_OPT_TOL_GRADIENT     300
GEOM_OPT_TOL_DISPLACEMENT 1200
GEOM_OPT_TOL_ENERGY       100
SYMMETRY                  False
THRESH                    12
SCF_CONVERGENCE           8
MAX_SUB_FILE_NUM          128
MEM_STATIC                400
MEM_TOTAL                 4000
$end
--------------------------------------------------------------

   15   -1510.1493277982      7.24E-09 Convergence criterion met
 Total energy in the final basis set = -1510.14932780
   13   -1510.2185065321      8.99E-09 Convergence criterion met
 Total energy in the final basis set = -1510.21850653
   14   -1510.2553816439      7.28E-09 Convergence criterion met
 Total energy in the final basis set = -1510.25538164
   14   -1510.2715064709      8.63E-09 Convergence criterion met
 Total energy in the final basis set = -1510.27150647
   14   -1510.2770280439      6.32E-09 Convergence criterion met
 Total energy in the final basis set = -1510.27702804
   14   -1510.2781514994      4.84E-09 Convergence criterion met
 Total energy in the final basis set = -1510.27815150
   13   -1510.2794097169      4.42E-09 Convergence criterion met
 Total energy in the final basis set = -1510.27940972
   12   -1510.2797088905      5.42E-09 Convergence criterion met
   12   -1510.2814062963      2.36E-09 Convergence criterion met
 Total energy in the final basis set = -1510.28140630
   11   -1510.2814467458      5.90E-09 Convergence criterion met
 Total energy in the final basis set = -1510.28144675
   11   -1510.2814671607      5.98E-09 Convergence criterion met
 Total energy in the final basis set = -1510.28146716
   10   -1510.2814747597      3.91E-09 Convergence criterion met
 Total energy in the final basis set = -1510.28147476
    9   -1510.2814770376      6.51E-09 Convergence criterion met
 Total energy in the final basis set = -1510.28147704
    9   -1510.2814781790      5.06E-09 Convergence criterion met
 Total energy in the final basis set = -1510.28147818

             Standard Nuclear Orientation (Angstroms)
    I     Atom           X                Y                Z
 ----------------------------------------------------------------
    1      O      -3.8727260486     1.5523531050     1.6886873736
    2      C      -4.1191988483     1.5458491761     0.4632051886
    3      C      -4.6348057938     0.3462737345    -0.4044766235
    4      C      -3.4747904120    -0.6847629096    -0.7667081635
    5      C      -2.0933755523    -0.2668302979    -0.1428217889
    6      O      -1.7032576272    -1.1959952137     0.8729645787
    7      C      -0.3214544181    -0.8904170613     1.3183858308
    8      C       0.7126116776    -1.6337637851     0.4073836138
    9      O       2.0216696881    -1.0039098990     0.6909194509
   10      C       3.0342156811    -1.6294860126    -0.1071642589
   11      C       4.4009894475    -0.9077763670     0.1414667515
   12      C       4.7050883724     0.3159762127    -0.8244381347
   13      C       3.4700356629     0.9763628355    -1.5533039438
   14      O       3.4005868102     2.1808355766    -1.8862753735
   15      O      -3.9472026994     2.6756817022    -0.3988177867
   16      O       2.4328373889     0.0250576955    -1.7964201131
   17      O       2.8458920464    -2.6483138765    -0.8065635654
   18      C       1.2229113157     0.6884293069    -2.3453997757
   19      C       4.5807787067    -0.2221079820     1.5661220174
   20      C       6.1291217325    -0.1815588213     1.8720506518
   21      C       6.6027665388     0.9114527095     0.8428016520
   22      C       5.2246892758     1.3811180847     0.2305439462
   23      O       4.2538902782     1.2034651205     1.3376268403
   24      H       5.1792559583    -1.6776724242    -0.0087666927
   25      H       5.4666472827     0.0535806359    -1.5821394559
   26      H       3.9428102534    -0.6438668146     2.3662801283
   27      H       6.3046593502     0.1415407184     2.9106769159
   28      H       6.6162103338    -1.1573543497     1.7159486100
   29      H       7.1118301374     1.7503324505     1.3430014527
   30      H       7.2731424319     0.5012839064     0.0704792959
   31      H       5.1945475489     2.4212080266    -0.1491828504
   32      O      -1.3924762647     0.7089405159    -0.5023298577
   33      C      -3.3615490195     3.8052591039     0.3599884718
   34      C      -5.6282321908    -0.5984246501     0.3964948533
   35      C      -6.3932927756    -1.5013370225    -0.6493871506
   36      C      -5.2585493308    -2.5100026801    -1.0635183080
   37      C      -4.0626814160    -2.0207096360    -0.1536190358
   38      O      -4.7294956324    -1.5539037522     1.0842244808
   39      H      -5.0984550459     0.7536872975    -1.3199855883
   40      H      -3.3375805006    -0.7487156643    -1.8617522710
   41      H      -2.3349613056     3.5664188103     0.7059152222
   42      H      -6.2680551702    -0.0738110488     1.1320827196
   43      H      -7.2361095299    -2.0197093640    -0.1647790546
   44      H      -6.7791612477    -0.9185352424    -1.5009644673
   45      H      -5.5298966727    -3.5482691095    -0.8151800712
   46      H      -5.0124882891    -2.4566589450    -2.1362277893
   47      H      -3.3003185431    -2.7869883072     0.0815167738
   48      H      -3.9794075337     4.0698232760     1.2421249252
   49      H      -3.3256035912     4.6594071922    -0.3406962053
   50      H       0.8901577355     0.1105707827    -3.2286146161
   51      H       1.4774601824     1.7270015642    -2.6364927177
   52      H       0.4132644137     0.7006019846    -1.5805840847
   53      H       0.7309371859    -2.7228261580     0.6292233209
   54      H       0.4414135989    -1.5089443372    -0.6630493096
   55      H      -0.2455616939    -1.2356220256     2.3680969542
   56      H      -0.1325567890     0.2027200565     1.2634341171
 ----------------------------------------------------------------

    9   -1510.2814789258      3.24E-09 Convergence criterion met
 Total energy in the final basis set = -1510.28147893
 Final energy is   -1510.28147892579
 **  OPTIMIZATION CONVERGED  **

                    Orbital Energies (a.u.)
 --------------------------------------------------------------

 Alpha MOs
 -- Occupied --
-18.945 -18.937 -18.933 -18.926 -18.888 -18.884 -18.882 -18.874
-18.873 -18.864 -10.108 -10.100 -10.097 -10.096 -10.073 -10.070
-10.061 -10.061 -10.060 -10.058 -10.056 -10.050 -10.043 -10.039
-10.038 -10.034 -10.022 -10.021 -10.019 -10.018  -1.021  -1.013
 -1.009  -1.003  -0.970  -0.968  -0.945  -0.935  -0.934  -0.930
 -0.765  -0.761  -0.728  -0.722  -0.715  -0.705  -0.693  -0.661
 -0.656  -0.615  -0.597  -0.581  -0.549  -0.543  -0.539  -0.536
 -0.517  -0.509  -0.487  -0.475  -0.464  -0.462  -0.456  -0.438
 -0.436  -0.433  -0.428  -0.412  -0.411  -0.408  -0.404  -0.401
 -0.397  -0.383  -0.375  -0.369  -0.361  -0.355  -0.353  -0.350
 -0.344  -0.338  -0.332  -0.331  -0.329  -0.328  -0.324  -0.311
 -0.309  -0.307  -0.304  -0.300  -0.293  -0.287  -0.285  -0.279
 -0.276  -0.258  -0.252  -0.249  -0.238  -0.234  -0.232  -0.185
 -0.176  -0.175  -0.168  -0.163  -0.157  -0.150  -0.147  -0.144
 -0.140

          Ground-State Mulliken Net Atomic Charges

     Atom                 Charge (a.u.)
  ----------------------------------------
      1 O                    -0.211895
      2 C                     0.205622
      3 C                    -0.079061
      4 C                    -0.077346
      5 C                     0.210484
      6 O                    -0.162729
      7 C                    -0.050512
      8 C                    -0.047618
      9 O                    -0.174296
     10 C                     0.218314
     11 C                    -0.082332
     12 C                    -0.076045
     13 C                     0.214380
     14 O                    -0.214780
     15 O                    -0.167891
     16 O                    -0.170272
     17 O                    -0.219456
     18 C                    -0.142110
     19 C                     0.024982
     20 C                    -0.142706
     21 C                    -0.145396
     22 C                     0.023798
     23 O                    -0.190223
     24 H                     0.082886
     25 H                     0.085881
     26 H                     0.086429
     27 H                     0.077588
     28 H                     0.073138
     29 H                     0.078386
     30 H                     0.073275
     31 H                     0.090562
     32 O                    -0.219450
     33 C                    -0.128570
     34 C                     0.025407
     35 C                    -0.143640
     36 C                    -0.144593
     37 C                     0.024657
     38 O                    -0.185273
     39 H                     0.086376
     40 H                     0.085953
     41 H                     0.091468
     42 H                     0.085586
     43 H                     0.078361
     44 H                     0.073554
     45 H                     0.078485
     46 H                     0.072825
     47 H                     0.090301
     48 H                     0.089461
     49 H                     0.090652
     50 H                     0.083621
     51 H                     0.101682
     52 H                     0.099986
     53 H                     0.087265
     54 H                     0.086808
     55 H                     0.094120
     56 H                     0.103902
  ----------------------------------------
  Sum of atomic charges =     0.000000

                    Cartesian Multipole Moments
 -----------------------------------------------------------------
    Charge (ESU x 10^10)
                 0.0000
    Dipole Moment (Debye)
         X      -0.3276      Y      -0.6802      Z      -1.2469
       Tot       1.4576
    Quadrupole Moments (Debye-Ang)
        XX    -138.8053     XY      -2.5356     YY    -162.4665
        XZ      12.1596     YZ       0.5115     ZZ    -162.3357

 Total job time:  66.35s(wall), 3159.19s(cpu)
        *  Thank you very much for using Q-Chem.  Have a nice day.  *
