 Q-Chem 5.0, Q-Chem, Inc., Pleasanton, CA (2017)
 Q-Chem 5.0.1 for Intel X86 EM64T Linux

User input:
--------------------------------------------------------------
$molecule
0  1
O -3.5546930996 1.4996877655 1.762095153
C -3.8940561837 1.5574151551 0.5603030455
C -4.5553726113 0.4303022355 -0.3058084168
C -3.5010946516 -0.6606936121 -0.7952638819
C -2.0582706049 -0.3622882367 -0.2487891268
O -1.7141256677 -1.2981173379 0.7738857697
C -0.3326476893 -1.040613688 1.2500342914
C 0.7186949123 -1.7546874087 0.3310545506
O 2.0034128669 -1.0681056714 0.593925201
C 3.0380425918 -1.6549697495 -0.2068552654
C 4.3786056288 -0.8885362101 0.0580457695
C 4.6120299084 0.4126724153 -0.8225164133
C 3.3661485042 1.002602677 -1.5879329393
O 3.2358586754 2.2023938899 -1.919427637
O -3.708356466 2.705269431 -0.2744513142
O 2.4112622492 -0.0145245845 -1.8867533598
O 2.886082697 -2.6785774486 -0.9079499927
C 1.1829501001 0.5668838939 -2.4846508834
C 4.5262020232 -0.2890176314 1.5246365884
C 6.0696418887 -0.136070089 1.821710587
C 6.430766384 1.08282788 0.8940820825
C 5.0134422609 1.4545072984 0.3050336747
O 4.0691763612 1.1132283556 1.3957824112
H 5.1897519072 -1.610123467 -0.1463554872
H 5.425719115 0.2564572916 -1.5549174488
H 3.9402590867 -0.8184590049 2.3001696449
H 6.2330475898 0.1042002404 2.8844658456
H 6.6371003109 -1.0470174314 1.5727229561
H 6.8416047852 1.9253447111 1.4724554283
H 7.148340384 0.8156162723 0.1018920366
H 4.8833494569 2.509022938 -0.0079179666
O -1.2997253772 0.5558485233 -0.6417977247
C -2.9976504007 3.7665657914 0.4764627016
C -5.5495732848 -0.4773748872 0.535827875
C -6.4598919273 -1.2763754586 -0.4769249308
C -5.434909421 -2.3355276388 -1.0293215971
C -4.140450292 -1.9787289595 -0.1946125949
O -4.6747069769 -1.5243040643 1.1103768229
H -5.0571822188 0.9058689494 -1.166936521
H -3.4456946197 -0.6825449887 -1.8988758248
H -1.9739333956 3.4441037799 0.7567403745
H -6.0889878625 0.0579368724 1.3410228325
H -7.2923096672 -1.7615268172 0.0574522856
H -6.8754926824 -0.6304729584 -1.2669023673
H -5.7602633182 -3.365178569 -0.812104501
H -5.2675776677 -2.2398138451 -2.1141903725
H -3.4230384453 -2.8088834117 -0.0514980661
H -3.5441509551 4.0501886186 1.3988333048
H -2.9376927836 4.6355058332 -0.2040585201
H 0.9036211271 -0.060843771 -3.3519267719
H 1.3898284609 1.6056733257 -2.8098348146
H 0.3562137653 0.5662236681 -1.7364066291
H 0.7844315325 -2.8398783152 0.5622576061
H 0.4298752989 -1.6508391257 -0.7371488094
H -0.2863280196 -1.4323611856 2.284996402
H -0.1207531931 0.0498620794 1.2503143701
$end

$rem
JOBTYPE                   OPT
METHOD                    B3LYP
DFT_D                     d3_op
BASIS                     STO-3G
GEOM_OPT_MAX_CYCLES       100
GEOM_OPT_TOL_GRADIENT     300
GEOM_OPT_TOL_DISPLACEMENT 1200
GEOM_OPT_TOL_ENERGY       100
SYMMETRY                  False
THRESH                    12
SCF_CONVERGENCE           8
MAX_SUB_FILE_NUM          128
MEM_STATIC                400
MEM_TOTAL                 4000
$end
--------------------------------------------------------------

   16   -1510.2833303914      5.53E-09 Convergence criterion met
 Total energy in the final basis set = -1510.28333039
   15   -1510.2393679042      7.62E-09 Convergence criterion met
 Total energy in the final basis set = -1510.23936790
   14   -1510.2838365164      4.83E-09 Convergence criterion met
 Total energy in the final basis set = -1510.28383652
   14   -1510.2837880631      6.13E-09 Convergence criterion met
 Total energy in the final basis set = -1510.28378806
   14   -1510.2848011707      3.12E-09 Convergence criterion met
 Total energy in the final basis set = -1510.28480117
   13   -1510.2860095722      7.19E-09 Convergence criterion met
 Total energy in the final basis set = -1510.28600957
   14   -1510.2863412773      5.44E-09 Convergence criterion met
 Total energy in the final basis set = -1510.28634128
   13   -1510.2865304497      3.15E-09 Convergence criterion met
   12   -1510.2958252955      3.39E-09 Convergence criterion met
 Total energy in the final basis set = -1510.29582530
   11   -1510.2958418388      6.24E-09 Convergence criterion met
 Total energy in the final basis set = -1510.29584184
   11   -1510.2958521672      5.89E-09 Convergence criterion met
 Total energy in the final basis set = -1510.29585217
   11   -1510.2958547345      4.49E-09 Convergence criterion met
 Total energy in the final basis set = -1510.29585473
    9   -1510.2958570833      4.22E-09 Convergence criterion met
 Total energy in the final basis set = -1510.29585708
    9   -1510.2958559313      5.96E-09 Convergence criterion met
 Total energy in the final basis set = -1510.29585593

             Standard Nuclear Orientation (Angstroms)
    I     Atom           X                Y                Z
 ----------------------------------------------------------------
    1      O      -2.7865251465     2.2075094144     1.2412662132
    2      C      -2.8885018465     1.7706196053     0.0743485582
    3      C      -3.8876722333     0.6611666512    -0.4303533982
    4      C      -3.3198158992    -0.8174533155    -0.3574201832
    5      C      -1.8598345416    -0.8789417832     0.2021373945
    6      O      -1.5606244884    -2.2049600728     0.6340423994
    7      C      -0.1598380483    -2.2772202220     1.1203290133
    8      C       0.8647694699    -2.4241549341    -0.0684435553
    9      O       1.9641934437    -1.4667476913     0.1974650592
   10      C       2.9940066497    -1.6140940179    -0.7919212145
   11      C       4.1535788635    -0.6177179388    -0.4550731717
   12      C       3.7079780571     0.9019479720    -0.3744783289
   13      C       2.1948505756     1.1637803877    -0.7016722405
   14      O       1.4157323117     1.8961032939    -0.0508654687
   15      O      -2.1979562908     2.2967651814    -1.0631691226
   16      O       1.8659773857     0.4642040738    -1.8996779507
   17      O       2.9608576879    -2.4554917235    -1.7154254475
   18      C       0.4367942950     0.6547047533    -2.2496358404
   19      C       4.6944358981    -0.8345243614     1.0271844436
   20      C       6.0749212780    -0.0790042348     1.1741349272
   21      C       5.5951022227     1.4168709195     1.2816951290
   22      C       4.0341752414     1.2431264918     1.1378551789
   23      O       3.7630845913    -0.0293377215     1.8473273021
   24      H       4.9466051544    -0.7661384476    -1.2086049323
   25      H       4.3142709654     1.5171564969    -1.0654569203
   26      H       4.6967811574    -1.8893054465     1.3645289446
   27      H       6.5947664530    -0.4048344274     2.0889212087
   28      H       6.7359399983    -0.2532656380     0.3101712679
   29      H       5.8454277021     1.8500098415     2.2630937847
   30      H       6.0183802643     2.0589836337     0.4929624103
   31      H       3.4103549794     2.0586762462     1.5530385804
   32      O      -1.0395235446     0.0686220091     0.2597893890
   33      C      -1.1905560113     3.2980091215    -0.6307004746
   34      C      -5.1419279964     0.5376635446     0.5360873934
   35      C      -6.2823871709    -0.2496014476    -0.2208529166
   36      C      -5.7181170233    -1.7182401182    -0.1766326058
   37      C      -4.3692426093    -1.5035519106     0.6159973197
   38      O      -4.6906864262    -0.4211338468     1.5725583952
   39      H      -4.1861110602     0.9102458220    -1.4638143083
   40      H      -3.3215864377    -1.2997977416    -1.3529598167
   41      H      -0.2308894977     2.7906782207    -0.3691667950
   42      H      -5.4496421096     1.4918014465     1.0055387956
   43      H      -7.2349503063    -0.1671421651     0.3263677668
   44      H      -6.4326574637     0.1197288287    -1.2479705874
   45      H      -6.3876718371    -2.3924838501     0.3806765198
   46      H      -5.5477162641    -2.1402315214    -1.1801362652
   47      H      -3.9758570370    -2.3937543055     1.1439015018
   48      H      -1.5578178792     3.8674349562     0.2450909222
   49      H      -1.0370765102     3.9784120122    -1.4886615948
   50      H       0.2049443607    -0.1193535841    -3.0040449531
   51      H       0.2677758836     1.6563548397    -2.6929971205
   52      H      -0.2152729228     0.5368606757    -1.3538768789
   53      H       1.2542419686    -3.4623610183    -0.1391487153
   54      H       0.3632223792    -2.1882422851    -1.0333471703
   55      H      -0.1234245358    -3.1600075972     1.7877349671
   56      H       0.1002757680    -1.3607588950     1.6934138000
 ----------------------------------------------------------------

    9   -1510.2958554169      5.85E-09 Convergence criterion met
 Total energy in the final basis set = -1510.29585542
 Final energy is   -1510.29585541691
 **  OPTIMIZATION CONVERGED  **

                    Orbital Energies (a.u.)
 --------------------------------------------------------------

 Alpha MOs
 -- Occupied --
-18.950 -18.936 -18.932 -18.911 -18.894 -18.887 -18.886 -18.882
-18.872 -18.852 -10.114 -10.104 -10.099 -10.083 -10.079 -10.076
-10.061 -10.060 -10.057 -10.056 -10.049 -10.043 -10.038 -10.037
-10.031 -10.028 -10.021 -10.020 -10.019 -10.018  -1.028  -1.015
 -1.006  -0.990  -0.970  -0.969  -0.951  -0.938  -0.935  -0.916
 -0.764  -0.762  -0.730  -0.722  -0.713  -0.705  -0.696  -0.658
 -0.642  -0.618  -0.596  -0.581  -0.546  -0.544  -0.537  -0.535
 -0.519  -0.509  -0.489  -0.473  -0.463  -0.456  -0.451  -0.441
 -0.435  -0.431  -0.429  -0.418  -0.409  -0.405  -0.402  -0.398
 -0.394  -0.378  -0.371  -0.368  -0.357  -0.355  -0.349  -0.347
 -0.342  -0.339  -0.332  -0.330  -0.328  -0.323  -0.322  -0.313
 -0.310  -0.306  -0.304  -0.299  -0.292  -0.289  -0.278  -0.275
 -0.271  -0.260  -0.253  -0.249  -0.234  -0.233  -0.233  -0.192
 -0.177  -0.174  -0.166  -0.164  -0.152  -0.147  -0.143  -0.143
 -0.135

          Ground-State Mulliken Net Atomic Charges

     Atom                 Charge (a.u.)
  ----------------------------------------
      1 O                    -0.218610
      2 C                     0.211566
      3 C                    -0.081724
      4 C                    -0.078381
      5 C                     0.218417
      6 O                    -0.167780
      7 C                    -0.050503
      8 C                    -0.047739
      9 O                    -0.170300
     10 C                     0.212724
     11 C                    -0.078894
     12 C                    -0.077973
     13 C                     0.222250
     14 O                    -0.206374
     15 O                    -0.179517
     16 O                    -0.171679
     17 O                    -0.215240
     18 C                    -0.142500
     19 C                     0.025923
     20 C                    -0.144126
     21 C                    -0.143866
     22 C                     0.024423
     23 O                    -0.186359
     24 H                     0.085245
     25 H                     0.084748
     26 H                     0.081449
     27 H                     0.078039
     28 H                     0.073689
     29 H                     0.078577
     30 H                     0.073171
     31 H                     0.092188
     32 O                    -0.204827
     33 C                    -0.148871
     34 C                     0.025577
     35 C                    -0.144207
     36 C                    -0.143951
     37 C                     0.024175
     38 O                    -0.187910
     39 H                     0.083050
     40 H                     0.085494
     41 H                     0.111018
     42 H                     0.087733
     43 H                     0.078013
     44 H                     0.073223
     45 H                     0.078273
     46 H                     0.072531
     47 H                     0.088899
     48 H                     0.087829
     49 H                     0.074087
     50 H                     0.083136
     51 H                     0.084311
     52 H                     0.111813
     53 H                     0.089018
     54 H                     0.086549
     55 H                     0.093428
     56 H                     0.110765
  ----------------------------------------
  Sum of atomic charges =     0.000000

                    Cartesian Multipole Moments
 -----------------------------------------------------------------
    Charge (ESU x 10^10)
                 0.0000
    Dipole Moment (Debye)
         X       0.7685      Y      -1.3298      Z      -2.1830
       Tot       2.6691
    Quadrupole Moments (Debye-Ang)
        XX    -140.4645     XY       8.2608     YY    -157.2166
        XZ      10.6705     YZ      -7.3596     ZZ    -166.8297

 Total job time:  147.46s(wall), 7037.20s(cpu)
        *  Thank you very much for using Q-Chem.  Have a nice day.  *
