 Q-Chem 5.0, Q-Chem, Inc., Pleasanton, CA (2017)
 Q-Chem 5.0.1 for Intel X86 EM64T Linux

User input:
--------------------------------------------------------------
$molecule
0  1
O -3.94934 -3.66094 2.70899
C -3.26408 -4.56952 2.26188
C -3.36658 -6.02376 2.66595
C -2.71863 -6.42973 3.99982
C -2.1956 -5.30492 4.86545
O -3.01155 -5.13411 5.94734
C -2.55477 -4.11392 6.84167
C -1.52871 -4.6876 7.81337
O -0.75567 -3.62475 8.39273
C 0.19521 -4.01147 9.27897
C 0.99687 -2.85366 9.82439
C 2.1996 -2.43731 8.96511
C 2.21891 -2.97771 7.54938
O 2.77923 -2.45292 6.59796
O -2.43545 -4.3021 1.21796
O 1.94172 -4.30236 7.4021
O 0.23377 -5.12816 9.78116
C 2.0408 -5.00609 6.21877
C 0.22911 -1.52161 9.93002
C 0.8918 -0.62467 10.97402
C 2.17033 -0.25042 10.25317
C 1.92788 -0.9189 8.89488
O 0.5312 -0.85669 8.72906
H 1.33275 -3.15691 10.84255
H 3.18203 -2.68041 9.42599
H -0.84992 -1.65362 10.16416
H 0.25859 0.28641 11.0708
H 1.02949 -1.08278 11.97704
H 2.1994 0.85671 10.14519
H 3.10829 -0.61243 10.72722
H 2.53226 -0.4116 8.11118
O -1.22532 -4.61439 4.57755
C -2.24527 -3.04761 0.67732
C -4.81631 -6.49488 2.867
C -4.90638 -8.00294 2.64812
C -4.19222 -8.50793 3.88319
C -3.92938 -7.1853 4.6153
O -5.02292 -6.37675 4.2529
H -2.89766 -6.60497 1.83855
H -1.86644 -7.13332 3.87111
H -1.84048 -2.35707 1.44793
H -5.54405 -5.96529 2.21368
H -5.98224 -8.28157 2.72043
H -4.49747 -8.36674 1.68096
H -4.90217 -9.13904 4.46299
H -3.25291 -9.07092 3.69347
H -3.8042 -7.39139 5.70094
H -3.20506 -2.65035 0.28323
H -1.51799 -3.11758 -0.15733
H 1.73629 -6.05806 6.39485
H 3.08842 -4.99317 5.84988
H 1.36854 -4.56205 5.45478
H -2.0406 -5.3161 8.57593
H -0.82171 -5.32785 7.24043
H -3.4068 -3.70291 7.42307
H -2.13341 -3.24745 6.28086
$end

$opt
CONSTRAINT
tors           1           2           3           4     -78.123
tors           3           4           5           6    +107.343
tors           4           5           6           7    +177.957
tors           5           6           7           8     -84.691
tors           6           7           8           9    +160.842
tors           7           8           9          10    +179.981
tors           8           9          10          11    +178.476
tors           9          10          11          12     -86.014
tors          11          12          13          14    +153.819
ENDCONSTRAINT
$end

$rem
JOBTYPE                   OPT
METHOD                    B3LYP
DFT_D                     d3_op
BASIS                     STO-3G
GEOM_OPT_MAX_CYCLES       100
GEOM_OPT_TOL_GRADIENT     300
GEOM_OPT_TOL_DISPLACEMENT 1200
GEOM_OPT_TOL_ENERGY       100
SYMMETRY                  False
THRESH                    12
SCF_CONVERGENCE           8
MAX_SUB_FILE_NUM          128
MEM_STATIC                400
MEM_TOTAL                 4000
$end
--------------------------------------------------------------

   15   -1510.1502917591      6.63E-09 Convergence criterion met
 Total energy in the final basis set = -1510.15029176
   14   -1510.2202077903      8.20E-09 Convergence criterion met
 Total energy in the final basis set = -1510.22020779
   15   -1510.2578359985      1.17E-09 Convergence criterion met
 Total energy in the final basis set = -1510.25783600
   15   -1510.2744053578      1.14E-09 Convergence criterion met
 Total energy in the final basis set = -1510.27440536
   14   -1510.2794869547      5.88E-09 Convergence criterion met
 Total energy in the final basis set = -1510.27948695
   13   -1510.2809014736      7.24E-09 Convergence criterion met
 Total energy in the final basis set = -1510.28090147
   12   -1510.2814565152      8.78E-09 Convergence criterion met
 Total energy in the final basis set = -1510.28145652
   12   -1510.2818179602      7.49E-09 Convergence criterion met
   10   -1510.2833444242      6.10E-09 Convergence criterion met
 Total energy in the final basis set = -1510.28334442
    9   -1510.2833493395      7.77E-09 Convergence criterion met
 Total energy in the final basis set = -1510.28334934
    9   -1510.2833523856      7.80E-09 Convergence criterion met
 Total energy in the final basis set = -1510.28335239
    9   -1510.2833556882      6.58E-09 Convergence criterion met
 Total energy in the final basis set = -1510.28335569
    9   -1510.2833570762      2.88E-09 Convergence criterion met
 Total energy in the final basis set = -1510.28335708
    8   -1510.2833603175      7.91E-09 Convergence criterion met
 Total energy in the final basis set = -1510.28336032

             Standard Nuclear Orientation (Angstroms)
    I     Atom           X                Y                Z
 ----------------------------------------------------------------
    1      O      -3.5546930996     1.4996877655     1.7620951530
    2      C      -3.8940561837     1.5574151551     0.5603030455
    3      C      -4.5553726113     0.4303022355    -0.3058084168
    4      C      -3.5010946516    -0.6606936121    -0.7952638819
    5      C      -2.0582706049    -0.3622882367    -0.2487891268
    6      O      -1.7141256677    -1.2981173379     0.7738857697
    7      C      -0.3326476893    -1.0406136880     1.2500342914
    8      C       0.7186949123    -1.7546874087     0.3310545506
    9      O       2.0034128669    -1.0681056714     0.5939252010
   10      C       3.0380425918    -1.6549697495    -0.2068552654
   11      C       4.3786056288    -0.8885362101     0.0580457695
   12      C       4.6120299084     0.4126724153    -0.8225164133
   13      C       3.3661485042     1.0026026770    -1.5879329393
   14      O       3.2358586754     2.2023938899    -1.9194276370
   15      O      -3.7083564660     2.7052694310    -0.2744513142
   16      O       2.4112622492    -0.0145245845    -1.8867533598
   17      O       2.8860826970    -2.6785774486    -0.9079499927
   18      C       1.1829501001     0.5668838939    -2.4846508834
   19      C       4.5262020232    -0.2890176314     1.5246365884
   20      C       6.0696418887    -0.1360700890     1.8217105870
   21      C       6.4307663840     1.0828278800     0.8940820825
   22      C       5.0134422609     1.4545072984     0.3050336747
   23      O       4.0691763612     1.1132283556     1.3957824112
   24      H       5.1897519072    -1.6101234670    -0.1463554872
   25      H       5.4257191150     0.2564572916    -1.5549174488
   26      H       3.9402590867    -0.8184590049     2.3001696449
   27      H       6.2330475898     0.1042002404     2.8844658456
   28      H       6.6371003109    -1.0470174314     1.5727229561
   29      H       6.8416047852     1.9253447111     1.4724554283
   30      H       7.1483403840     0.8156162723     0.1018920366
   31      H       4.8833494569     2.5090229380    -0.0079179666
   32      O      -1.2997253772     0.5558485233    -0.6417977247
   33      C      -2.9976504007     3.7665657914     0.4764627016
   34      C      -5.5495732848    -0.4773748872     0.5358278750
   35      C      -6.4598919273    -1.2763754586    -0.4769249308
   36      C      -5.4349094210    -2.3355276388    -1.0293215971
   37      C      -4.1404502920    -1.9787289595    -0.1946125949
   38      O      -4.6747069769    -1.5243040643     1.1103768229
   39      H      -5.0571822188     0.9058689494    -1.1669365210
   40      H      -3.4456946197    -0.6825449887    -1.8988758248
   41      H      -1.9739333956     3.4441037799     0.7567403745
   42      H      -6.0889878625     0.0579368724     1.3410228325
   43      H      -7.2923096672    -1.7615268172     0.0574522856
   44      H      -6.8754926824    -0.6304729584    -1.2669023673
   45      H      -5.7602633182    -3.3651785690    -0.8121045010
   46      H      -5.2675776677    -2.2398138451    -2.1141903725
   47      H      -3.4230384453    -2.8088834117    -0.0514980661
   48      H      -3.5441509551     4.0501886186     1.3988333048
   49      H      -2.9376927836     4.6355058332    -0.2040585201
   50      H       0.9036211271    -0.0608437710    -3.3519267719
   51      H       1.3898284609     1.6056733257    -2.8098348146
   52      H       0.3562137653     0.5662236681    -1.7364066291
   53      H       0.7844315325    -2.8398783152     0.5622576061
   54      H       0.4298752989    -1.6508391257    -0.7371488094
   55      H      -0.2863280196    -1.4323611856     2.2849964020
   56      H      -0.1207531931     0.0498620794     1.2503143701
 ----------------------------------------------------------------

    8   -1510.2833608580      8.58E-09 Convergence criterion met
 Total energy in the final basis set = -1510.28336086
 Final energy is   -1510.28336085799
 **  OPTIMIZATION CONVERGED  **

                    Orbital Energies (a.u.)
 --------------------------------------------------------------

 Alpha MOs
 -- Occupied --
-18.946 -18.935 -18.934 -18.924 -18.889 -18.884 -18.883 -18.873
-18.872 -18.862 -10.109 -10.099 -10.098 -10.095 -10.074 -10.070
-10.061 -10.061 -10.061 -10.057 -10.056 -10.047 -10.043 -10.039
-10.037 -10.033 -10.022 -10.021 -10.019 -10.017  -1.022  -1.012
 -1.009  -1.001  -0.971  -0.967  -0.945  -0.935  -0.933  -0.928
 -0.766  -0.760  -0.728  -0.722  -0.714  -0.705  -0.693  -0.661
 -0.654  -0.615  -0.597  -0.581  -0.549  -0.542  -0.539  -0.535
 -0.517  -0.509  -0.488  -0.473  -0.464  -0.460  -0.456  -0.439
 -0.435  -0.433  -0.427  -0.411  -0.410  -0.409  -0.405  -0.400
 -0.397  -0.381  -0.375  -0.368  -0.360  -0.355  -0.353  -0.349
 -0.343  -0.339  -0.332  -0.330  -0.328  -0.327  -0.323  -0.311
 -0.309  -0.307  -0.303  -0.299  -0.293  -0.287  -0.285  -0.279
 -0.275  -0.258  -0.252  -0.248  -0.236  -0.235  -0.232  -0.186
 -0.176  -0.174  -0.166  -0.163  -0.156  -0.150  -0.146  -0.145
 -0.139

          Ground-State Mulliken Net Atomic Charges

     Atom                 Charge (a.u.)
  ----------------------------------------
      1 O                    -0.211857
      2 C                     0.205175
      3 C                    -0.079094
      4 C                    -0.077369
      5 C                     0.211686
      6 O                    -0.161452
      7 C                    -0.049295
      8 C                    -0.047578
      9 O                    -0.174181
     10 C                     0.218589
     11 C                    -0.081947
     12 C                    -0.076733
     13 C                     0.214139
     14 O                    -0.215869
     15 O                    -0.167809
     16 O                    -0.170193
     17 O                    -0.219823
     18 C                    -0.144636
     19 C                     0.025462
     20 C                    -0.143233
     21 C                    -0.145091
     22 C                     0.023916
     23 O                    -0.189601
     24 H                     0.082822
     25 H                     0.085458
     26 H                     0.085420
     27 H                     0.077353
     28 H                     0.073065
     29 H                     0.078128
     30 H                     0.073265
     31 H                     0.090001
     32 O                    -0.219542
     33 C                    -0.128604
     34 C                     0.025596
     35 C                    -0.143571
     36 C                    -0.144609
     37 C                     0.025124
     38 O                    -0.184939
     39 H                     0.086627
     40 H                     0.086026
     41 H                     0.091781
     42 H                     0.085608
     43 H                     0.078507
     44 H                     0.073680
     45 H                     0.078478
     46 H                     0.072959
     47 H                     0.089515
     48 H                     0.089255
     49 H                     0.091026
     50 H                     0.082620
     51 H                     0.099447
     52 H                     0.103690
     53 H                     0.086828
     54 H                     0.087284
     55 H                     0.094778
     56 H                     0.103716
  ----------------------------------------
  Sum of atomic charges =     0.000000

                    Cartesian Multipole Moments
 -----------------------------------------------------------------
    Charge (ESU x 10^10)
                 0.0000
    Dipole Moment (Debye)
         X      -0.5869      Y      -0.4873      Z      -1.0731
       Tot       1.3166
    Quadrupole Moments (Debye-Ang)
        XX    -137.6153     XY      -1.7075     YY    -162.1479
        XZ      11.6853     YZ       0.7620     ZZ    -162.6867

 Total job time:  59.96s(wall), 2851.36s(cpu)
        *  Thank you very much for using Q-Chem.  Have a nice day.  *
