 Q-Chem 5.0, Q-Chem, Inc., Pleasanton, CA (2017)
 Q-Chem 5.0.1 for Intel X86 EM64T Linux

User input:
--------------------------------------------------------------
$molecule
0  1
O -3.94934 -3.66094 2.70899
C -3.26408 -4.56952 2.26188
C -3.36658 -6.02376 2.66595
C -2.71863 -6.42973 3.99982
C -2.1956 -5.30492 4.86545
O -3.01155 -5.13411 5.94734
C -2.49382 -4.2008 6.90135
C -1.66975 -4.93071 7.95694
O -0.80335 -4.00312 8.62909
C -0.01593 -4.53632 9.59594
C 0.89661 -3.51922 10.23894
C 2.22824 -3.29125 9.50883
C 2.30412 -3.82244 8.09152
O 3.03004 -3.38722 7.20937
O -2.43638 -4.30233 1.21714
O 1.83383 -5.0835 7.88733
O -0.19978 -5.64752 10.07772
C 1.90938 -5.77417 6.69448
C 0.33635 -2.08471 10.29514
C 1.02271 -1.3054 11.41548
C 2.40844 -1.13101 10.82931
C 2.20142 -1.74874 9.44144
O 0.85428 -1.47011 9.14207
H 1.07931 -3.87507 11.27884
H 3.11154 -3.68458 10.05812
H -0.76793 -2.04877 10.42093
H 0.53079 -0.30758 11.46787
H 0.98852 -1.78331 12.41813
H 2.61793 -0.04135 10.74567
H 3.22812 -1.63567 11.38519
H 2.9511 -1.33819 8.72993
O -1.21098 -4.63171 4.58496
C -2.2479 -3.04826 0.67494
C -4.81649 -6.49433 2.86621
C -4.90692 -8.0025 2.64826
C -4.19439 -8.5068 3.88446
C -3.93082 -7.18361 4.61527
O -5.02377 -6.37481 4.25179
H -2.89729 -6.60488 1.83871
H -1.86815 -7.13584 3.8734
H -1.8434 -2.35635 1.44446
H -5.54357 -5.96493 2.21199
H -5.9829 -8.28094 2.71939
H -4.49677 -8.36681 1.68182
H -4.90566 -9.13615 4.46458
H -3.25575 -9.07142 3.69627
H -3.80651 -7.38914 5.70115
H -3.20838 -2.65254 0.28098
H -1.5211 -3.11842 -0.16012
H 1.43653 -6.76959 6.82065
H 2.97027 -5.91687 6.39789
H 1.36649 -5.21976 5.89936
H -2.3452 -5.47576 8.65337
H -1.01899 -5.66813 7.43597
H -3.32348 -3.64687 7.38878
H -1.86978 -3.41169 6.42299
$end

$opt
CONSTRAINT
tors           1           2           3           4     -78.123
tors           3           4           5           6    +107.343
tors           4           5           6           7    +172.655
tors           5           6           7           8     -91.994
tors           6           7           8           9    +160.842
tors           7           8           9          10    +179.981
tors           8           9          10          11    +178.476
tors           9          10          11          12     -86.014
tors          11          12          13          14    +153.819
ENDCONSTRAINT
$end

$rem
JOBTYPE                   OPT
METHOD                    B3LYP
DFT_D                     d3_op
BASIS                     STO-3G
GEOM_OPT_MAX_CYCLES       100
GEOM_OPT_TOL_GRADIENT     300
GEOM_OPT_TOL_DISPLACEMENT 1200
GEOM_OPT_TOL_ENERGY       100
SYMMETRY                  False
THRESH                    12
SCF_CONVERGENCE           8
MAX_SUB_FILE_NUM          128
MEM_STATIC                400
MEM_TOTAL                 4000
$end
--------------------------------------------------------------

   15   -1510.1496998929      6.53E-09 Convergence criterion met
 Total energy in the final basis set = -1510.14969989
   14   -1510.2195236116      7.69E-09 Convergence criterion met
 Total energy in the final basis set = -1510.21952361
   15   -1510.2570347623      1.18E-09 Convergence criterion met
 Total energy in the final basis set = -1510.25703476
   14   -1510.2733129099      9.98E-09 Convergence criterion met
 Total energy in the final basis set = -1510.27331291
   14   -1510.2783257723      5.50E-09 Convergence criterion met
 Total energy in the final basis set = -1510.27832577
   13   -1510.2794619142      5.14E-09 Convergence criterion met
 Total energy in the final basis set = -1510.27946191
   13   -1510.2794597399      4.68E-09 Convergence criterion met
 Total energy in the final basis set = -1510.27945974
   13   -1510.2801300888      5.18E-09 Convergence criterion met
   11   -1510.2815919230      3.11E-09 Convergence criterion met
 Total energy in the final basis set = -1510.28159192
   11   -1510.2816133140      4.46E-09 Convergence criterion met
 Total energy in the final basis set = -1510.28161331
   10   -1510.2816333853      5.43E-09 Convergence criterion met
 Total energy in the final basis set = -1510.28163339
   10   -1510.2816529535      9.60E-09 Convergence criterion met
 Total energy in the final basis set = -1510.28165295
   11   -1510.2816637604      2.04E-09 Convergence criterion met
 Total energy in the final basis set = -1510.28166376
    9   -1510.2816669845      6.56E-09 Convergence criterion met
 Total energy in the final basis set = -1510.28166698

             Standard Nuclear Orientation (Angstroms)
    I     Atom           X                Y                Z
 ----------------------------------------------------------------
    1      O      -3.9050185879     1.5849971133     1.6664117033
    2      C      -4.1584109023     1.5457400822     0.4429342814
    3      C      -4.6303010535     0.3113589450    -0.4002929921
    4      C      -3.4307130386    -0.6774131755    -0.7511441451
    5      C      -2.0626930588    -0.1957694541    -0.1453897828
    6      O      -1.6875321512    -1.0304394174     0.9543033380
    7      C      -0.3176815427    -0.6784205115     1.4016435026
    8      C       0.7282165216    -1.5758461108     0.6571878849
    9      O       2.0225215931    -0.8698610488     0.7870166639
   10      C       3.0481166372    -1.6244627094     0.1301002812
   11      C       4.4045922819    -0.8501818032     0.2398182127
   12      C       4.6700453440     0.2398861520    -0.8858972073
   13      C       3.4269369906     0.7352943449    -1.7220687286
   14      O       3.3429903190     1.8522447395    -2.2800018274
   15      O      -4.0299440499     2.6635355640    -0.4424564638
   16      O       2.4143673297    -0.2689319859    -1.7962122597
   17      O       2.8763876850    -2.7586829075    -0.3664504685
   18      C       1.1894614652     0.2585846074    -2.4484866147
   19      C       4.5849306663     0.0234578082     1.5570718909
   20      C       6.1352137735     0.1543135043     1.8237848916
   21      C       6.5528898094     1.1261690919     0.6576198142
   22      C       5.1504533983     1.4577723270     0.0104320245
   23      O       4.2018506034     1.3939339476     1.1480585566
   24      H       5.1951509431    -1.6199386870     0.1810361443
   25      H       5.4504581624    -0.0987310164    -1.5926808041
   26      H       3.9757027959    -0.3088298638     2.4193015181
   27      H       6.3175133456     0.6085024093     2.8109359754
   28      H       6.6533882132    -0.8169408569     1.7788915827
   29      H       7.0276593094     2.0425558058     1.0423237027
   30      H       7.2366901921     0.6519523038    -0.0647133315
   31      H       5.0771989284     2.4357865795    -0.5042820267
   32      O      -1.3554357626     0.7428546756    -0.5835989556
   33      C      -3.4873218117     3.8305382241     0.2915409682
   34      C      -5.5811616756    -0.6590636947     0.4211653009
   35      C      -6.3102339937    -1.6106795404    -0.6077179681
   36      C      -5.1371399893    -2.5823480657    -1.0028989659
   37      C      -3.9596674552    -2.0249106559    -0.1079344887
   38      O      -4.6418946645    -1.5631433537     1.1231257381
   39      H      -5.1147041723     0.6824045667    -1.3203191545
   40      H      -3.2984241707    -0.7565092088    -1.8456182724
   41      H      -2.4544870023     3.6368375921     0.6469017305
   42      H      -6.2409011620    -0.1480999591     1.1486856497
   43      H      -7.1340476820    -2.1512879212    -0.1149577740
   44      H      -6.7154916808    -1.0579666928    -1.4703072463
   45      H      -5.3655619749    -3.6248216716    -0.7301799291
   46      H      -4.8962823035    -2.5434310148    -2.0773913434
   47      H      -3.1653728619    -2.7541643867     0.1392708519
   48      H      -4.1180521043     4.0942934384     1.1647552609
   49      H      -3.4783985252     4.6684437082    -0.4293864173
   50      H       0.8267631946    -0.5136257442    -3.1530888644
   51      H       1.4337368711     1.1934531565    -2.9908549805
   52      H       0.4046562231     0.4655353692    -1.6849049079
   53      H       0.7752162768    -2.5941531582     1.0999728667
   54      H       0.4459787081    -1.6830073084    -0.4128820433
   55      H      -0.2837938070    -0.8468798460     2.4958247871
   56      H      -0.1065300060     0.3877808156     1.1720405505
 ----------------------------------------------------------------

    9   -1510.2816677176      4.32E-09 Convergence criterion met
 Total energy in the final basis set = -1510.28166772
 Final energy is   -1510.28166771760
 **  OPTIMIZATION CONVERGED  **

                    Orbital Energies (a.u.)
 --------------------------------------------------------------

 Alpha MOs
 -- Occupied --
-18.944 -18.937 -18.934 -18.925 -18.888 -18.885 -18.882 -18.874
-18.874 -18.863 -10.108 -10.100 -10.098 -10.096 -10.072 -10.070
-10.062 -10.061 -10.061 -10.058 -10.057 -10.051 -10.043 -10.039
-10.039 -10.033 -10.022 -10.021 -10.019 -10.018  -1.021  -1.013
 -1.009  -1.002  -0.970  -0.968  -0.944  -0.935  -0.935  -0.929
 -0.766  -0.761  -0.728  -0.722  -0.714  -0.705  -0.693  -0.662
 -0.657  -0.614  -0.597  -0.580  -0.549  -0.543  -0.539  -0.536
 -0.517  -0.510  -0.488  -0.475  -0.464  -0.461  -0.457  -0.438
 -0.436  -0.433  -0.427  -0.411  -0.411  -0.408  -0.405  -0.402
 -0.397  -0.383  -0.375  -0.369  -0.360  -0.355  -0.353  -0.350
 -0.344  -0.338  -0.332  -0.331  -0.329  -0.327  -0.323  -0.311
 -0.309  -0.307  -0.304  -0.300  -0.293  -0.287  -0.284  -0.279
 -0.275  -0.257  -0.252  -0.249  -0.238  -0.234  -0.232  -0.185
 -0.177  -0.176  -0.167  -0.163  -0.157  -0.150  -0.147  -0.144
 -0.140

          Ground-State Mulliken Net Atomic Charges

     Atom                 Charge (a.u.)
  ----------------------------------------
      1 O                    -0.211176
      2 C                     0.205071
      3 C                    -0.078883
      4 C                    -0.077478
      5 C                     0.209795
      6 O                    -0.162607
      7 C                    -0.051571
      8 C                    -0.047141
      9 O                    -0.173847
     10 C                     0.218301
     11 C                    -0.082140
     12 C                    -0.076287
     13 C                     0.214410
     14 O                    -0.214937
     15 O                    -0.167903
     16 O                    -0.169942
     17 O                    -0.219797
     18 C                    -0.141324
     19 C                     0.025196
     20 C                    -0.142909
     21 C                    -0.145161
     22 C                     0.023975
     23 O                    -0.189744
     24 H                     0.082877
     25 H                     0.085707
     26 H                     0.085773
     27 H                     0.077503
     28 H                     0.073201
     29 H                     0.078256
     30 H                     0.073306
     31 H                     0.090136
     32 O                    -0.218895
     33 C                    -0.128640
     34 C                     0.025499
     35 C                    -0.143661
     36 C                    -0.144590
     37 C                     0.025185
     38 O                    -0.184751
     39 H                     0.086554
     40 H                     0.085956
     41 H                     0.091214
     42 H                     0.085592
     43 H                     0.078392
     44 H                     0.073528
     45 H                     0.078565
     46 H                     0.072865
     47 H                     0.089580
     48 H                     0.089460
     49 H                     0.090950
     50 H                     0.083611
     51 H                     0.100931
     52 H                     0.099430
     53 H                     0.087313
     54 H                     0.086154
     55 H                     0.093881
     56 H                     0.105217
  ----------------------------------------
  Sum of atomic charges =     0.000000

                    Cartesian Multipole Moments
 -----------------------------------------------------------------
    Charge (ESU x 10^10)
                 0.0000
    Dipole Moment (Debye)
         X      -0.3928      Y      -0.5921      Z      -1.0936
       Tot       1.3042
    Quadrupole Moments (Debye-Ang)
        XX    -138.5508     XY      -1.4406     YY    -162.8611
        XZ      12.2495     YZ       2.2177     ZZ    -162.0581

 Total job time:  62.65s(wall), 2974.51s(cpu)
        *  Thank you very much for using Q-Chem.  Have a nice day.  *
