 Q-Chem 5.0, Q-Chem, Inc., Pleasanton, CA (2017)
 Q-Chem 5.0.1 for Intel X86 EM64T Linux

User input:
--------------------------------------------------------------
$molecule
0  1
O -3.9050185879 1.5849971133 1.6664117033
C -4.1584109023 1.5457400822 0.4429342814
C -4.6303010535 0.311358945 -0.4002929921
C -3.4307130386 -0.6774131755 -0.7511441451
C -2.0626930588 -0.1957694541 -0.1453897828
O -1.6875321512 -1.0304394174 0.954303338
C -0.3176815427 -0.6784205115 1.4016435026
C 0.7282165216 -1.5758461108 0.6571878849
O 2.0225215931 -0.8698610488 0.7870166639
C 3.0481166372 -1.6244627094 0.1301002812
C 4.4045922819 -0.8501818032 0.2398182127
C 4.670045344 0.239886152 -0.8858972073
C 3.4269369906 0.7352943449 -1.7220687286
O 3.342990319 1.8522447395 -2.2800018274
O -4.0299440499 2.663535564 -0.4424564638
O 2.4143673297 -0.2689319859 -1.7962122597
O 2.876387685 -2.7586829075 -0.3664504685
C 1.1894614652 0.2585846074 -2.4484866147
C 4.5849306663 0.0234578082 1.5570718909
C 6.1352137735 0.1543135043 1.8237848916
C 6.5528898094 1.1261690919 0.6576198142
C 5.1504533983 1.457772327 0.0104320245
O 4.2018506034 1.3939339476 1.1480585566
H 5.1951509431 -1.619938687 0.1810361443
H 5.4504581624 -0.0987310164 -1.5926808041
H 3.9757027959 -0.3088298638 2.4193015181
H 6.3175133456 0.6085024093 2.8109359754
H 6.6533882132 -0.8169408569 1.7788915827
H 7.0276593094 2.0425558058 1.0423237027
H 7.2366901921 0.6519523038 -0.0647133315
H 5.0771989284 2.4357865795 -0.5042820267
O -1.3554357626 0.7428546756 -0.5835989556
C -3.4873218117 3.8305382241 0.2915409682
C -5.5811616756 -0.6590636947 0.4211653009
C -6.3102339937 -1.6106795404 -0.6077179681
C -5.1371399893 -2.5823480657 -1.0028989659
C -3.9596674552 -2.0249106559 -0.1079344887
O -4.6418946645 -1.5631433537 1.1231257381
H -5.1147041723 0.6824045667 -1.3203191545
H -3.2984241707 -0.7565092088 -1.8456182724
H -2.4544870023 3.6368375921 0.6469017305
H -6.240901162 -0.1480999591 1.1486856497
H -7.134047682 -2.1512879212 -0.114957774
H -6.7154916808 -1.0579666928 -1.4703072463
H -5.3655619749 -3.6248216716 -0.7301799291
H -4.8962823035 -2.5434310148 -2.0773913434
H -3.1653728619 -2.7541643867 0.1392708519
H -4.1180521043 4.0942934384 1.1647552609
H -3.4783985252 4.6684437082 -0.4293864173
H 0.8267631946 -0.5136257442 -3.1530888644
H 1.4337368711 1.1934531565 -2.9908549805
H 0.4046562231 0.4655353692 -1.6849049079
H 0.7752162768 -2.5941531582 1.0999728667
H 0.4459787081 -1.6830073084 -0.4128820433
H -0.283793807 -0.846879846 2.4958247871
H -0.106530006 0.3877808156 1.1720405505
$end

$rem
JOBTYPE                   OPT
METHOD                    B3LYP
DFT_D                     d3_op
BASIS                     STO-3G
GEOM_OPT_MAX_CYCLES       100
GEOM_OPT_TOL_GRADIENT     300
GEOM_OPT_TOL_DISPLACEMENT 1200
GEOM_OPT_TOL_ENERGY       100
SYMMETRY                  False
THRESH                    12
SCF_CONVERGENCE           8
MAX_SUB_FILE_NUM          128
MEM_STATIC                400
MEM_TOTAL                 4000
$end
--------------------------------------------------------------

   16   -1510.2815764056      5.39E-09 Convergence criterion met
 Total energy in the final basis set = -1510.28157641
   15   -1510.2592719790      7.49E-09 Convergence criterion met
 Total energy in the final basis set = -1510.25927198
   14   -1510.2830897511      7.12E-09 Convergence criterion met
 Total energy in the final basis set = -1510.28308975
   14   -1510.2814528577      8.34E-09 Convergence criterion met
 Total energy in the final basis set = -1510.28145286
   14   -1510.2840333728      6.63E-09 Convergence criterion met
 Total energy in the final basis set = -1510.28403337
   14   -1510.2844836553      8.79E-09 Convergence criterion met
 Total energy in the final basis set = -1510.28448366
   13   -1510.2852742029      8.77E-09 Convergence criterion met
 Total energy in the final basis set = -1510.28527420
   13   -1510.2857367911      4.98E-09 Convergence criterion met
   10   -1510.2938448647      7.53E-09 Convergence criterion met
 Total energy in the final basis set = -1510.29384486
   11   -1510.2938382565      7.56E-09 Convergence criterion met
 Total energy in the final basis set = -1510.29383826
   12   -1510.2938132549      3.62E-09 Convergence criterion met
 Total energy in the final basis set = -1510.29381325
   10   -1510.2938260245      8.88E-09 Convergence criterion met
 Total energy in the final basis set = -1510.29382602
   10   -1510.2938204815      4.36E-09 Convergence criterion met
 Total energy in the final basis set = -1510.29382048
   10   -1510.2938126206      5.84E-09 Convergence criterion met
 Total energy in the final basis set = -1510.29381262

             Standard Nuclear Orientation (Angstroms)
    I     Atom           X                Y                Z
 ----------------------------------------------------------------
    1      O      -2.0820967915     1.5510762810    -0.6933259390
    2      C      -3.3334514757     1.5605820536    -0.6326102748
    3      C      -4.2947408359     0.3370518585    -0.8155252802
    4      C      -3.5239615649    -1.0453589576    -0.8863099976
    5      C      -1.9632518126    -0.9065401463    -0.7379237976
    6      O      -1.6410745431    -0.7961150364     0.6505283154
    7      C      -0.2112918277    -0.4589481042     0.8488145730
    8      C       0.7633495236    -1.6462875559     0.5179709907
    9      O       2.1268176532    -1.0865663375     0.6681438583
   10      C       3.0646483559    -1.7704698925    -0.1719229314
   11      C       4.4292863812    -1.0151609347    -0.0508150559
   12      C       4.2978438712     0.5412622040    -0.3360110453
   13      C       2.8460982674     0.9998739621    -0.7311624668
   14      O       2.1456794647     1.8704037096    -0.1691559813
   15      O      -4.1110450356     2.7313826571    -0.3932213250
   16      O       2.4746429921     0.2913109285    -1.9157774410
   17      O       2.8007961345    -2.7830272264    -0.8540203532
   18      C       1.1441398247     0.7329163992    -2.4057737109
   19      C       4.9569552093    -0.9864300895     1.4507543654
   20      C       6.4665464521    -0.5174329442     1.4411959690
   21      C       6.3055981068     1.0265009698     1.1800797877
   22      C       4.7369000902     1.1500629154     1.0577821608
   23      O       4.2371052754     0.1620495007     2.0430141365
   24      H       5.1500534568    -1.4981240335    -0.7330233502
   25      H       4.9851940007     0.8445812521    -1.1470325363
   26      H       4.7548755274    -1.9104704523     2.0269475439
   27      H       6.9367139774    -0.7166622193     2.4172759891
   28      H       7.0523946216    -1.0230295873     0.6569692287
   29      H       6.6748934593     1.6202237969     2.0312909736
   30      H       6.8222503364     1.3593257772     0.2657568366
   31      H       4.3081512248     2.1500353291     1.2632813666
   32      O      -1.1352670926    -1.0057075354    -1.6747749699
   33      C      -3.2199714294     3.9028418969    -0.2136569395
   34      C      -5.2361127730     0.0997901703     0.4439296740
   35      C      -6.4082609711    -0.8638879416     0.0040600815
   36      C      -5.6512239969    -2.2411669391    -0.0793420480
   37      C      -4.1880062789    -1.8129576394     0.3356895861
   38      O      -4.4101894625    -0.7430185698     1.3361831705
   39      H      -4.8962293260     0.5098096854    -1.7272240152
   40      H      -3.7180634654    -1.5543010562    -1.8468228662
   41      H      -2.6335994606     4.1108834994    -1.1318968764
   42      H      -5.5484976706     1.0303535238     0.9563336951
   43      H      -7.1981130966    -0.8825070548     0.7720696035
   44      H      -6.8568242471    -0.5629487181    -0.9560827188
   45      H      -6.0568183893    -2.9694459382     0.6407960571
   46      H      -5.6830254592    -2.6851275473    -1.0872232464
   47      H      -3.5631880876    -2.6198734715     0.7639451780
   48      H      -2.5150459179     3.7509829349     0.6287962078
   49      H      -3.8840927290     4.7590375903     0.0048434077
   50      H       1.2089402072     0.7914819167    -3.5084075913
   51      H       0.8947142002     1.7263963757    -1.9844394700
   52      H       0.3513210832     0.0022233428    -2.1148040709
   53      H       0.6076775714    -2.4935887883     1.2205809658
   54      H       0.5996698299    -2.0065137001    -0.5192462284
   55      H      -0.1226292167    -0.1906044880     1.9204423070
   56      H       0.0701034588     0.4262587896     0.2389243603
 ----------------------------------------------------------------

    9   -1510.2938144404      3.28E-09 Convergence criterion met
 Total energy in the final basis set = -1510.29381444
 Final energy is   -1510.29381444040
 **  OPTIMIZATION CONVERGED  **

                    Orbital Energies (a.u.)
 --------------------------------------------------------------

 Alpha MOs
 -- Occupied --
-18.948 -18.930 -18.925 -18.917 -18.891 -18.890 -18.882 -18.872
-18.869 -18.861 -10.111 -10.103 -10.092 -10.088 -10.071 -10.063
-10.063 -10.062 -10.060 -10.056 -10.051 -10.044 -10.038 -10.031
-10.029 -10.028 -10.023 -10.022 -10.016 -10.015  -1.024  -1.008
 -1.004  -0.994  -0.973  -0.964  -0.947  -0.935  -0.929  -0.922
 -0.766  -0.757  -0.727  -0.721  -0.712  -0.701  -0.689  -0.669
 -0.643  -0.610  -0.594  -0.578  -0.549  -0.540  -0.539  -0.531
 -0.516  -0.505  -0.487  -0.471  -0.466  -0.455  -0.449  -0.439
 -0.436  -0.429  -0.425  -0.418  -0.412  -0.398  -0.397  -0.395
 -0.385  -0.382  -0.374  -0.364  -0.360  -0.355  -0.351  -0.341
 -0.337  -0.336  -0.334  -0.329  -0.326  -0.321  -0.320  -0.317
 -0.308  -0.304  -0.302  -0.299  -0.289  -0.285  -0.284  -0.276
 -0.267  -0.263  -0.249  -0.240  -0.237  -0.235  -0.228  -0.189
 -0.176  -0.168  -0.164  -0.159  -0.149  -0.147  -0.145  -0.141
 -0.137

          Ground-State Mulliken Net Atomic Charges

     Atom                 Charge (a.u.)
  ----------------------------------------
      1 O                    -0.207474
      2 C                     0.215729
      3 C                    -0.078245
      4 C                    -0.081148
      5 C                     0.222936
      6 O                    -0.168521
      7 C                    -0.049370
      8 C                    -0.054403
      9 O                    -0.171846
     10 C                     0.213665
     11 C                    -0.078514
     12 C                    -0.077676
     13 C                     0.213071
     14 O                    -0.220603
     15 O                    -0.167446
     16 O                    -0.178019
     17 O                    -0.211255
     18 C                    -0.152372
     19 C                     0.025940
     20 C                    -0.144023
     21 C                    -0.144043
     22 C                     0.024264
     23 O                    -0.186421
     24 H                     0.084721
     25 H                     0.082876
     26 H                     0.081494
     27 H                     0.077006
     28 H                     0.073269
     29 H                     0.076961
     30 H                     0.072534
     31 H                     0.089311
     32 O                    -0.222422
     33 C                    -0.127979
     34 C                     0.025164
     35 C                    -0.143577
     36 C                    -0.144285
     37 C                     0.026849
     38 O                    -0.186165
     39 H                     0.087174
     40 H                     0.084604
     41 H                     0.091411
     42 H                     0.088295
     43 H                     0.078696
     44 H                     0.073730
     45 H                     0.078628
     46 H                     0.074049
     47 H                     0.086515
     48 H                     0.094821
     49 H                     0.093105
     50 H                     0.078706
     51 H                     0.089203
     52 H                     0.109714
     53 H                     0.081359
     54 H                     0.102449
     55 H                     0.093773
     56 H                     0.103786
  ----------------------------------------
  Sum of atomic charges =    -0.000000

                    Cartesian Multipole Moments
 -----------------------------------------------------------------
    Charge (ESU x 10^10)
                 0.0000
    Dipole Moment (Debye)
         X      -1.8234      Y       1.0675      Z      -0.6993
       Tot       2.2256
    Quadrupole Moments (Debye-Ang)
        XX    -132.3567     XY       1.4046     YY    -154.9006
        XZ       6.0898     YZ      -5.0368     ZZ    -164.5877

 Total job time:  162.32s(wall), 7733.49s(cpu)
        *  Thank you very much for using Q-Chem.  Have a nice day.  *
