 Q-Chem 5.0, Q-Chem, Inc., Pleasanton, CA (2017)
 Q-Chem 5.0.1 for Intel X86 EM64T Linux

User input:
--------------------------------------------------------------
$molecule
0  1
O -3.94934 -3.66094 2.70899
C -3.26408 -4.56952 2.26188
C -3.36658 -6.02376 2.66595
C -2.61222 -6.45547 3.93418
C -1.9856 -5.35034 4.75524
O -2.76148 -5.0872 5.84804
C -2.20534 -4.08467 6.7053
C -1.26414 -4.72446 7.72065
O -0.38455 -3.72938 8.26746
C 0.48785 -4.17438 9.20556
C 1.40825 -3.09055 9.71431
C 2.62905 -2.80852 8.8264
C 2.56883 -3.37329 7.42137
O 3.1591 -2.92249 6.45034
O -2.4267 -4.3013 1.2254
O 2.17549 -4.67193 7.31015
O 0.38875 -5.26346 9.75755
C 2.19305 -5.40801 6.14251
C 0.77309 -1.69129 9.81023
C 1.53953 -0.84531 10.82522
C 2.83344 -0.60711 10.07394
C 2.50172 -1.27226 8.73282
O 1.11405 -1.0788 8.59168
H 1.73987 -3.4119 10.72838
H 3.59227 -3.13675 9.27501
H -0.30904 -1.71731 10.06485
H 0.9985 0.12374 10.91772
H 1.65313 -1.29891 11.8333
H 2.96523 0.4902 9.94436
H 3.74211 -1.04844 10.53772
H 3.13604 -0.83848 7.92891
O -1.00203 -4.71284 4.39875
C -2.22977 -3.04577 0.68973
C -4.80531 -6.45501 3.00076
C -4.95874 -7.95977 2.79189
C -4.15199 -8.4876 3.95825
C -3.78361 -7.17402 4.65961
O -4.8815 -6.33334 4.39885
H -3.00425 -6.61073 1.79075
H -1.79923 -7.18844 3.73559
H -1.82982 -2.35814 1.46549
H -5.57526 -5.90503 2.41625
H -6.0313 -8.20785 2.96042
H -4.64868 -8.33297 1.79213
H -4.82594 -9.09537 4.60237
H -3.25218 -9.08034 3.68577
H -3.56226 -7.38023 5.73001
H -3.18556 -2.64553 0.28903
H -1.49582 -3.11489 -0.13913
H 1.80311 -6.4258 6.34841
H 3.23121 -5.49349 5.75692
H 1.54762 -4.92517 5.37895
H -1.85718 -5.254 8.49943
H -0.62747 -5.4663 7.18937
H -3.01414 -3.54944 7.24589
H -1.67494 -3.29538 6.12423
$end

$opt
CONSTRAINT
tors           1           2           3           4     -83.473
tors           3           4           5           6    +102.047
tors           4           5           6           7    +177.698
tors           5           6           7           8     -87.722
tors           6           7           8           9    +160.842
tors           7           8           9          10    +178.830
tors           8           9          10          11    +178.476
tors           9          10          11          12     -82.220
tors          11          12          13          14    +153.819
ENDCONSTRAINT
$end

$rem
JOBTYPE                   OPT
METHOD                    B3LYP
DFT_D                     d3_op
BASIS                     STO-3G
GEOM_OPT_MAX_CYCLES       100
GEOM_OPT_TOL_GRADIENT     300
GEOM_OPT_TOL_DISPLACEMENT 1200
GEOM_OPT_TOL_ENERGY       100
SYMMETRY                  False
THRESH                    12
SCF_CONVERGENCE           8
MAX_SUB_FILE_NUM          128
MEM_STATIC                400
MEM_TOTAL                 4000
$end
--------------------------------------------------------------

   15   -1510.1504334857      6.46E-09 Convergence criterion met
 Total energy in the final basis set = -1510.15043349
   14   -1510.2202900987      8.22E-09 Convergence criterion met
 Total energy in the final basis set = -1510.22029010
   15   -1510.2579111781      1.13E-09 Convergence criterion met
 Total energy in the final basis set = -1510.25791118
   14   -1510.2745164045      9.77E-09 Convergence criterion met
 Total energy in the final basis set = -1510.27451640
   14   -1510.2797865141      5.47E-09 Convergence criterion met
 Total energy in the final basis set = -1510.27978651
   13   -1510.2812739361      9.42E-09 Convergence criterion met
 Total energy in the final basis set = -1510.28127394
   13   -1510.2815664356      2.58E-09 Convergence criterion met
 Total energy in the final basis set = -1510.28156644
   13   -1510.2819055192      2.78E-09 Convergence criterion met
   11   -1510.2833794925      3.47E-09 Convergence criterion met
 Total energy in the final basis set = -1510.28337949
    9   -1510.2833866885      8.01E-09 Convergence criterion met
 Total energy in the final basis set = -1510.28338669
    9   -1510.2833943860      8.82E-09 Convergence criterion met
 Total energy in the final basis set = -1510.28339439
    9   -1510.2834013785      9.41E-09 Convergence criterion met
 Total energy in the final basis set = -1510.28340138
    9   -1510.2834061001      7.25E-09 Convergence criterion met
 Total energy in the final basis set = -1510.28340610
    9   -1510.2834089564      3.17E-09 Convergence criterion met
 Total energy in the final basis set = -1510.28340896

             Standard Nuclear Orientation (Angstroms)
    I     Atom           X                Y                Z
 ----------------------------------------------------------------
    1      O      -3.6887762628     1.5654405508     1.7627057839
    2      C      -3.9670980301     1.5696373994     0.5441121900
    3      C      -4.5925354334     0.4082448322    -0.3029676944
    4      C      -3.4973513975    -0.6374448307    -0.8033889024
    5      C      -2.0609458527    -0.2760148666    -0.2792728896
    6      O      -1.7172232378    -1.1180271155     0.8235758019
    7      C      -0.3397010921    -0.8117312098     1.2799537727
    8      C       0.7084508442    -1.6581325536     0.4786288504
    9      O       1.9988481128    -0.9570543529     0.6614056365
   10      C       3.0404887017    -1.6710099231    -0.0159158679
   11      C       4.3845380500    -0.8872561313     0.1613172803
   12      C       4.6119925743     0.3235444541    -0.8433694128
   13      C       3.3689407576     0.8222003335    -1.6755101401
   14      O       3.2306585429     1.9814929565    -2.1256804129
   15      O      -3.7307779780     2.6758449685    -0.3333807136
   16      O       2.4393843963    -0.2370826502    -1.9014473793
   17      O       2.8870650000    -2.7811252392    -0.5693676483
   18      C       1.2128376389     0.2653527979    -2.5700107476
   19      C       4.5387853353    -0.1476486645     1.5622459091
   20      C       6.0835435103     0.0390362871     1.8320048440
   21      C       6.4313087076     1.1663923089     0.7899806410
   22      C       5.0083946714     1.4725687580     0.1771999391
   23      O       4.0730536553     1.2326269435     1.3011602449
   24      H       5.1933320804    -1.6269038257     0.0244133815
   25      H       5.4309262384     0.0998446396    -1.5522202666
   26      H       3.9613645373    -0.6019988306     2.3901357807
   27      H       6.2542223538     0.3793924389     2.8658528069
   28      H       6.6534370606    -0.8891056257     1.6651989121
   29      H       6.8402373781     2.0625030911     1.2829047006
   30      H       7.1457327338     0.8291359073     0.0219951061
   31      H       4.8708779179     2.4913905359    -0.2351267777
   32      O      -1.3012771272     0.6032593788    -0.7513957439
   33      C      -3.0432711349     3.7653365504     0.3982528777
   34      C      -5.5309585612    -0.5366276097     0.5598937042
   35      C      -6.4187091962    -1.3816097234    -0.4358529139
   36      C      -5.3565717955    -2.4014877511    -0.9923663392
   37      C      -4.0664759040    -1.9783865231    -0.1819463509
   38      O      -4.6011647476    -1.5386534513     1.1278320803
   39      H      -5.1285319448     0.8521655256    -1.1603875259
   40      H      -3.4576118929    -0.6639962613    -1.9072939905
   41      H      -2.0228616105     3.4592713628     0.7078269039
   42      H      -6.0813868941    -0.0198014064     1.3696773525
   43      H      -7.2254718834    -1.8962791901     0.1099663430
   44      H      -6.8670280252    -0.7586492809    -1.2263338933
   45      H      -5.6328642108    -3.4417072303    -0.7579475102
   46      H      -5.2105165175    -2.3122583466    -2.0809044578
   47      H      -3.3103798343    -2.7744300345    -0.0442241597
   48      H      -3.6097338265     4.0724359040     1.3007054551
   49      H      -2.9752181623     4.6132472611    -0.3075981158
   50      H       0.9051447122    -0.4991146252    -3.3080143798
   51      H       1.4300952477     1.2265016243    -3.0761136407
   52      H       0.3972757965     0.4161315287    -1.8244727619
   53      H       0.7570688245    -2.7031918914     0.8537151639
   54      H       0.4305856194    -1.6943332262    -0.5970686508
   55      H      -0.3068864174    -1.0560061319     2.3597311536
   56      H      -0.1154896071     0.2656905377     1.1283435291
 ----------------------------------------------------------------

    8   -1510.2834097562      8.36E-09 Convergence criterion met
 Total energy in the final basis set = -1510.28340976
 Final energy is   -1510.28340975615
 **  OPTIMIZATION CONVERGED  **

                    Orbital Energies (a.u.)
 --------------------------------------------------------------

 Alpha MOs
 -- Occupied --
-18.945 -18.935 -18.934 -18.925 -18.889 -18.885 -18.883 -18.875
-18.872 -18.863 -10.108 -10.099 -10.098 -10.095 -10.073 -10.070
-10.062 -10.061 -10.061 -10.057 -10.056 -10.049 -10.043 -10.039
-10.037 -10.033 -10.022 -10.021 -10.019 -10.018  -1.022  -1.012
 -1.010  -1.001  -0.971  -0.968  -0.945  -0.935  -0.934  -0.929
 -0.766  -0.760  -0.728  -0.722  -0.714  -0.705  -0.693  -0.662
 -0.655  -0.615  -0.597  -0.581  -0.549  -0.542  -0.539  -0.535
 -0.518  -0.509  -0.488  -0.474  -0.464  -0.461  -0.456  -0.439
 -0.434  -0.433  -0.427  -0.411  -0.410  -0.409  -0.405  -0.401
 -0.397  -0.381  -0.375  -0.369  -0.360  -0.355  -0.353  -0.349
 -0.343  -0.339  -0.332  -0.331  -0.328  -0.328  -0.323  -0.311
 -0.309  -0.308  -0.304  -0.300  -0.293  -0.287  -0.284  -0.279
 -0.275  -0.258  -0.252  -0.248  -0.238  -0.235  -0.232  -0.185
 -0.177  -0.175  -0.167  -0.163  -0.155  -0.151  -0.146  -0.145
 -0.140

          Ground-State Mulliken Net Atomic Charges

     Atom                 Charge (a.u.)
  ----------------------------------------
      1 O                    -0.210804
      2 C                     0.204534
      3 C                    -0.078751
      4 C                    -0.077367
      5 C                     0.209625
      6 O                    -0.161550
      7 C                    -0.049949
      8 C                    -0.047369
      9 O                    -0.174122
     10 C                     0.218259
     11 C                    -0.081882
     12 C                    -0.076840
     13 C                     0.214016
     14 O                    -0.215340
     15 O                    -0.167953
     16 O                    -0.170221
     17 O                    -0.219354
     18 C                    -0.142827
     19 C                     0.025785
     20 C                    -0.143280
     21 C                    -0.144967
     22 C                     0.024060
     23 O                    -0.189418
     24 H                     0.082878
     25 H                     0.085279
     26 H                     0.084819
     27 H                     0.077382
     28 H                     0.073183
     29 H                     0.078054
     30 H                     0.073230
     31 H                     0.090010
     32 O                    -0.218596
     33 C                    -0.128647
     34 C                     0.025505
     35 C                    -0.143599
     36 C                    -0.144576
     37 C                     0.025542
     38 O                    -0.184539
     39 H                     0.086594
     40 H                     0.086230
     41 H                     0.090824
     42 H                     0.086188
     43 H                     0.078486
     44 H                     0.073502
     45 H                     0.078502
     46 H                     0.072960
     47 H                     0.088594
     48 H                     0.089816
     49 H                     0.091323
     50 H                     0.083477
     51 H                     0.098832
     52 H                     0.102278
     53 H                     0.087322
     54 H                     0.086535
     55 H                     0.094789
     56 H                     0.103537
  ----------------------------------------
  Sum of atomic charges =    -0.000000

                    Cartesian Multipole Moments
 -----------------------------------------------------------------
    Charge (ESU x 10^10)
                 0.0000
    Dipole Moment (Debye)
         X      -0.5496      Y      -0.4331      Z      -1.0527
       Tot       1.2640
    Quadrupole Moments (Debye-Ang)
        XX    -137.5804     XY      -0.9326     YY    -162.8186
        XZ      11.7460     YZ       1.7283     ZZ    -162.3333

 Total job time:  59.55s(wall), 2832.81s(cpu)
        *  Thank you very much for using Q-Chem.  Have a nice day.  *
