 Q-Chem 5.0, Q-Chem, Inc., Pleasanton, CA (2017)
 Q-Chem 5.0.1 for Intel X86 EM64T Linux

User input:
--------------------------------------------------------------
$molecule
0  1
O -3.6887762628 1.5654405508 1.7627057839
C -3.9670980301 1.5696373994 0.54411219
C -4.5925354334 0.4082448322 -0.3029676944
C -3.4973513975 -0.6374448307 -0.8033889024
C -2.0609458527 -0.2760148666 -0.2792728896
O -1.7172232378 -1.1180271155 0.8235758019
C -0.3397010921 -0.8117312098 1.2799537727
C 0.7084508442 -1.6581325536 0.4786288504
O 1.9988481128 -0.9570543529 0.6614056365
C 3.0404887017 -1.6710099231 -0.0159158679
C 4.38453805 -0.8872561313 0.1613172803
C 4.6119925743 0.3235444541 -0.8433694128
C 3.3689407576 0.8222003335 -1.6755101401
O 3.2306585429 1.9814929565 -2.1256804129
O -3.730777978 2.6758449685 -0.3333807136
O 2.4393843963 -0.2370826502 -1.9014473793
O 2.887065 -2.7811252392 -0.5693676483
C 1.2128376389 0.2653527979 -2.5700107476
C 4.5387853353 -0.1476486645 1.5622459091
C 6.0835435103 0.0390362871 1.832004844
C 6.4313087076 1.1663923089 0.789980641
C 5.0083946714 1.472568758 0.1771999391
O 4.0730536553 1.2326269435 1.3011602449
H 5.1933320804 -1.6269038257 0.0244133815
H 5.4309262384 0.0998446396 -1.5522202666
H 3.9613645373 -0.6019988306 2.3901357807
H 6.2542223538 0.3793924389 2.8658528069
H 6.6534370606 -0.8891056257 1.6651989121
H 6.8402373781 2.0625030911 1.2829047006
H 7.1457327338 0.8291359073 0.0219951061
H 4.8708779179 2.4913905359 -0.2351267777
O -1.3012771272 0.6032593788 -0.7513957439
C -3.0432711349 3.7653365504 0.3982528777
C -5.5309585612 -0.5366276097 0.5598937042
C -6.4187091962 -1.3816097234 -0.4358529139
C -5.3565717955 -2.4014877511 -0.9923663392
C -4.066475904 -1.9783865231 -0.1819463509
O -4.6011647476 -1.5386534513 1.1278320803
H -5.1285319448 0.8521655256 -1.1603875259
H -3.4576118929 -0.6639962613 -1.9072939905
H -2.0228616105 3.4592713628 0.7078269039
H -6.0813868941 -0.0198014064 1.3696773525
H -7.2254718834 -1.8962791901 0.109966343
H -6.8670280252 -0.7586492809 -1.2263338933
H -5.6328642108 -3.4417072303 -0.7579475102
H -5.2105165175 -2.3122583466 -2.0809044578
H -3.3103798343 -2.7744300345 -0.0442241597
H -3.6097338265 4.072435904 1.3007054551
H -2.9752181623 4.6132472611 -0.3075981158
H 0.9051447122 -0.4991146252 -3.3080143798
H 1.4300952477 1.2265016243 -3.0761136407
H 0.3972757965 0.4161315287 -1.8244727619
H 0.7570688245 -2.7031918914 0.8537151639
H 0.4305856194 -1.6943332262 -0.5970686508
H -0.3068864174 -1.0560061319 2.3597311536
H -0.1154896071 0.2656905377 1.1283435291
$end

$rem
JOBTYPE                   OPT
METHOD                    B3LYP
DFT_D                     d3_op
BASIS                     STO-3G
GEOM_OPT_MAX_CYCLES       100
GEOM_OPT_TOL_GRADIENT     300
GEOM_OPT_TOL_DISPLACEMENT 1200
GEOM_OPT_TOL_ENERGY       100
SYMMETRY                  False
THRESH                    12
SCF_CONVERGENCE           8
MAX_SUB_FILE_NUM          128
MEM_STATIC                400
MEM_TOTAL                 4000
$end
--------------------------------------------------------------

   16   -1510.2833609394      5.25E-09 Convergence criterion met
 Total energy in the final basis set = -1510.28336094
   15   -1510.2478570385      7.71E-09 Convergence criterion met
 Total energy in the final basis set = -1510.24785704
   14   -1510.2839901802      4.57E-09 Convergence criterion met
 Total energy in the final basis set = -1510.28399018
   14   -1510.2826683008      8.40E-09 Convergence criterion met
 Total energy in the final basis set = -1510.28266830
   14   -1510.2846686370      5.71E-09 Convergence criterion met
 Total energy in the final basis set = -1510.28466864
   14   -1510.2854682914      6.41E-09 Convergence criterion met
 Total energy in the final basis set = -1510.28546829
   13   -1510.2861607260      8.37E-09 Convergence criterion met
 Total energy in the final basis set = -1510.28616073
   13   -1510.2867511265      3.32E-09 Convergence criterion met
   11   -1510.2998947444      9.54E-09 Convergence criterion met
 Total energy in the final basis set = -1510.29989474
   11   -1510.2998974719      6.03E-09 Convergence criterion met
 Total energy in the final basis set = -1510.29989747
    9   -1510.2998956643      5.36E-09 Convergence criterion met
 Total energy in the final basis set = -1510.29989566
   11   -1510.2998920667      2.93E-09 Convergence criterion met
 Total energy in the final basis set = -1510.29989207
    9   -1510.2998894424      7.75E-09 Convergence criterion met
 Total energy in the final basis set = -1510.29988944
    9   -1510.2998878303      9.96E-09 Convergence criterion met
 Total energy in the final basis set = -1510.29988783

             Standard Nuclear Orientation (Angstroms)
    I     Atom           X                Y                Z
 ----------------------------------------------------------------
    1      O      -3.3984339061     2.1376480134     1.3899903906
    2      C      -3.2056225453     1.5852756243     0.2864525746
    3      C      -4.1078876955     0.5144873093    -0.4247043569
    4      C      -3.3049873687    -0.7777112136    -0.8811774499
    5      C      -1.7914544213    -0.7286903535    -0.4792438080
    6      O      -1.7060783755    -0.6213445711     0.9421232045
    7      C      -0.2962291290    -0.4804361718     1.3814526801
    8      C       0.5093150831    -1.8364560808     1.3394695470
    9      O       1.9538229843    -1.4954469282     1.3279543842
   10      C       2.4776209189    -1.6037767148    -0.0009968172
   11      C       3.8951774363    -0.9318750001    -0.0597749745
   12      C       3.8137030230     0.5689163516    -0.5975910428
   13      C       2.3521390106     1.0069270042    -0.9551016276
   14      O       1.4651967654     1.3784854399    -0.1455413921
   15      O      -2.0958291901     1.8452356617    -0.5791219377
   16      O       2.1780311793     0.9064924701    -2.3579289040
   17      O       1.8685424955    -2.1320954221    -0.9581302387
   18      C       0.7639920039     1.1693141032    -2.7376638824
   19      C       4.5372143019    -0.6959342695     1.3693638054
   20      C       6.0607105670    -0.3212052423     1.1767602953
   21      C       5.9500713684     1.1692081040     0.6826892802
   22      C       4.3835468190     1.3626520868     0.6538940172
   23      O       3.9154041983     0.5728949346     1.8144622974
   24      H       4.5394877611    -1.5426422230    -0.7172709637
   25      H       4.4419086530     0.6973660500    -1.4963995842
   26      H       4.3347665543    -1.5028059667     2.0989036682
   27      H       6.5998359178    -0.3908445165     2.1348092391
   28      H       6.5580466745    -0.9759546528     0.4434932775
   29      H       6.4090378304     1.8672111323     1.4008333384
   30      H       6.4080558431     1.3274138082    -0.3067496295
   31      H       4.0297426155     2.4089028958     0.7314771280
   32      O      -0.8024631774    -0.8078559970    -1.2442195991
   33      C      -1.1581444589     2.8230289198     0.0253398126
   34      C      -5.1722570843    -0.1158462090     0.5638247443
   35      C      -6.2815532591    -0.8359914958    -0.2980692678
   36      C      -5.5010263121    -2.1126780994    -0.7869122975
   37      C      -4.0990916266    -1.9035910642    -0.0864391861
   38      O      -4.4412372282    -1.2417121544     1.1917184677
   39      H      -4.5948590582     0.9959080172    -1.2930869239
   40      H      -3.3589719742    -0.9260600664    -1.9737257079
   41      H      -1.4216459923     2.9868087143     1.0885695038
   42      H      -5.5379677773     0.5871176886     1.3376013064
   43      H      -7.1430484111    -1.1079663269     0.3323471156
   44      H      -6.6364223390    -0.2082972044    -1.1308420018
   45      H      -5.9750062600    -3.0393350099    -0.4262327916
   46      H      -5.4128442880    -2.1653367018    -1.8839252059
   47      H      -3.5223142802    -2.8307735170     0.0978083656
   48      H      -1.2324146339     3.7840584292    -0.5216460507
   49      H      -0.1316640521     2.4031983249    -0.0709796571
   50      H       0.7201806973     1.0192105656    -3.8313716904
   51      H       0.4716283017     2.2107989647    -2.4966905610
   52      H       0.0797371528     0.4529606862    -2.2214005076
   53      H       0.3149944639    -2.4595014798     2.2349400636
   54      H       0.2662744681    -2.4008069147     0.4131828780
   55      H      -0.3549094632    -0.1008001843     2.4200636412
   56      H       0.2556451276     0.2600125309     0.7528136275
 ----------------------------------------------------------------

    9   -1510.2998858913      6.45E-09 Convergence criterion met
 Total energy in the final basis set = -1510.29988589
 Final energy is   -1510.29988589130
 **  OPTIMIZATION CONVERGED  **

                    Orbital Energies (a.u.)
 --------------------------------------------------------------

 Alpha MOs
 -- Occupied --
-18.944 -18.932 -18.930 -18.924 -18.888 -18.885 -18.884 -18.876
-18.874 -18.871 -10.110 -10.101 -10.098 -10.095 -10.061 -10.060
-10.060 -10.059 -10.055 -10.053 -10.046 -10.041 -10.040 -10.037
-10.036 -10.035 -10.022 -10.020 -10.019 -10.018  -1.018  -1.013
 -1.008  -1.001  -0.970  -0.967  -0.942  -0.937  -0.932  -0.930
 -0.765  -0.761  -0.726  -0.722  -0.711  -0.704  -0.688  -0.659
 -0.649  -0.612  -0.596  -0.578  -0.548  -0.543  -0.538  -0.535
 -0.514  -0.507  -0.481  -0.477  -0.462  -0.460  -0.451  -0.441
 -0.433  -0.431  -0.427  -0.418  -0.412  -0.406  -0.401  -0.397
 -0.380  -0.379  -0.369  -0.366  -0.362  -0.359  -0.352  -0.349
 -0.343  -0.337  -0.332  -0.329  -0.326  -0.323  -0.318  -0.311
 -0.308  -0.306  -0.303  -0.301  -0.291  -0.286  -0.282  -0.279
 -0.272  -0.259  -0.245  -0.241  -0.237  -0.234  -0.232  -0.191
 -0.176  -0.170  -0.161  -0.159  -0.156  -0.152  -0.148  -0.144
 -0.141

          Ground-State Mulliken Net Atomic Charges

     Atom                 Charge (a.u.)
  ----------------------------------------
      1 O                    -0.212086
      2 C                     0.214343
      3 C                    -0.077808
      4 C                    -0.078577
      5 C                     0.220074
      6 O                    -0.167631
      7 C                    -0.061990
      8 C                    -0.057389
      9 O                    -0.168900
     10 C                     0.204930
     11 C                    -0.077218
     12 C                    -0.078392
     13 C                     0.218946
     14 O                    -0.221481
     15 O                    -0.178982
     16 O                    -0.161208
     17 O                    -0.207126
     18 C                    -0.143715
     19 C                     0.026206
     20 C                    -0.144507
     21 C                    -0.143686
     22 C                     0.025504
     23 O                    -0.184457
     24 H                     0.086088
     25 H                     0.087885
     26 H                     0.089106
     27 H                     0.078274
     28 H                     0.073451
     29 H                     0.078395
     30 H                     0.073619
     31 H                     0.084551
     32 O                    -0.219570
     33 C                    -0.151656
     34 C                     0.024549
     35 C                    -0.143942
     36 C                    -0.144045
     37 C                     0.026101
     38 O                    -0.185275
     39 H                     0.083767
     40 H                     0.084462
     41 H                     0.094876
     42 H                     0.090472
     43 H                     0.077942
     44 H                     0.072797
     45 H                     0.077714
     46 H                     0.073331
     47 H                     0.082189
     48 H                     0.075003
     49 H                     0.109769
     50 H                     0.087155
     51 H                     0.081691
     52 H                     0.119792
     53 H                     0.085694
     54 H                     0.100957
     55 H                     0.090026
     56 H                     0.109980
  ----------------------------------------
  Sum of atomic charges =     0.000000

                    Cartesian Multipole Moments
 -----------------------------------------------------------------
    Charge (ESU x 10^10)
                 0.0000
    Dipole Moment (Debye)
         X       1.1189      Y      -0.0278      Z      -2.0152
       Tot       2.3051
    Quadrupole Moments (Debye-Ang)
        XX    -138.2106     XY       3.7082     YY    -156.5104
        XZ       8.8511     YZ      -6.1031     ZZ    -165.8464

 Total job time:  218.93s(wall), 9860.97s(cpu)
        *  Thank you very much for using Q-Chem.  Have a nice day.  *
