 Q-Chem 5.0, Q-Chem, Inc., Pleasanton, CA (2017)
 Q-Chem 5.0.1 for Intel X86 EM64T Linux

User input:
--------------------------------------------------------------
$molecule
0  1
O -3.94934 -3.66094 2.70899
C -3.26408 -4.56952 2.26188
C -3.36658 -6.02376 2.66595
C -2.61222 -6.45547 3.93418
C -1.9856 -5.35034 4.75524
O -2.73691 -5.11905 5.87215
C -2.20069 -4.08793 6.70793
C -1.10184 -4.65387 7.60143
O -0.26779 -3.5894 8.08532
C 0.73641 -3.96662 8.91504
C 1.59847 -2.8091 9.35962
C 2.64434 -2.34934 8.33343
C 2.44674 -2.85268 6.91769
O 2.91499 -2.34018 5.91139
O -2.42427 -4.30078 1.22753
O 2.12327 -4.1682 6.77929
O 0.81031 -5.07665 9.42787
C 2.14731 -4.87206 5.59137
C 0.83352 -1.50076 9.62514
C 1.64052 -0.61421 10.57193
C 2.77578 -0.19053 9.6624
C 2.33162 -0.83681 8.34496
O 0.92516 -0.80299 8.40841
H 2.10523 -3.13723 10.2961
H 3.69391 -2.57234 8.62576
H -0.19101 -1.66606 10.02458
H 1.01463 0.27852 10.79896
H 1.95035 -1.0965 11.52394
H 2.7591 0.91883 9.57653
H 3.78711 -0.53405 9.97012
H 2.79064 -0.29929 7.48621
O -1.02893 -4.68342 4.38222
C -2.22479 -3.04468 0.69416
C -4.80498 -6.45567 3.00287
C -4.95898 -7.95954 2.78912
C -4.14679 -8.49154 3.94984
C -3.78008 -7.18077 4.6577
O -4.87894 -6.33991 4.40192
H -3.006 -6.61105 1.79019
H -1.79481 -7.18148 3.72843
H -1.82564 -2.35872 1.47182
H -5.57641 -5.90379 2.42213
H -6.03091 -8.2073 2.96224
H -4.65447 -8.33031 1.78677
H -4.8163 -9.10671 4.59153
H -3.24499 -9.07821 3.67082
H -3.55765 -7.39299 5.7266
H -3.17927 -2.64272 0.29209
H -1.48915 -3.1134 -0.13324
H 1.80446 -5.91081 5.77509
H 3.18084 -4.90267 5.1858
H 1.4746 -4.39365 4.8507
H -1.55748 -5.25368 8.42079
H -0.4546 -5.32211 6.99249
H -2.99748 -3.66071 7.35258
H -1.82316 -3.23716 6.09431
$end

$opt
CONSTRAINT
tors           1           2           3           4     -83.473
tors           3           4           5           6    +104.138
tors           4           5           6           7    +179.610
tors           5           6           7           8     -82.299
tors           6           7           8           9    +160.245
tors           7           8           9          10    +178.829
tors           8           9          10          11    +178.476
tors           9          10          11          12     -79.511
tors          11          12          13          14    +158.799
ENDCONSTRAINT
$end

$rem
JOBTYPE                   OPT
METHOD                    B3LYP
DFT_D                     d3_op
BASIS                     STO-3G
GEOM_OPT_MAX_CYCLES       100
GEOM_OPT_TOL_GRADIENT     300
GEOM_OPT_TOL_DISPLACEMENT 1200
GEOM_OPT_TOL_ENERGY       100
SYMMETRY                  False
THRESH                    12
SCF_CONVERGENCE           8
MAX_SUB_FILE_NUM          128
MEM_STATIC                400
MEM_TOTAL                 4000
$end
--------------------------------------------------------------

   15   -1510.1489470787      7.79E-09 Convergence criterion met
 Total energy in the final basis set = -1510.14894708
   14   -1510.2192494298      7.65E-09 Convergence criterion met
 Total energy in the final basis set = -1510.21924943
   15   -1510.2571729064      1.09E-09 Convergence criterion met
 Total energy in the final basis set = -1510.25717291
   14   -1510.2739682280      9.69E-09 Convergence criterion met
 Total energy in the final basis set = -1510.27396823
   14   -1510.2794814528      5.96E-09 Convergence criterion met
 Total energy in the final basis set = -1510.27948145
    2   -1510.2794814526      1.04E-09 Convergence criterion met
 Total energy in the final basis set = -1510.27948145
   13   -1510.2800625067      6.86E-09 Convergence criterion met
 Total energy in the final basis set = -1510.28006251
   13   -1510.2811684564      8.24E-09 Convergence criterion met
   11   -1510.2839837276      4.45E-09 Convergence criterion met
 Total energy in the final basis set = -1510.28398373
    9   -1510.2839888213      7.24E-09 Convergence criterion met
 Total energy in the final basis set = -1510.28398882
    9   -1510.2839930632      4.72E-09 Convergence criterion met
 Total energy in the final basis set = -1510.28399306
    9   -1510.2839963992      3.95E-09 Convergence criterion met
 Total energy in the final basis set = -1510.28399640
    9   -1510.2839995516      4.48E-09 Convergence criterion met
 Total energy in the final basis set = -1510.28399955
    9   -1510.2840021024      2.53E-09 Convergence criterion met
 Total energy in the final basis set = -1510.28400210

             Standard Nuclear Orientation (Angstroms)
    I     Atom           X                Y                Z
 ----------------------------------------------------------------
    1      O      -3.5171550107     1.4806212223     1.8764828312
    2      C      -3.8167467899     1.5595989944     0.6655164036
    3      C      -4.5313393937     0.4809016543    -0.2204627665
    4      C      -3.5183871952    -0.6091548778    -0.7926733321
    5      C      -2.0488568408    -0.3594967519    -0.2969318222
    6      O      -1.7121489035    -1.2956378213     0.7273543099
    7      C      -0.3209307012    -1.0676456819     1.1906557877
    8      C       0.7144121662    -1.7579332101     0.2343968238
    9      O       2.0063723735    -1.0829467275     0.4909311790
   10      C       3.0294108738    -1.6701293610    -0.3255986462
   11      C       4.3767244782    -0.9131100000    -0.0642609120
   12      C       4.5437986888     0.4785710693    -0.8115025670
   13      C       3.2969148981     1.0587045731    -1.5792810633
   14      O       3.1440957286     2.2638405078    -1.8803884168
   15      O      -3.5330110953     2.6918245069    -0.1630348943
   16      O       2.3896967284     0.0224354616    -1.9507186690
   17      O       2.8635747517    -2.6851853214    -1.0357942218
   18      C       1.1648172391     0.5845627525    -2.5733379419
   19      C       4.5580363175    -0.4586108080     1.4500227200
   20      C       6.0987750394    -0.2259248338     1.7092049878
   21      C       6.3341641668     1.1224949013     0.9325941022
   22      C       4.8763868751     1.4342833626     0.4113546131
   23      O       3.9966440675     0.9105137378     1.4818687883
   24      H       5.1860372217    -1.5988150613    -0.3719744943
   25      H       5.3835684008     0.4344990445    -1.5301719989
   26      H       4.0452907332    -1.1048898657     2.1880050050
   27      H       6.2923566787    -0.1094678822     2.7875135611
   28      H       6.7171467726    -1.0531568915     1.3260162644
   29      H       6.6841828167     1.9224550480     1.6040852447
   30      H       7.0537779897     1.0155364588     0.1051649013
   31      H       4.6558889065     2.5006693948     0.2086427404
   32      O      -1.2727718718     0.5329805405    -0.7135605310
   33      C      -2.7674241326     3.7017966746     0.6044997297
   34      C      -5.5127180440    -0.4398717727     0.6203290585
   35      C      -6.4738713499    -1.1841023766    -0.3874038263
   36      C      -5.4901972754    -2.2400257024    -1.0153751039
   37      C      -4.1599846883    -1.9375214145    -0.2162370460
   38      O      -4.6382044674    -1.5236999310     1.1233325028
   39      H      -5.0521964523     1.0000366146    -1.0443794013
   40      H      -3.5091240565    -0.5899344816    -1.8976188833
   41      H      -1.7607234220     3.3222892347     0.8751630237
   42      H      -6.0120278954     0.0744933372     1.4641846610
   43      H      -7.2952675105    -1.6739209328     0.1594854564
   44      H      -6.9056964524    -0.5021792822    -1.1374678498
   45      H      -5.8270848142    -3.2710609196    -0.8240171000
   46      H      -5.3599591321    -2.1071180408    -2.1013928052
   47      H      -3.4540164372    -2.7853371265    -0.1307930340
   48      H      -3.2963109143     3.9957066961     1.5337788904
   49      H      -2.6636289106     4.5786306114    -0.0604190864
   50      H       0.9105219259    -0.0554509846    -3.4390803308
   51      H       1.3617519978     1.6233142023    -2.9043477405
   52      H       0.3255468015     0.5794347769    -1.8387735202
   53      H       0.7805663973    -2.8491777398     0.4349342759
   54      H       0.4066566734    -1.6243691318    -0.8250636877
   55      H      -0.2663627310    -1.4964693828     2.2103509977
   56      H      -0.0969058914     0.0198028728     1.2293624471
 ----------------------------------------------------------------

    9   -1510.2840028485      2.80E-09 Convergence criterion met
 Total energy in the final basis set = -1510.28400285
 Final energy is   -1510.28400284847
 **  OPTIMIZATION CONVERGED  **

                    Orbital Energies (a.u.)
 --------------------------------------------------------------

 Alpha MOs
 -- Occupied --
-18.946 -18.935 -18.934 -18.924 -18.888 -18.885 -18.884 -18.874
-18.871 -18.862 -10.110 -10.098 -10.098 -10.095 -10.074 -10.069
-10.061 -10.061 -10.061 -10.057 -10.056 -10.046 -10.043 -10.039
-10.037 -10.033 -10.022 -10.021 -10.019 -10.017  -1.022  -1.011
 -1.009  -1.000  -0.971  -0.968  -0.946  -0.935  -0.933  -0.928
 -0.766  -0.760  -0.729  -0.722  -0.714  -0.705  -0.693  -0.661
 -0.654  -0.615  -0.597  -0.581  -0.549  -0.542  -0.539  -0.535
 -0.517  -0.509  -0.488  -0.473  -0.464  -0.461  -0.456  -0.439
 -0.434  -0.433  -0.426  -0.411  -0.410  -0.408  -0.405  -0.400
 -0.398  -0.380  -0.376  -0.368  -0.360  -0.356  -0.353  -0.348
 -0.343  -0.339  -0.332  -0.331  -0.328  -0.327  -0.323  -0.311
 -0.309  -0.307  -0.303  -0.299  -0.292  -0.287  -0.285  -0.279
 -0.275  -0.258  -0.252  -0.247  -0.236  -0.235  -0.232  -0.187
 -0.177  -0.174  -0.165  -0.163  -0.155  -0.151  -0.145  -0.144
 -0.140

          Ground-State Mulliken Net Atomic Charges

     Atom                 Charge (a.u.)
  ----------------------------------------
      1 O                    -0.211145
      2 C                     0.204697
      3 C                    -0.078861
      4 C                    -0.077381
      5 C                     0.211179
      6 O                    -0.161240
      7 C                    -0.048699
      8 C                    -0.047677
      9 O                    -0.173620
     10 C                     0.218603
     11 C                    -0.081453
     12 C                    -0.077286
     13 C                     0.213716
     14 O                    -0.216689
     15 O                    -0.167793
     16 O                    -0.170149
     17 O                    -0.219793
     18 C                    -0.145312
     19 C                     0.026155
     20 C                    -0.143790
     21 C                    -0.144537
     22 C                     0.024313
     23 O                    -0.188907
     24 H                     0.083106
     25 H                     0.085147
     26 H                     0.084234
     27 H                     0.077352
     28 H                     0.073228
     29 H                     0.078021
     30 H                     0.073256
     31 H                     0.089462
     32 O                    -0.218799
     33 C                    -0.128658
     34 C                     0.025509
     35 C                    -0.143642
     36 C                    -0.144579
     37 C                     0.025349
     38 O                    -0.184810
     39 H                     0.086693
     40 H                     0.086022
     41 H                     0.091063
     42 H                     0.086164
     43 H                     0.078552
     44 H                     0.073602
     45 H                     0.078473
     46 H                     0.072962
     47 H                     0.088926
     48 H                     0.089775
     49 H                     0.091268
     50 H                     0.082725
     51 H                     0.098289
     52 H                     0.105030
     53 H                     0.086795
     54 H                     0.087262
     55 H                     0.095245
     56 H                     0.102646
  ----------------------------------------
  Sum of atomic charges =     0.000000

                    Cartesian Multipole Moments
 -----------------------------------------------------------------
    Charge (ESU x 10^10)
                 0.0000
    Dipole Moment (Debye)
         X      -0.5601      Y      -0.3352      Z      -1.0799
       Tot       1.2618
    Quadrupole Moments (Debye-Ang)
        XX    -137.2756     XY      -1.3979     YY    -162.0636
        XZ      11.5259     YZ       0.8577     ZZ    -163.3279

 Total job time:  72.11s(wall), 3081.25s(cpu)
        *  Thank you very much for using Q-Chem.  Have a nice day.  *
