 Q-Chem 5.0, Q-Chem, Inc., Pleasanton, CA (2017)
 Q-Chem 5.0.1 for Intel X86 EM64T Linux

User input:
--------------------------------------------------------------
$molecule
0  1
O -3.5171550107 1.4806212223 1.8764828312
C -3.8167467899 1.5595989944 0.6655164036
C -4.5313393937 0.4809016543 -0.2204627665
C -3.5183871952 -0.6091548778 -0.7926733321
C -2.0488568408 -0.3594967519 -0.2969318222
O -1.7121489035 -1.2956378213 0.7273543099
C -0.3209307012 -1.0676456819 1.1906557877
C 0.7144121662 -1.7579332101 0.2343968238
O 2.0063723735 -1.0829467275 0.490931179
C 3.0294108738 -1.670129361 -0.3255986462
C 4.3767244782 -0.91311 -0.064260912
C 4.5437986888 0.4785710693 -0.811502567
C 3.2969148981 1.0587045731 -1.5792810633
O 3.1440957286 2.2638405078 -1.8803884168
O -3.5330110953 2.6918245069 -0.1630348943
O 2.3896967284 0.0224354616 -1.950718669
O 2.8635747517 -2.6851853214 -1.0357942218
C 1.1648172391 0.5845627525 -2.5733379419
C 4.5580363175 -0.458610808 1.45002272
C 6.0987750394 -0.2259248338 1.7092049878
C 6.3341641668 1.1224949013 0.9325941022
C 4.8763868751 1.4342833626 0.4113546131
O 3.9966440675 0.9105137378 1.4818687883
H 5.1860372217 -1.5988150613 -0.3719744943
H 5.3835684008 0.4344990445 -1.5301719989
H 4.0452907332 -1.1048898657 2.188005005
H 6.2923566787 -0.1094678822 2.7875135611
H 6.7171467726 -1.0531568915 1.3260162644
H 6.6841828167 1.922455048 1.6040852447
H 7.0537779897 1.0155364588 0.1051649013
H 4.6558889065 2.5006693948 0.2086427404
O -1.2727718718 0.5329805405 -0.713560531
C -2.7674241326 3.7017966746 0.6044997297
C -5.512718044 -0.4398717727 0.6203290585
C -6.4738713499 -1.1841023766 -0.3874038263
C -5.4901972754 -2.2400257024 -1.0153751039
C -4.1599846883 -1.9375214145 -0.216237046
O -4.6382044674 -1.523699931 1.1233325028
H -5.0521964523 1.0000366146 -1.0443794013
H -3.5091240565 -0.5899344816 -1.8976188833
H -1.760723422 3.3222892347 0.8751630237
H -6.0120278954 0.0744933372 1.464184661
H -7.2952675105 -1.6739209328 0.1594854564
H -6.9056964524 -0.5021792822 -1.1374678498
H -5.8270848142 -3.2710609196 -0.8240171
H -5.3599591321 -2.1071180408 -2.1013928052
H -3.4540164372 -2.7853371265 -0.130793034
H -3.2963109143 3.9957066961 1.5337788904
H -2.6636289106 4.5786306114 -0.0604190864
H 0.9105219259 -0.0554509846 -3.4390803308
H 1.3617519978 1.6233142023 -2.9043477405
H 0.3255468015 0.5794347769 -1.8387735202
H 0.7805663973 -2.8491777398 0.4349342759
H 0.4066566734 -1.6243691318 -0.8250636877
H -0.266362731 -1.4964693828 2.2103509977
H -0.0969058914 0.0198028728 1.2293624471
$end

$rem
JOBTYPE                   OPT
METHOD                    B3LYP
DFT_D                     d3_op
BASIS                     STO-3G
GEOM_OPT_MAX_CYCLES       100
GEOM_OPT_TOL_GRADIENT     300
GEOM_OPT_TOL_DISPLACEMENT 1200
GEOM_OPT_TOL_ENERGY       100
SYMMETRY                  False
THRESH                    12
SCF_CONVERGENCE           8
MAX_SUB_FILE_NUM          128
MEM_STATIC                400
MEM_TOTAL                 4000
$end
--------------------------------------------------------------

   16   -1510.2840179714      5.17E-09 Convergence criterion met
 Total energy in the final basis set = -1510.28401797
   15   -1510.2453534061      6.74E-09 Convergence criterion met
 Total energy in the final basis set = -1510.24535341
   14   -1510.2844127404      4.68E-09 Convergence criterion met
 Total energy in the final basis set = -1510.28441274
   13   -1510.2848796193      4.83E-09 Convergence criterion met
 Total energy in the final basis set = -1510.28487962
   14   -1510.2856783343      1.38E-09 Convergence criterion met
 Total energy in the final basis set = -1510.28567833
   13   -1510.2866657553      8.88E-09 Convergence criterion met
 Total energy in the final basis set = -1510.28666576
   14   -1510.2871687168      3.99E-09 Convergence criterion met
 Total energy in the final basis set = -1510.28716872
   13   -1510.2872823918      6.01E-09 Convergence criterion met
   12   -1510.2997421288      6.37E-09 Convergence criterion met
 Total energy in the final basis set = -1510.29974213
   12   -1510.2998072775      5.56E-09 Convergence criterion met
 Total energy in the final basis set = -1510.29980728
   12   -1510.2998564568      6.33E-09 Convergence criterion met
 Total energy in the final basis set = -1510.29985646
   12   -1510.2998425280      5.20E-09 Convergence criterion met
 Total energy in the final basis set = -1510.29984253
   11   -1510.2998568275      8.70E-09 Convergence criterion met
 Total energy in the final basis set = -1510.29985683
   11   -1510.2998608015      3.98E-09 Convergence criterion met
 Total energy in the final basis set = -1510.29986080

             Standard Nuclear Orientation (Angstroms)
    I     Atom           X                Y                Z
 ----------------------------------------------------------------
    1      O      -3.3600410521     2.1204897338     1.4640125219
    2      C      -3.1822563432     1.6074045914     0.3391845202
    3      C      -4.1042020312     0.5775192456    -0.4059799483
    4      C      -3.3230592857    -0.7061530121    -0.9204504445
    5      C      -1.8070810594    -0.6951827843    -0.5242921016
    6      O      -1.7139710651    -0.6421781144     0.8995697777
    7      C      -0.3008748618    -0.5369157681     1.3385681250
    8      C       0.4887838340    -1.8988466255     1.2340585878
    9      O       1.9367329488    -1.5734433135     1.2593728590
   10      C       2.4803793774    -1.6283784470    -0.0647036808
   11      C       3.9006485661    -0.9592294152    -0.0734264364
   12      C       3.8302233510     0.5606061700    -0.5562877749
   13      C       2.3738857501     1.0155320078    -0.9147648397
   14      O       1.4824883563     1.3688454285    -0.1018820668
   15      O      -2.0761662935     1.8861511039    -0.5252241278
   16      O       2.2098580862     0.9540916368    -2.3208479897
   17      O       1.8839316324    -2.1127664893    -1.0524775622
   18      C       0.8005853178     1.2373192834    -2.7036716477
   19      C       4.5169300063    -0.7775340039     1.3749883080
   20      C       6.0447894535    -0.4001019627     1.2243243693
   21      C       5.9463225815     1.1067882566     0.7807500168
   22      C       4.3812673849     1.3062722355     0.7320677455
   23      O       3.8901047251     0.4761894595     1.8544801989
   24      H       4.5559655483    -1.5465182362    -0.7412791343
   25      H       4.4706164791     0.7213141751    -1.4411968956
   26      H       4.2995783243    -1.6098275910     2.0709268733
   27      H       6.5650750832    -0.5047057397     2.1896320792
   28      H       6.5549751581    -1.0301539499     0.4783325799
   29      H       6.3949358533     1.7780770417     1.5301962605
   30      H       6.4214731392     1.2977928296    -0.1947828744
   31      H       4.0287356533     2.3500635807     0.8414910541
   32      O      -0.8233935807    -0.7610410461    -1.2973641962
   33      C      -1.1258842245     2.8355149369     0.1044816078
   34      C      -5.1709542928    -0.0765944362     0.5642747582
   35      C      -6.2982647353    -0.7426579455    -0.3170387946
   36      C      -5.5409016361    -2.0078743822    -0.8683168898
   37      C      -4.1311884434    -1.8521487801    -0.1696493612
   38      O      -4.4536419964    -1.2401309907     1.1378784142
   39      H      -4.5899279388     1.1004197370    -1.2507700403
   40      H      -3.3839464601    -0.8078546168    -2.0179224464
   41      H      -1.3902299084     2.9769893771     1.1707623980
   42      H      -5.5185246740     0.5987244279     1.3703175216
   43      H      -7.1570964842    -1.0300628028     0.3102110716
   44      H      -6.6534442581    -0.0750461261    -1.1181781193
   45      H      -6.0267442461    -2.9425800757    -0.5464075142
   46      H      -5.4609401332    -2.0119015151    -1.9671757061
   47      H      -3.5689884090    -2.7958543459    -0.0297712414
   48      H      -1.1862098629     3.8099123648    -0.4199559741
   49      H      -0.1046501280     2.4048746125     0.0004491689
   50      H       0.7640890039     1.1159815332    -3.8011914894
   51      H       0.5145139987     2.2746101766    -2.4380995982
   52      H       0.1059799768     0.5137199035    -2.2119472325
   53      H       0.2745259092    -2.5660229757     2.0923533191
   54      H       0.2513822619    -2.4090132954     0.2757026355
   55      H      -0.3512881063    -0.2034461764     2.3934024147
   56      H       0.2571887754     0.2249552801     0.7416909195
 ----------------------------------------------------------------

   11   -1510.2998603573      4.94E-09 Convergence criterion met
 Total energy in the final basis set = -1510.29986036
 Final energy is   -1510.29986035729
 **  OPTIMIZATION CONVERGED  **

                    Orbital Energies (a.u.)
 --------------------------------------------------------------

 Alpha MOs
 -- Occupied --
-18.944 -18.932 -18.930 -18.924 -18.888 -18.885 -18.884 -18.876
-18.874 -18.871 -10.110 -10.102 -10.098 -10.095 -10.061 -10.060
-10.060 -10.059 -10.055 -10.053 -10.046 -10.041 -10.040 -10.037
-10.036 -10.035 -10.022 -10.020 -10.019 -10.018  -1.018  -1.013
 -1.008  -1.001  -0.970  -0.967  -0.942  -0.937  -0.933  -0.930
 -0.765  -0.761  -0.727  -0.722  -0.711  -0.704  -0.688  -0.659
 -0.649  -0.612  -0.596  -0.578  -0.548  -0.544  -0.538  -0.535
 -0.514  -0.507  -0.481  -0.477  -0.462  -0.460  -0.451  -0.441
 -0.433  -0.432  -0.427  -0.418  -0.412  -0.406  -0.401  -0.397
 -0.380  -0.379  -0.369  -0.367  -0.363  -0.359  -0.352  -0.349
 -0.344  -0.337  -0.332  -0.329  -0.326  -0.323  -0.318  -0.311
 -0.308  -0.306  -0.303  -0.301  -0.291  -0.286  -0.282  -0.279
 -0.272  -0.259  -0.245  -0.241  -0.237  -0.234  -0.232  -0.191
 -0.177  -0.170  -0.161  -0.160  -0.156  -0.152  -0.148  -0.144
 -0.141

          Ground-State Mulliken Net Atomic Charges

     Atom                 Charge (a.u.)
  ----------------------------------------
      1 O                    -0.212173
      2 C                     0.214402
      3 C                    -0.077825
      4 C                    -0.078503
      5 C                     0.220209
      6 O                    -0.167490
      7 C                    -0.061825
      8 C                    -0.057630
      9 O                    -0.169006
     10 C                     0.205012
     11 C                    -0.077257
     12 C                    -0.078333
     13 C                     0.218791
     14 O                    -0.221579
     15 O                    -0.179013
     16 O                    -0.161123
     17 O                    -0.207251
     18 C                    -0.143729
     19 C                     0.026200
     20 C                    -0.144472
     21 C                    -0.143723
     22 C                     0.025488
     23 O                    -0.184514
     24 H                     0.086109
     25 H                     0.087879
     26 H                     0.089190
     27 H                     0.078283
     28 H                     0.073434
     29 H                     0.078402
     30 H                     0.073606
     31 H                     0.084632
     32 O                    -0.219819
     33 C                    -0.151824
     34 C                     0.024453
     35 C                    -0.143878
     36 C                    -0.144069
     37 C                     0.026106
     38 O                    -0.185316
     39 H                     0.083768
     40 H                     0.084490
     41 H                     0.094989
     42 H                     0.090552
     43 H                     0.077940
     44 H                     0.072823
     45 H                     0.077732
     46 H                     0.073328
     47 H                     0.082165
     48 H                     0.074993
     49 H                     0.109698
     50 H                     0.087292
     51 H                     0.081659
     52 H                     0.119836
     53 H                     0.085669
     54 H                     0.101337
     55 H                     0.090212
     56 H                     0.109676
  ----------------------------------------
  Sum of atomic charges =     0.000000

                    Cartesian Multipole Moments
 -----------------------------------------------------------------
    Charge (ESU x 10^10)
                 0.0000
    Dipole Moment (Debye)
         X       1.1127      Y       0.0588      Z      -1.9852
       Tot       2.2766
    Quadrupole Moments (Debye-Ang)
        XX    -137.8861     XY       3.2842     YY    -156.1785
        XZ       9.0996     YZ      -5.8650     ZZ    -166.3568

 Total job time:  235.82s(wall), 11238.84s(cpu)
        *  Thank you very much for using Q-Chem.  Have a nice day.  *
