 Q-Chem 5.0, Q-Chem, Inc., Pleasanton, CA (2017)
 Q-Chem 5.0.1 for Intel X86 EM64T Linux

User input:
--------------------------------------------------------------
$molecule
0  1
O -3.5066357902 1.490517307 1.8503130194
C -3.8019657202 1.565838661 0.6380732037
C -4.5254017206 0.4899697002 -0.2441800453
C -3.5219942661 -0.6137244577 -0.807320546
C -2.052391948 -0.3779892189 -0.3052375149
O -1.7393057964 -1.2991216641 0.739517315
C -0.3484124036 -1.0866482628 1.2109879812
C 0.6920787821 -1.7645868373 0.2505068462
O 1.9843763666 -1.0978909791 0.5272243148
C 3.0077051028 -1.6586306836 -0.3077581194
C 4.3551519005 -0.9095535723 -0.0231313697
C 4.56398378 0.4558043833 -0.8067538482
C 3.3146704329 1.0595229157 -1.5529427935
O 3.1523592247 2.2731916218 -1.811185217
O -3.5030486645 2.6897539304 -0.1964381377
O 2.4082588766 0.0309555032 -1.9469715031
O 2.8443135373 -2.6572052592 -1.0414876572
C 1.183851009 0.6046905771 -2.5601490199
C 4.5163317027 -0.4167642729 1.481193151
C 6.0591129894 -0.2424929046 1.7687722813
C 6.3725173979 1.0581343162 0.940021298
C 4.9383030476 1.4263588058 0.3905468258
O 4.0176017015 0.9769123361 1.4617728187
H 5.1632304537 -1.6125404657 -0.2933342595
H 5.3869194457 0.3662764231 -1.5403479885
H 3.9582666098 -1.0178619976 2.2243847034
H 6.2318929592 -0.0853527277 2.8455007533
H 6.6483614485 -1.1128806954 1.4389932799
H 6.7600059844 1.8654062063 1.5814236067
H 7.0921513438 0.878598987 0.1252786023
H 4.7716849836 2.4959123807 0.1555468343
O -1.2613583127 0.4978235285 -0.7286776493
C -2.727166304 3.6952353831 0.5666266451
C -5.5196066496 -0.4158631776 0.5978473863
C -6.4861809464 -1.1537666962 -0.4092567347
C -5.5121318705 -2.2219853288 -1.031183651
C -4.181356193 -1.9322936939 -0.2282441882
O -4.6591373773 -1.5075633797 1.1080576273
H -5.0378321893 1.0101425635 -1.0727157417
H -3.5070355407 -0.5990108173 -1.9122492525
H -1.7240277254 3.3069159096 0.8380702148
H -6.0153744809 0.1078360478 1.4380334041
H -7.3135581945 -1.6331000374 0.1379470982
H -6.9098632325 -0.4704246294 -1.162684112
H -5.8609935153 -3.2488515983 -0.8389603664
H -5.3765130831 -2.0926874014 -2.1169674068
H -3.4861129286 -2.7883590964 -0.1370345089
H -3.2525108181 3.9979619751 1.4950612065
H -2.6151436994 4.5683564452 -0.101835326
H 0.9360881032 -0.0134064443 -3.4435635669
H 1.3781709536 1.6525252176 -2.8627019978
H 0.3411034677 0.5771057008 -1.8303797819
H 0.7535521847 -2.8591224486 0.434131371
H 0.3923389554 -1.612633551 -0.8086023454
H -0.3020796966 -1.532636822 2.2236705873
H -0.1187908251 -0.0011811402 1.2712614311
$end

$rem
JOBTYPE                   OPT
METHOD                    B3LYP
DFT_D                     d3_op
BASIS                     STO-3G
GEOM_OPT_MAX_CYCLES       100
GEOM_OPT_TOL_GRADIENT     300
GEOM_OPT_TOL_DISPLACEMENT 1200
GEOM_OPT_TOL_ENERGY       100
SYMMETRY                  False
THRESH                    12
SCF_CONVERGENCE           8
MAX_SUB_FILE_NUM          128
MEM_STATIC                400
MEM_TOTAL                 4000
$end
--------------------------------------------------------------

   16   -1510.2839012484      5.12E-09 Convergence criterion met
 Total energy in the final basis set = -1510.28390125
   15   -1510.2451023770      6.18E-09 Convergence criterion met
 Total energy in the final basis set = -1510.24510238
   14   -1510.2843160543      5.30E-09 Convergence criterion met
 Total energy in the final basis set = -1510.28431605
   13   -1510.2850919782      7.32E-09 Convergence criterion met
 Total energy in the final basis set = -1510.28509198
   13   -1510.2859456243      4.38E-09 Convergence criterion met
 Total energy in the final basis set = -1510.28594562
   14   -1510.2867448994      4.83E-09 Convergence criterion met
 Total energy in the final basis set = -1510.28674490
   13   -1510.2872582977      8.70E-09 Convergence criterion met
 Total energy in the final basis set = -1510.28725830
   13   -1510.2876334907      2.61E-09 Convergence criterion met
   12   -1510.2998541805      4.55E-09 Convergence criterion met
 Total energy in the final basis set = -1510.29985418
   11   -1510.2998592930      8.15E-09 Convergence criterion met
 Total energy in the final basis set = -1510.29985929
   11   -1510.2998625166      4.08E-09 Convergence criterion met
 Total energy in the final basis set = -1510.29986252
   11   -1510.2998700775      6.64E-09 Convergence criterion met
 Total energy in the final basis set = -1510.29987008
   11   -1510.2998743225      4.43E-09 Convergence criterion met
 Total energy in the final basis set = -1510.29987432
   10   -1510.2998753558      6.18E-09 Convergence criterion met
 Total energy in the final basis set = -1510.29987536

             Standard Nuclear Orientation (Angstroms)
    I     Atom           X                Y                Z
 ----------------------------------------------------------------
    1      O      -3.2941376184     2.0690370981     1.5823573082
    2      C      -3.1610922561     1.6007419306     0.4320586923
    3      C      -4.1188503578     0.6103189298    -0.3213444605
    4      C      -3.3686259224    -0.6528203942    -0.9231468559
    5      C      -1.8414290536    -0.6755201180    -0.5718868646
    6      O      -1.7089245501    -0.6788232904     0.8499244647
    7      C      -0.2849002500    -0.6053673204     1.2583660150
    8      C       0.4923392601    -1.9644831499     1.0688893033
    9      O       1.9412720865    -1.6495262226     1.1411722526
   10      C       2.5118823906    -1.6467659117    -0.1723527122
   11      C       3.9272559420    -0.9694332302    -0.1268359364
   12      C       3.8513137080     0.5666307406    -0.5556828384
   13      C       2.3947102436     1.0219958555    -0.9140340868
   14      O       1.4979965071     1.3571243228    -0.0993372366
   15      O      -2.0842154485     1.9067027938    -0.4600299115
   16      O       2.2348844511     0.9821576540    -2.3213352596
   17      O       1.9363484463    -2.0886143116    -1.1921162913
   18      C       0.8262973134     1.2715197698    -2.7021295190
   19      C       4.5129877628    -0.8345923668     1.3394512563
   20      C       6.0410795349    -0.4434140451     1.2332137280
   21      C       5.9417961649     1.0761518484     0.8360190269
   22      C       4.3767748878     1.2695240179     0.7664413045
   23      O       3.8694083209     0.3982659007     1.8498164406
   24      H       4.6008091106    -1.5267479402    -0.8020976204
   25      H       4.5012470709     0.7644705496    -1.4259975836
   26      H       4.2871078396    -1.6916733246     2.0019077401
   27      H       6.5408580842    -0.5756572868     2.2059514857
   28      H       6.5714767387    -1.0463529911     0.4789503944
   29      H       6.3742387584     1.7258112942     1.6134682732
   30      H       6.4322769953     1.2998286138    -0.1248818970
   31      H       4.0164010643     2.3070167402     0.9056629355
   32      O      -0.8825841212    -0.7243564015    -1.3765685478
   33      C      -1.1075056337     2.8285949435     0.1703256389
   34      C      -5.1547197832    -0.0796965422     0.6577427183
   35      C      -6.3235048114    -0.6889863900    -0.2097633492
   36      C      -5.6014307459    -1.9290310922    -0.8580091024
   37      C      -4.1654808444    -1.8265836933    -0.2045232163
   38      O      -4.4319041474    -1.2791392650     1.1438585747
   39      H      -4.6321909603     1.1740533304    -1.1224314669
   40      H      -3.4629868062    -0.6995570023    -2.0219046037
   41      H      -1.3521882525     2.9539044107     1.2433760971
   42      H      -5.4615775518     0.5583303414     1.5093339917
   43      H      -7.1585585542    -1.0030767393     0.4366484671
   44      H      -6.7057795978     0.0226670358    -0.9590577530
   45      H      -6.0865550885    -2.8753764186    -0.5710199509
   46      H      -5.5621301475    -1.8717391834    -1.9576341605
   47      H      -3.6116869173    -2.7828391148    -0.1336098844
   48      H      -1.1620382536     3.8125792892    -0.3363552891
   49      H      -0.0938196692     2.3868355273     0.0423005246
   50      H       0.7922624971     1.1696772371    -3.8017126121
   51      H       0.5398407925     2.3041558725    -2.4190881195
   52      H       0.1279506078     0.5410185160    -2.2263526562
   53      H       0.2565027358    -2.6897532105     1.8727280354
   54      H       0.2686375952    -2.4005691460     0.0715690368
   55      H      -0.3073341766    -0.3256140194     2.3296889081
   56      H       0.2651565824     0.1826356070     0.6888350913
 ----------------------------------------------------------------

    9   -1510.2998751180      5.18E-09 Convergence criterion met
 Total energy in the final basis set = -1510.29987512
 Final energy is   -1510.29987511804
 **  OPTIMIZATION CONVERGED  **

                    Orbital Energies (a.u.)
 --------------------------------------------------------------

 Alpha MOs
 -- Occupied --
-18.944 -18.933 -18.931 -18.924 -18.888 -18.885 -18.884 -18.877
-18.875 -18.871 -10.110 -10.102 -10.099 -10.095 -10.062 -10.060
-10.060 -10.059 -10.055 -10.053 -10.047 -10.041 -10.040 -10.037
-10.036 -10.035 -10.022 -10.020 -10.019 -10.018  -1.019  -1.013
 -1.009  -1.000  -0.970  -0.967  -0.942  -0.937  -0.933  -0.930
 -0.765  -0.761  -0.727  -0.722  -0.711  -0.704  -0.688  -0.659
 -0.649  -0.612  -0.596  -0.578  -0.548  -0.544  -0.538  -0.535
 -0.514  -0.507  -0.481  -0.477  -0.463  -0.460  -0.452  -0.441
 -0.433  -0.432  -0.427  -0.418  -0.412  -0.406  -0.401  -0.397
 -0.380  -0.379  -0.369  -0.367  -0.363  -0.359  -0.352  -0.349
 -0.344  -0.337  -0.332  -0.329  -0.326  -0.323  -0.318  -0.311
 -0.308  -0.306  -0.303  -0.301  -0.292  -0.286  -0.283  -0.280
 -0.272  -0.259  -0.245  -0.241  -0.237  -0.234  -0.232  -0.191
 -0.177  -0.170  -0.161  -0.160  -0.156  -0.153  -0.148  -0.144
 -0.141

          Ground-State Mulliken Net Atomic Charges

     Atom                 Charge (a.u.)
  ----------------------------------------
      1 O                    -0.212271
      2 C                     0.214523
      3 C                    -0.077810
      4 C                    -0.078361
      5 C                     0.220553
      6 O                    -0.167339
      7 C                    -0.061595
      8 C                    -0.058305
      9 O                    -0.169044
     10 C                     0.205017
     11 C                    -0.077308
     12 C                    -0.078215
     13 C                     0.218318
     14 O                    -0.221666
     15 O                    -0.178975
     16 O                    -0.160997
     17 O                    -0.207736
     18 C                    -0.143750
     19 C                     0.026167
     20 C                    -0.144411
     21 C                    -0.143785
     22 C                     0.025484
     23 O                    -0.184585
     24 H                     0.086235
     25 H                     0.087906
     26 H                     0.089262
     27 H                     0.078344
     28 H                     0.073458
     29 H                     0.078457
     30 H                     0.073610
     31 H                     0.084808
     32 O                    -0.220321
     33 C                    -0.151925
     34 C                     0.024422
     35 C                    -0.143753
     36 C                    -0.144100
     37 C                     0.026002
     38 O                    -0.185325
     39 H                     0.083779
     40 H                     0.084594
     41 H                     0.095246
     42 H                     0.090637
     43 H                     0.077917
     44 H                     0.072782
     45 H                     0.077737
     46 H                     0.073316
     47 H                     0.082111
     48 H                     0.075118
     49 H                     0.109366
     50 H                     0.087588
     51 H                     0.081659
     52 H                     0.119779
     53 H                     0.085552
     54 H                     0.102209
     55 H                     0.090609
     56 H                     0.109011
  ----------------------------------------
  Sum of atomic charges =     0.000000

                    Cartesian Multipole Moments
 -----------------------------------------------------------------
    Charge (ESU x 10^10)
                 0.0000
    Dipole Moment (Debye)
         X       1.0753      Y       0.1661      Z      -1.9301
       Tot       2.2157
    Quadrupole Moments (Debye-Ang)
        XX    -136.9621     XY       2.9187     YY    -155.8952
        XZ       9.0240     YZ      -5.5617     ZZ    -167.2205

 Total job time:  275.86s(wall), 11255.95s(cpu)
        *  Thank you very much for using Q-Chem.  Have a nice day.  *
