 Q-Chem 5.0, Q-Chem, Inc., Pleasanton, CA (2017)
 Q-Chem 5.0.1 for Intel X86 EM64T Linux

User input:
--------------------------------------------------------------
$molecule
0  1
O -3.94934 -3.66094 2.70899
C -3.26408 -4.56952 2.26188
C -3.36658 -6.02376 2.66595
C -2.61222 -6.45547 3.93418
C -1.9856 -5.35034 4.75524
O -2.74832 -5.10448 5.86125
C -2.21295 -4.07244 6.69643
C -1.09327 -4.63027 7.56894
O -0.26593 -3.55841 8.04801
C 0.76804 -3.93038 8.84279
C 1.62054 -2.76429 9.28341
C 2.69563 -2.33125 8.27597
C 2.53595 -2.86785 6.86768
O 2.96657 -2.3373 5.85395
O -2.42506 -4.30095 1.22683
O 2.2712 -4.19878 6.75755
O 0.86062 -5.03975 9.35403
C 2.27964 -4.91341 5.57664
C 0.85676 -1.44392 9.49619
C 1.64027 -0.54198 10.4481
C 2.80771 -0.14833 9.56655
C 2.39741 -0.81631 8.24888
O 0.99018 -0.77167 8.26886
H 2.09529 -3.0688 10.24435
H 3.73289 -2.5626 8.60357
H -0.18046 -1.59203 9.86872
H 1.01415 0.36034 10.63281
H 1.91511 -1.00236 11.42144
H 2.80731 0.95936 9.46024
H 3.80477 -0.49821 9.91149
H 2.88684 -0.29901 7.39467
O -1.02367 -4.68832 4.38565
C -2.22642 -3.04504 0.69272
C -4.80501 -6.45562 3.00234
C -4.95865 -7.95985 2.79034
C -4.14815 -8.49034 3.95295
C -3.78098 -7.17856 4.65854
O -4.87964 -6.33789 4.40109
H -3.0055 -6.61096 1.79036
H -1.79603 -7.18343 3.73049
H -1.82699 -2.35854 1.46976
H -5.57607 -5.9045 2.42039
H -6.03076 -8.20782 2.962
H -4.65232 -8.33147 1.78885
H -4.81904 -9.10306 4.59555
H -3.24696 -9.07895 3.67608
H -3.55858 -7.38835 5.72796
H -3.18133 -2.64364 0.29111
H -1.49135 -3.11389 -0.13518
H 2.00216 -5.96667 5.78641
H 3.29338 -4.89293 5.1232
H 1.54539 -4.48248 4.86517
H -1.52584 -5.24371 8.39064
H -0.44381 -5.28364 6.94568
H -3.00458 -3.66184 7.358
H -1.85706 -3.215 6.07912
$end

$opt
CONSTRAINT
tors           1           2           3           4     -83.473
tors           3           4           5           6    +103.180
tors           4           5           6           7    +179.610
tors           5           6           7           8     -80.118
tors           6           7           8           9    +160.245
tors           7           8           9          10    +179.810
tors           8           9          10          11    +178.476
tors           9          10          11          12     -83.656
tors          11          12          13          14    +154.202
ENDCONSTRAINT
$end

$rem
JOBTYPE                   OPT
METHOD                    B3LYP
DFT_D                     d3_op
BASIS                     STO-3G
GEOM_OPT_MAX_CYCLES       100
GEOM_OPT_TOL_GRADIENT     300
GEOM_OPT_TOL_DISPLACEMENT 1200
GEOM_OPT_TOL_ENERGY       100
SYMMETRY                  False
THRESH                    12
SCF_CONVERGENCE           8
MAX_SUB_FILE_NUM          128
MEM_STATIC                400
MEM_TOTAL                 4000
$end
--------------------------------------------------------------

   15   -1510.1500512853      6.71E-09 Convergence criterion met
 Total energy in the final basis set = -1510.15005129
   14   -1510.2200559216      8.14E-09 Convergence criterion met
 Total energy in the final basis set = -1510.22005592
   15   -1510.2577776995      1.15E-09 Convergence criterion met
 Total energy in the final basis set = -1510.25777770
   14   -1510.2746417195      9.99E-09 Convergence criterion met
 Total energy in the final basis set = -1510.27464172
   14   -1510.2797370999      5.07E-09 Convergence criterion met
 Total energy in the final basis set = -1510.27973710
   14   -1510.2799134612      6.46E-09 Convergence criterion met
 Total energy in the final basis set = -1510.27991346
   13   -1510.2818156833      5.03E-09 Convergence criterion met
 Total energy in the final basis set = -1510.28181568
   13   -1510.2818937584      5.21E-09 Convergence criterion met
   10   -1510.2839079350      8.94E-09 Convergence criterion met
 Total energy in the final basis set = -1510.28390793
   10   -1510.2839177720      7.66E-09 Convergence criterion met
 Total energy in the final basis set = -1510.28391777
    9   -1510.2839234733      6.89E-09 Convergence criterion met
 Total energy in the final basis set = -1510.28392347
    9   -1510.2839277990      5.59E-09 Convergence criterion met
 Total energy in the final basis set = -1510.28392780
    9   -1510.2839301637      3.89E-09 Convergence criterion met
 Total energy in the final basis set = -1510.28393016
    9   -1510.2839332025      3.04E-09 Convergence criterion met
 Total energy in the final basis set = -1510.28393320

             Standard Nuclear Orientation (Angstroms)
    I     Atom           X                Y                Z
 ----------------------------------------------------------------
    1      O      -3.5066357902     1.4905173070     1.8503130194
    2      C      -3.8019657202     1.5658386610     0.6380732037
    3      C      -4.5254017206     0.4899697002    -0.2441800453
    4      C      -3.5219942661    -0.6137244577    -0.8073205460
    5      C      -2.0523919480    -0.3779892189    -0.3052375149
    6      O      -1.7393057964    -1.2991216641     0.7395173150
    7      C      -0.3484124036    -1.0866482628     1.2109879812
    8      C       0.6920787821    -1.7645868373     0.2505068462
    9      O       1.9843763666    -1.0978909791     0.5272243148
   10      C       3.0077051028    -1.6586306836    -0.3077581194
   11      C       4.3551519005    -0.9095535723    -0.0231313697
   12      C       4.5639837800     0.4558043833    -0.8067538482
   13      C       3.3146704329     1.0595229157    -1.5529427935
   14      O       3.1523592247     2.2731916218    -1.8111852170
   15      O      -3.5030486645     2.6897539304    -0.1964381377
   16      O       2.4082588766     0.0309555032    -1.9469715031
   17      O       2.8443135373    -2.6572052592    -1.0414876572
   18      C       1.1838510090     0.6046905771    -2.5601490199
   19      C       4.5163317027    -0.4167642729     1.4811931510
   20      C       6.0591129894    -0.2424929046     1.7687722813
   21      C       6.3725173979     1.0581343162     0.9400212980
   22      C       4.9383030476     1.4263588058     0.3905468258
   23      O       4.0176017015     0.9769123361     1.4617728187
   24      H       5.1632304537    -1.6125404657    -0.2933342595
   25      H       5.3869194457     0.3662764231    -1.5403479885
   26      H       3.9582666098    -1.0178619976     2.2243847034
   27      H       6.2318929592    -0.0853527277     2.8455007533
   28      H       6.6483614485    -1.1128806954     1.4389932799
   29      H       6.7600059844     1.8654062063     1.5814236067
   30      H       7.0921513438     0.8785989870     0.1252786023
   31      H       4.7716849836     2.4959123807     0.1555468343
   32      O      -1.2613583127     0.4978235285    -0.7286776493
   33      C      -2.7271663040     3.6952353831     0.5666266451
   34      C      -5.5196066496    -0.4158631776     0.5978473863
   35      C      -6.4861809464    -1.1537666962    -0.4092567347
   36      C      -5.5121318705    -2.2219853288    -1.0311836510
   37      C      -4.1813561930    -1.9322936939    -0.2282441882
   38      O      -4.6591373773    -1.5075633797     1.1080576273
   39      H      -5.0378321893     1.0101425635    -1.0727157417
   40      H      -3.5070355407    -0.5990108173    -1.9122492525
   41      H      -1.7240277254     3.3069159096     0.8380702148
   42      H      -6.0153744809     0.1078360478     1.4380334041
   43      H      -7.3135581945    -1.6331000374     0.1379470982
   44      H      -6.9098632325    -0.4704246294    -1.1626841120
   45      H      -5.8609935153    -3.2488515983    -0.8389603664
   46      H      -5.3765130831    -2.0926874014    -2.1169674068
   47      H      -3.4861129286    -2.7883590964    -0.1370345089
   48      H      -3.2525108181     3.9979619751     1.4950612065
   49      H      -2.6151436994     4.5683564452    -0.1018353260
   50      H       0.9360881032    -0.0134064443    -3.4435635669
   51      H       1.3781709536     1.6525252176    -2.8627019978
   52      H       0.3411034677     0.5771057008    -1.8303797819
   53      H       0.7535521847    -2.8591224486     0.4341313710
   54      H       0.3923389554    -1.6126335510    -0.8086023454
   55      H      -0.3020796966    -1.5326368220     2.2236705873
   56      H      -0.1187908251    -0.0011811402     1.2712614311
 ----------------------------------------------------------------

    9   -1510.2839340299      1.60E-09 Convergence criterion met
 Total energy in the final basis set = -1510.28393403
 Final energy is   -1510.28393402994
 **  OPTIMIZATION CONVERGED  **

                    Orbital Energies (a.u.)
 --------------------------------------------------------------

 Alpha MOs
 -- Occupied --
-18.947 -18.935 -18.934 -18.924 -18.889 -18.884 -18.884 -18.874
-18.871 -18.862 -10.110 -10.098 -10.098 -10.095 -10.075 -10.069
-10.062 -10.061 -10.061 -10.057 -10.056 -10.045 -10.044 -10.039
-10.037 -10.033 -10.022 -10.021 -10.018 -10.017  -1.023  -1.011
 -1.010  -1.001  -0.971  -0.967  -0.946  -0.935  -0.933  -0.928
 -0.766  -0.760  -0.729  -0.722  -0.714  -0.705  -0.693  -0.662
 -0.653  -0.615  -0.597  -0.581  -0.550  -0.542  -0.539  -0.535
 -0.517  -0.509  -0.488  -0.473  -0.464  -0.461  -0.456  -0.439
 -0.434  -0.433  -0.427  -0.411  -0.410  -0.408  -0.405  -0.399
 -0.398  -0.380  -0.376  -0.368  -0.360  -0.356  -0.353  -0.348
 -0.343  -0.339  -0.332  -0.329  -0.329  -0.327  -0.324  -0.311
 -0.309  -0.308  -0.303  -0.299  -0.293  -0.287  -0.285  -0.280
 -0.274  -0.258  -0.252  -0.248  -0.236  -0.235  -0.231  -0.187
 -0.177  -0.173  -0.166  -0.164  -0.155  -0.151  -0.145  -0.145
 -0.139

          Ground-State Mulliken Net Atomic Charges

     Atom                 Charge (a.u.)
  ----------------------------------------
      1 O                    -0.211084
      2 C                     0.204638
      3 C                    -0.078859
      4 C                    -0.077387
      5 C                     0.211365
      6 O                    -0.160944
      7 C                    -0.048408
      8 C                    -0.047942
      9 O                    -0.174302
     10 C                     0.218462
     11 C                    -0.081635
     12 C                    -0.077033
     13 C                     0.213909
     14 O                    -0.216089
     15 O                    -0.167854
     16 O                    -0.170225
     17 O                    -0.219701
     18 C                    -0.145743
     19 C                     0.025709
     20 C                    -0.143492
     21 C                    -0.144893
     22 C                     0.023939
     23 O                    -0.189401
     24 H                     0.082896
     25 H                     0.085207
     26 H                     0.084895
     27 H                     0.077298
     28 H                     0.073108
     29 H                     0.078025
     30 H                     0.073196
     31 H                     0.089841
     32 O                    -0.218737
     33 C                    -0.128715
     34 C                     0.025506
     35 C                    -0.143618
     36 C                    -0.144586
     37 C                     0.025421
     38 O                    -0.184730
     39 H                     0.086729
     40 H                     0.086038
     41 H                     0.091094
     42 H                     0.086201
     43 H                     0.078568
     44 H                     0.073628
     45 H                     0.078482
     46 H                     0.072999
     47 H                     0.088708
     48 H                     0.089869
     49 H                     0.091318
     50 H                     0.082650
     51 H                     0.098058
     52 H                     0.105738
     53 H                     0.086645
     54 H                     0.087854
     55 H                     0.095309
     56 H                     0.102074
  ----------------------------------------
  Sum of atomic charges =     0.000000

                    Cartesian Multipole Moments
 -----------------------------------------------------------------
    Charge (ESU x 10^10)
                 0.0000
    Dipole Moment (Debye)
         X      -0.5894      Y      -0.4067      Z      -1.0879
       Tot       1.3024
    Quadrupole Moments (Debye-Ang)
        XX    -137.4345     XY      -1.6330     YY    -162.0301
        XZ      11.5079     YZ       0.4741     ZZ    -163.0938

 Total job time:  60.47s(wall), 2876.47s(cpu)
        *  Thank you very much for using Q-Chem.  Have a nice day.  *
