 Q-Chem 5.0, Q-Chem, Inc., Pleasanton, CA (2017)
 Q-Chem 5.0.1 for Intel X86 EM64T Linux

User input:
--------------------------------------------------------------
$molecule
0  1
O -3.94934 -3.66094 2.70899
C -3.26408 -4.56952 2.26188
C -3.36658 -6.02376 2.66595
C -2.61222 -6.45547 3.93418
C -1.9856 -5.35034 4.75524
O -2.75404 -5.09703 5.85559
C -2.22191 -4.06079 6.68763
C -1.14497 -4.6264 7.60764
O -0.30851 -3.56438 8.09274
C 0.69136 -3.94414 8.92652
C 1.55013 -2.78777 9.38037
C 2.56629 -2.28962 8.34232
C 2.34145 -2.75953 6.91917
O 2.80415 -2.23315 5.91748
O -2.42373 -4.30065 1.228
O 2.02197 -4.07349 6.75691
O 0.77261 -5.06041 9.42447
C 2.07258 -4.76278 5.56104
C 0.77478 -1.49696 9.69492
C 1.59184 -0.62312 10.64491
C 2.70091 -0.16253 9.72085
C 2.23516 -0.78226 8.39809
O 0.83013 -0.76852 8.49398
H 2.08281 -3.13271 10.29619
H 3.62488 -2.5069 8.60496
H -0.23838 -1.68597 10.11244
H 0.96005 0.25552 10.90771
H 1.92924 -1.12425 11.57762
H 2.66845 0.94826 9.66281
H 3.72315 -0.5003 9.99729
H 2.66765 -0.21853 7.54232
O -1.02631 -4.68792 4.38237
C -2.22364 -3.0444 0.69522
C -4.80497 -6.45564 3.00258
C -4.95853 -7.96 2.79121
C -4.14824 -8.49003 3.95422
C -3.78088 -7.17796 4.65907
O -4.87955 -6.33736 4.40128
H -3.00572 -6.61097 1.79029
H -1.79616 -7.18364 3.73068
H -1.82463 -2.35888 1.47334
H -5.57606 -5.90478 2.42044
H -6.03065 -8.208 2.96274
H -4.65196 -8.33196 1.78992
H -4.81934 -9.10213 4.59719
H -3.24722 -9.07909 3.67777
H -3.55809 -7.38671 5.72863
H -3.17782 -2.64198 0.29289
H -1.48764 -3.113 -0.13186
H 1.71934 -5.80179 5.72206
H 3.11641 -4.79419 5.18289
H 1.42543 -4.26952 4.80794
H -1.61739 -5.21344 8.42665
H -0.49506 -5.3071 7.0154
H -3.02546 -3.61797 7.31304
H -1.82523 -3.22122 6.07073
$end

$opt
CONSTRAINT
tors           1           2           3           4     -83.473
tors           3           4           5           6    +102.691
tors           4           5           6           7    +179.848
tors           5           6           7           8     -82.299
tors           6           7           8           9    +160.245
tors           7           8           9          10    +179.933
tors           8           9          10          11    +178.900
tors           9          10          11          12     -77.358
tors          11          12          13          14    +160.498
ENDCONSTRAINT
$end

$rem
JOBTYPE                   OPT
METHOD                    B3LYP
DFT_D                     d3_op
BASIS                     STO-3G
GEOM_OPT_MAX_CYCLES       100
GEOM_OPT_TOL_GRADIENT     300
GEOM_OPT_TOL_DISPLACEMENT 1200
GEOM_OPT_TOL_ENERGY       100
SYMMETRY                  False
THRESH                    12
SCF_CONVERGENCE           8
MAX_SUB_FILE_NUM          128
MEM_STATIC                400
MEM_TOTAL                 4000
$end
--------------------------------------------------------------

   15   -1510.1477619819      9.23E-09 Convergence criterion met
 Total energy in the final basis set = -1510.14776198
   14   -1510.2182674916      7.62E-09 Convergence criterion met
 Total energy in the final basis set = -1510.21826749
   15   -1510.2562859022      1.09E-09 Convergence criterion met
 Total energy in the final basis set = -1510.25628590
   14   -1510.2733188430      9.70E-09 Convergence criterion met
 Total energy in the final basis set = -1510.27331884
   14   -1510.2791541073      5.91E-09 Convergence criterion met
 Total energy in the final basis set = -1510.27915411
   13   -1510.2803098586      9.72E-09 Convergence criterion met
 Total energy in the final basis set = -1510.28030986
   13   -1510.2809127387      8.07E-09 Convergence criterion met
 Total energy in the final basis set = -1510.28091274
   13   -1510.2819951064      7.02E-09 Convergence criterion met
   10   -1510.2842009596      9.48E-09 Convergence criterion met
 Total energy in the final basis set = -1510.28420096
    9   -1510.2842055945      5.70E-09 Convergence criterion met
 Total energy in the final basis set = -1510.28420559
    9   -1510.2842085441      5.12E-09 Convergence criterion met
 Total energy in the final basis set = -1510.28420854
    9   -1510.2842115400      5.00E-09 Convergence criterion met
 Total energy in the final basis set = -1510.28421154
    9   -1510.2842138681      3.50E-09 Convergence criterion met
 Total energy in the final basis set = -1510.28421387
    9   -1510.2842149107      3.06E-09 Convergence criterion met
 Total energy in the final basis set = -1510.28421491

             Standard Nuclear Orientation (Angstroms)
    I     Atom           X                Y                Z
 ----------------------------------------------------------------
    1      O      -3.4893181478     1.4481074761     1.9082617232
    2      C      -3.8012610002     1.5466116212     0.7018548633
    3      C      -4.5262801979     0.4827942421    -0.1936654050
    4      C      -3.5198542618    -0.5987222412    -0.7930453157
    5      C      -2.0440175281    -0.3530368613    -0.3151968887
    6      O      -1.7039791580    -1.2796655980     0.7162050116
    7      C      -0.3088289200    -1.0535528076     1.1683198532
    8      C       0.7190686926    -1.7576791470     0.2135955610
    9      O       2.0144943020    -1.0846577898     0.4571617978
   10      C       3.0271430616    -1.6657698208    -0.3768247937
   11      C       4.3789715543    -0.9152076942    -0.1177788270
   12      C       4.5200844019     0.5090665229    -0.8063489182
   13      C       3.2722688285     1.0890031254    -1.5713735638
   14      O       3.1078747172     2.2972213535    -1.8532816303
   15      O      -3.5220832985     2.6906267774    -0.1119743405
   16      O       2.3840842209     0.0476349280    -1.9729050044
   17      O       2.8513370310    -2.6730424393    -1.0955512813
   18      C       1.1588160941     0.6033608655    -2.6000161104
   19      C       4.5808251706    -0.5228656092     1.4113852145
   20      C       6.1194925689    -0.2580268831     1.6536511025
   21      C       6.3004529565     1.1378454683     0.9490811611
   22      C       4.8281464448     1.4229782941     0.4549586399
   23      O       3.9798863591     0.8259705412     1.5116452332
   24      H       5.1844920547    -1.5838775039    -0.4694414827
   25      H       5.3685712223     0.5116419815    -1.5161048048
   26      H       4.1010332026    -1.2151607530     2.1295851071
   27      H       6.3326721919    -0.1963129524     2.7327629703
   28      H       6.7528626496    -1.0442210346     1.2129441862
   29      H       6.6255948537     1.9124111012     1.6616694814
   30      H       7.0172683130     1.1024196549     0.1131319801
   31      H       4.5714637901     2.4892936185     0.3002089669
   32      O      -1.2681758395     0.5328399566    -0.7461099822
   33      C      -2.7466497025     3.6866036277     0.6638367918
   34      C      -5.4984721006    -0.4504469548     0.6438727328
   35      C      -6.4680038154    -1.1834971659    -0.3642070973
   36      C      -5.4896621424    -2.2318971814    -1.0127591461
   37      C      -4.1517438507    -1.9353013209    -0.2245644830
   38      O      -4.6171234316    -1.5388849929     1.1246802177
   39      H      -5.0554530836     1.0147695859    -1.0039227420
   40      H      -3.5259843611    -0.5659387721    -1.8976464744
   41      H      -1.7413828856     3.2976418439     0.9262400140
   42      H      -5.9906983190     0.0521391060     1.4989233878
   43      H      -7.2846228329    -1.6797744622     0.1839596735
   44      H      -6.9061742363    -0.4930728467    -1.1027199840
   45      H      -5.8232194039    -3.2651395987    -0.8275092923
   46      H      -5.3711131635    -2.0887121349    -2.0988049002
   47      H      -3.4429079401    -2.7823453335    -0.1568392033
   48      H      -3.2698327914     3.9736806317     1.5985029977
   49      H      -2.6397556665     4.5702090248     0.0084337228
   50      H       0.9144169525    -0.0364839924    -3.4686480558
   51      H       1.3491671332     1.6444544141    -2.9273530219
   52      H       0.3154621774     0.5901904379    -1.8700180641
   53      H       0.7819080220    -2.8471001522     0.4250702870
   54      H       0.4063133996    -1.6337795041    -0.8456562854
   55      H      -0.2500948069    -1.4718344533     2.1921564320
   56      H      -0.0796829485     0.0332019248     1.1943639322
 ----------------------------------------------------------------

    9   -1510.2842147842      2.55E-09 Convergence criterion met
 Total energy in the final basis set = -1510.28421478
 Final energy is   -1510.28421478422
 **  OPTIMIZATION CONVERGED  **

                    Orbital Energies (a.u.)
 --------------------------------------------------------------

 Alpha MOs
 -- Occupied --
-18.947 -18.935 -18.934 -18.923 -18.889 -18.885 -18.884 -18.875
-18.870 -18.862 -10.110 -10.098 -10.098 -10.094 -10.074 -10.069
-10.062 -10.061 -10.061 -10.058 -10.056 -10.045 -10.043 -10.039
-10.037 -10.033 -10.022 -10.021 -10.019 -10.017  -1.022  -1.011
 -1.010  -1.000  -0.971  -0.968  -0.946  -0.935  -0.933  -0.928
 -0.766  -0.760  -0.729  -0.722  -0.714  -0.705  -0.693  -0.662
 -0.653  -0.615  -0.597  -0.581  -0.549  -0.542  -0.539  -0.535
 -0.517  -0.509  -0.488  -0.473  -0.464  -0.461  -0.456  -0.439
 -0.434  -0.432  -0.426  -0.411  -0.410  -0.408  -0.405  -0.400
 -0.398  -0.380  -0.376  -0.368  -0.360  -0.356  -0.353  -0.348
 -0.343  -0.339  -0.332  -0.331  -0.328  -0.327  -0.323  -0.311
 -0.309  -0.308  -0.303  -0.299  -0.292  -0.287  -0.284  -0.280
 -0.274  -0.258  -0.252  -0.247  -0.236  -0.235  -0.232  -0.187
 -0.177  -0.174  -0.165  -0.163  -0.154  -0.151  -0.145  -0.144
 -0.140

          Ground-State Mulliken Net Atomic Charges

     Atom                 Charge (a.u.)
  ----------------------------------------
      1 O                    -0.210891
      2 C                     0.204525
      3 C                    -0.078791
      4 C                    -0.077417
      5 C                     0.211220
      6 O                    -0.161052
      7 C                    -0.048590
      8 C                    -0.047618
      9 O                    -0.173543
     10 C                     0.218710
     11 C                    -0.081220
     12 C                    -0.077570
     13 C                     0.213553
     14 O                    -0.216876
     15 O                    -0.167834
     16 O                    -0.170124
     17 O                    -0.219948
     18 C                    -0.145533
     19 C                     0.026371
     20 C                    -0.144029
     21 C                    -0.144289
     22 C                     0.024495
     23 O                    -0.188606
     24 H                     0.083185
     25 H                     0.085041
     26 H                     0.083848
     27 H                     0.077330
     28 H                     0.073274
     29 H                     0.077978
     30 H                     0.073276
     31 H                     0.089176
     32 O                    -0.218742
     33 C                    -0.128624
     34 C                     0.025544
     35 C                    -0.143682
     36 C                    -0.144542
     37 C                     0.025472
     38 O                    -0.184621
     39 H                     0.086768
     40 H                     0.086036
     41 H                     0.090948
     42 H                     0.086174
     43 H                     0.078571
     44 H                     0.073605
     45 H                     0.078487
     46 H                     0.072990
     47 H                     0.088712
     48 H                     0.089715
     49 H                     0.091370
     50 H                     0.082778
     51 H                     0.097787
     52 H                     0.105527
     53 H                     0.086419
     54 H                     0.087290
     55 H                     0.095477
     56 H                     0.102487
  ----------------------------------------
  Sum of atomic charges =     0.000000

                    Cartesian Multipole Moments
 -----------------------------------------------------------------
    Charge (ESU x 10^10)
                 0.0000
    Dipole Moment (Debye)
         X      -0.5743      Y      -0.2732      Z      -1.0691
       Tot       1.2440
    Quadrupole Moments (Debye-Ang)
        XX    -136.9971     XY      -1.3420     YY    -161.9709
        XZ      11.3030     YZ       0.9990     ZZ    -163.5415

 Total job time:  65.80s(wall), 3135.19s(cpu)
        *  Thank you very much for using Q-Chem.  Have a nice day.  *
