 Q-Chem 5.0, Q-Chem, Inc., Pleasanton, CA (2017)
 Q-Chem 5.0.1 for Intel X86 EM64T Linux

User input:
--------------------------------------------------------------
$molecule
0  1
O -3.4893181478 1.4481074761 1.9082617232
C -3.8012610002 1.5466116212 0.7018548633
C -4.5262801979 0.4827942421 -0.193665405
C -3.5198542618 -0.5987222412 -0.7930453157
C -2.0440175281 -0.3530368613 -0.3151968887
O -1.703979158 -1.279665598 0.7162050116
C -0.30882892 -1.0535528076 1.1683198532
C 0.7190686926 -1.757679147 0.213595561
O 2.014494302 -1.0846577898 0.4571617978
C 3.0271430616 -1.6657698208 -0.3768247937
C 4.3789715543 -0.9152076942 -0.117778827
C 4.5200844019 0.5090665229 -0.8063489182
C 3.2722688285 1.0890031254 -1.5713735638
O 3.1078747172 2.2972213535 -1.8532816303
O -3.5220832985 2.6906267774 -0.1119743405
O 2.3840842209 0.047634928 -1.9729050044
O 2.851337031 -2.6730424393 -1.0955512813
C 1.1588160941 0.6033608655 -2.6000161104
C 4.5808251706 -0.5228656092 1.4113852145
C 6.1194925689 -0.2580268831 1.6536511025
C 6.3004529565 1.1378454683 0.9490811611
C 4.8281464448 1.4229782941 0.4549586399
O 3.9798863591 0.8259705412 1.5116452332
H 5.1844920547 -1.5838775039 -0.4694414827
H 5.3685712223 0.5116419815 -1.5161048048
H 4.1010332026 -1.215160753 2.1295851071
H 6.3326721919 -0.1963129524 2.7327629703
H 6.7528626496 -1.0442210346 1.2129441862
H 6.6255948537 1.9124111012 1.6616694814
H 7.017268313 1.1024196549 0.1131319801
H 4.5714637901 2.4892936185 0.3002089669
O -1.2681758395 0.5328399566 -0.7461099822
C -2.7466497025 3.6866036277 0.6638367918
C -5.4984721006 -0.4504469548 0.6438727328
C -6.4680038154 -1.1834971659 -0.3642070973
C -5.4896621424 -2.2318971814 -1.0127591461
C -4.1517438507 -1.9353013209 -0.224564483
O -4.6171234316 -1.5388849929 1.1246802177
H -5.0554530836 1.0147695859 -1.003922742
H -3.5259843611 -0.5659387721 -1.8976464744
H -1.7413828856 3.2976418439 0.926240014
H -5.990698319 0.052139106 1.4989233878
H -7.2846228329 -1.6797744622 0.1839596735
H -6.9061742363 -0.4930728467 -1.102719984
H -5.8232194039 -3.2651395987 -0.8275092923
H -5.3711131635 -2.0887121349 -2.0988049002
H -3.4429079401 -2.7823453335 -0.1568392033
H -3.2698327914 3.9736806317 1.5985029977
H -2.6397556665 4.5702090248 0.0084337228
H 0.9144169525 -0.0364839924 -3.4686480558
H 1.3491671332 1.6444544141 -2.9273530219
H 0.3154621774 0.5901904379 -1.8700180641
H 0.781908022 -2.8471001522 0.425070287
H 0.4063133996 -1.6337795041 -0.8456562854
H -0.2500948069 -1.4718344533 2.192156432
H -0.0796829485 0.0332019248 1.1943639322
$end

$rem
JOBTYPE                   OPT
METHOD                    B3LYP
DFT_D                     d3_op
BASIS                     STO-3G
GEOM_OPT_MAX_CYCLES       100
GEOM_OPT_TOL_GRADIENT     300
GEOM_OPT_TOL_DISPLACEMENT 1200
GEOM_OPT_TOL_ENERGY       100
SYMMETRY                  False
THRESH                    12
SCF_CONVERGENCE           8
MAX_SUB_FILE_NUM          128
MEM_STATIC                400
MEM_TOTAL                 4000
$end
--------------------------------------------------------------

   16   -1510.2842555891      5.12E-09 Convergence criterion met
 Total energy in the final basis set = -1510.28425559
   15   -1510.2484708293      6.46E-09 Convergence criterion met
 Total energy in the final basis set = -1510.24847083
   14   -1510.2846641148      5.23E-09 Convergence criterion met
 Total energy in the final basis set = -1510.28466411
   13   -1510.2854482697      7.73E-09 Convergence criterion met
 Total energy in the final basis set = -1510.28544827
   13   -1510.2862730039      5.03E-09 Convergence criterion met
 Total energy in the final basis set = -1510.28627300
   14   -1510.2870325206      4.56E-09 Convergence criterion met
 Total energy in the final basis set = -1510.28703252
   13   -1510.2875738377      5.28E-09 Convergence criterion met
 Total energy in the final basis set = -1510.28757384
   13   -1510.2880716788      5.07E-09 Convergence criterion met
   12   -1510.2998680023      3.99E-09 Convergence criterion met
 Total energy in the final basis set = -1510.29986800
   11   -1510.2998718919      8.74E-09 Convergence criterion met
 Total energy in the final basis set = -1510.29987189
   12   -1510.2998700523      3.71E-09 Convergence criterion met
 Total energy in the final basis set = -1510.29987005
   11   -1510.2998767131      4.63E-09 Convergence criterion met
 Total energy in the final basis set = -1510.29987671
   11   -1510.2998775707      3.35E-09 Convergence criterion met
 Total energy in the final basis set = -1510.29987757
    9   -1510.2998767852      6.07E-09 Convergence criterion met
 Total energy in the final basis set = -1510.29987679

             Standard Nuclear Orientation (Angstroms)
    I     Atom           X                Y                Z
 ----------------------------------------------------------------
    1      O      -3.3087371237     2.0613791895     1.5715664407
    2      C      -3.1710660322     1.5865551543     0.4244895711
    3      C      -4.1212047762     0.5844830986    -0.3231720119
    4      C      -3.3619076302    -0.6779880806    -0.9152654678
    5      C      -1.8347618721    -0.6871196048    -0.5637211548
    6      O      -1.7027065522    -0.6796004853     0.8581597339
    7      C      -0.2792705850    -0.5930897854     1.2661274698
    8      C       0.5070995319    -1.9482696843     1.0857366164
    9      O       1.9541910080    -1.6236584743     1.1492750646
   10      C       2.5195214837    -1.6259686355    -0.1666420077
   11      C       3.9311691933    -0.9403866960    -0.1303093873
   12      C       3.8456798518     0.5935821902    -0.5644272590
   13      C       2.3856104226     1.0403794677    -0.9195529038
   14      O       1.4898705606     1.3745197586    -0.1033983965
   15      O      -2.0956407310     1.8948463404    -0.4685503691
   16      O       2.2215587544     0.9933997197    -2.3262054877
   17      O       1.9427135178    -2.0781037749    -1.1811257648
   18      C       0.8100435870     1.2720787540    -2.7041069659
   19      C       4.5224805924    -0.7973239360     1.3329800153
   20      C       6.0480582399    -0.3988689763     1.2186977174
   21      C       5.9393046489     1.1188200497     0.8166810271
   22      C       4.3730161062     1.3039987694     0.7530064183
   23      O       3.8748163271     0.4340812927     1.8417047472
   24      H       4.6046488990    -1.4967183289    -0.8064539376
   25      H       4.4914203923     0.7914604403    -1.4378766698
   26      H       4.3037815269    -1.6532173089     1.9993390756
   27      H       6.5529497371    -0.5251835517     2.1895843364
   28      H       6.5780671805    -1.0017057971     0.4640789872
   29      H       6.3715317575     1.7733190915     1.5901961931
   30      H       6.4247146372     1.3418295305    -0.1469333425
   31      H       4.0079789372     2.3401609254     0.8900085888
   32      O      -0.8750536707    -0.7339863585    -1.3675300531
   33      C      -1.1263870028     2.8275831006     0.1573105995
   34      C      -5.1531180716    -0.1056297215     0.6599884253
   35      C      -6.3164057672    -0.7297134650    -0.2045775409
   36      C      -5.5851764806    -1.9703988319    -0.8410781928
   37      C      -4.1504485674    -1.8519296982    -0.1877018102
   38      O      -4.4219613378    -1.2959556925     1.1560876672
   39      H      -4.6377120376     1.1389084529    -1.1287167105
   40      H      -3.4559294087    -0.7338332434    -2.0136390632
   41      H      -1.3726780671     2.9569424813     1.2295079695
   42      H      -5.4655885342     0.5365548553     1.5063965278
   43      H      -7.1508474254    -1.0436267264     0.4426977416
   44      H      -6.7013745883    -0.0265817075    -0.9604645385
   45      H      -6.0636469194    -2.9175089862    -0.5455391780
   46      H      -5.5456914826    -1.9230943886    -1.9411697340
   47      H      -3.5896500776    -2.8034829624    -0.1089859438
   48      H      -1.1881439511     3.8083448188    -0.3547544989
   49      H      -0.1092708817     2.3928832525     0.0322859623
   50      H       0.7740038994     1.1675551000    -3.8033736055
   51      H       0.5168785449     2.3032401638    -2.4226198120
   52      H       0.1182715938     0.5374976738    -2.2249308052
   53      H       0.2794793639    -2.6677515272     1.8970953390
   54      H       0.2821310311    -2.3950781132     0.0934756773
   55      H      -0.3038449841    -0.3060941145     2.3354828159
   56      H       0.2652280139     0.1948532450     0.6911917731
 ----------------------------------------------------------------

    9   -1510.2998694282      7.58E-09 Convergence criterion met
 Total energy in the final basis set = -1510.29986943
 Final energy is   -1510.29986942818
 **  OPTIMIZATION CONVERGED  **

                    Orbital Energies (a.u.)
 --------------------------------------------------------------

 Alpha MOs
 -- Occupied --
-18.944 -18.933 -18.931 -18.924 -18.888 -18.885 -18.884 -18.877
-18.875 -18.871 -10.110 -10.102 -10.099 -10.095 -10.061 -10.060
-10.060 -10.059 -10.055 -10.053 -10.047 -10.041 -10.040 -10.037
-10.036 -10.035 -10.022 -10.020 -10.019 -10.018  -1.019  -1.013
 -1.009  -1.001  -0.970  -0.967  -0.942  -0.937  -0.933  -0.930
 -0.765  -0.761  -0.727  -0.722  -0.711  -0.704  -0.688  -0.659
 -0.649  -0.612  -0.596  -0.578  -0.548  -0.544  -0.538  -0.535
 -0.514  -0.507  -0.481  -0.477  -0.463  -0.460  -0.452  -0.441
 -0.433  -0.432  -0.427  -0.418  -0.412  -0.406  -0.401  -0.397
 -0.380  -0.379  -0.369  -0.367  -0.363  -0.359  -0.352  -0.349
 -0.344  -0.337  -0.332  -0.329  -0.326  -0.323  -0.318  -0.311
 -0.308  -0.306  -0.303  -0.301  -0.292  -0.286  -0.283  -0.280
 -0.272  -0.259  -0.245  -0.241  -0.237  -0.234  -0.232  -0.191
 -0.177  -0.170  -0.161  -0.160  -0.156  -0.153  -0.148  -0.144
 -0.141

          Ground-State Mulliken Net Atomic Charges

     Atom                 Charge (a.u.)
  ----------------------------------------
      1 O                    -0.212274
      2 C                     0.214511
      3 C                    -0.077794
      4 C                    -0.078386
      5 C                     0.220532
      6 O                    -0.167324
      7 C                    -0.061580
      8 C                    -0.058237
      9 O                    -0.169075
     10 C                     0.205002
     11 C                    -0.077306
     12 C                    -0.078207
     13 C                     0.218327
     14 O                    -0.221620
     15 O                    -0.178996
     16 O                    -0.161027
     17 O                    -0.207638
     18 C                    -0.143799
     19 C                     0.026183
     20 C                    -0.144416
     21 C                    -0.143783
     22 C                     0.025480
     23 O                    -0.184566
     24 H                     0.086228
     25 H                     0.087902
     26 H                     0.089249
     27 H                     0.078338
     28 H                     0.073455
     29 H                     0.078447
     30 H                     0.073607
     31 H                     0.084811
     32 O                    -0.220229
     33 C                    -0.151975
     34 C                     0.024409
     35 C                    -0.143770
     36 C                    -0.144098
     37 C                     0.026035
     38 O                    -0.185305
     39 H                     0.083784
     40 H                     0.084597
     41 H                     0.095243
     42 H                     0.090643
     43 H                     0.077915
     44 H                     0.072785
     45 H                     0.077746
     46 H                     0.073325
     47 H                     0.082115
     48 H                     0.075090
     49 H                     0.109375
     50 H                     0.087546
     51 H                     0.081675
     52 H                     0.119765
     53 H                     0.085569
     54 H                     0.102111
     55 H                     0.090611
     56 H                     0.108993
  ----------------------------------------
  Sum of atomic charges =     0.000000

                    Cartesian Multipole Moments
 -----------------------------------------------------------------
    Charge (ESU x 10^10)
                 0.0000
    Dipole Moment (Debye)
         X       1.0690      Y       0.1559      Z      -1.9369
       Tot       2.2178
    Quadrupole Moments (Debye-Ang)
        XX    -137.0314     XY       3.0924     YY    -155.9115
        XZ       8.9840     YZ      -5.5757     ZZ    -167.1721

 Total job time:  218.74s(wall), 10366.58s(cpu)
        *  Thank you very much for using Q-Chem.  Have a nice day.  *
