 Q-Chem 5.0, Q-Chem, Inc., Pleasanton, CA (2017)
 Q-Chem 5.0.1 for Intel X86 EM64T Linux

User input:
--------------------------------------------------------------
$molecule
0  1
O -3.94934 -3.66094 2.70899
C -3.26408 -4.56952 2.26188
C -3.36658 -6.02376 2.66595
C -2.1637 -6.92746 2.34928
C -0.92277 -6.23941 1.8251
O -1.20206 -4.9334 1.5392
C -0.03219 -4.11264 1.45549
C 1.02556 -4.79164 0.59163
O 0.62765 -6.14068 0.30071
C 1.24981 -6.71676 -0.75768
C 2.74792 -6.52764 -0.73386
C 3.33461 -5.84907 -1.9803
C 2.33798 -5.15007 -2.88298
O 2.53157 -4.09528 -3.46992
O -3.30153 -4.5107 0.88147
O 1.28964 -5.89792 -3.31934
O 0.70549 -7.5974 -1.40728
C 0.33088 -5.46595 -4.21287
C 3.69159 -5.92011 0.33722
C 5.11601 -6.49241 0.23196
C 5.63408 -5.7614 -0.98762
C 4.40578 -4.93534 -1.35969
O 3.87168 -4.59169 -0.10464
H 3.06068 -7.59687 -0.72574
H 3.79391 -6.60819 -2.65373
H 3.35174 -6.10684 1.37898
H 5.70573 -6.15573 1.11438
H 5.15288 -7.60148 0.17236
H 6.44223 -5.06561 -0.66774
H 6.00636 -6.41065 -1.80935
H 4.6965 -4.09085 -2.02107
O 0.09137 -6.53097 2.47695
C -3.40002 -3.37146 0.09865
C -3.4261 -6.18523 4.20413
C -4.14705 -7.48326 4.55676
C -3.1198 -8.50013 4.1132
C -1.95521 -7.57121 3.7442
O -2.10587 -6.46648 4.59716
H -4.3268 -6.40607 2.24887
H -2.42358 -7.68852 1.58167
H -3.4003 -2.4388 0.70269
H -3.91551 -5.33352 4.72533
H -4.22118 -7.51424 5.6679
H -5.16147 -7.61213 4.12188
H -2.86543 -9.14324 4.98488
H -3.41843 -9.13038 3.24761
H -1.00193 -8.13599 3.83334
H -4.33265 -3.41813 -0.50054
H -2.53274 -3.3327 -0.59244
H -0.40309 -6.2806 -4.37977
H 0.80071 -5.2031 -5.18469
H -0.20287 -4.58272 -3.80084
H 1.05151 -4.21784 -0.36362
H 1.92709 -4.62488 1.17595
H 0.35551 -4.01105 2.49715
H -0.26997 -3.08193 1.11587
$end

$opt
CONSTRAINT
tors           1           2           3           4    -161.053
tors           3           4           5           6      -9.474
tors           4           5           6           7    +161.053
tors           5           6           7           8     +47.368
tors           6           7           8           9      -9.474
tors           7           8           9          10    +161.053
tors           8           9          10          11     +47.368
tors           9          10          11          12    -123.158
tors          11          12          13          14    +142.105
ENDCONSTRAINT
$end

$rem
JOBTYPE                   OPT
METHOD                    B3LYP
DFT_D                     d3_op
BASIS                     STO-3G
GEOM_OPT_MAX_CYCLES       100
GEOM_OPT_TOL_GRADIENT     300
GEOM_OPT_TOL_DISPLACEMENT 1200
GEOM_OPT_TOL_ENERGY       100
SYMMETRY                  False
THRESH                    12
SCF_CONVERGENCE           8
MAX_SUB_FILE_NUM          128
MEM_STATIC                400
MEM_TOTAL                 4000
$end
--------------------------------------------------------------

   16   -1510.0117895364      4.64E-09 Convergence criterion met
 Total energy in the final basis set = -1510.01178954
   14   -1510.0964391452      8.20E-09 Convergence criterion met
 Total energy in the final basis set = -1510.09643915
   14   -1510.1461221209      8.30E-09 Convergence criterion met
 Total energy in the final basis set = -1510.14612212
   15   -1510.1762826866      2.17E-09 Convergence criterion met
 Total energy in the final basis set = -1510.17628269
   14   -1510.1945111891      4.79E-09 Convergence criterion met
 Total energy in the final basis set = -1510.19451119
   14   -1510.2059232996      4.70E-09 Convergence criterion met
 Total energy in the final basis set = -1510.20592330
    2   -1510.2059232996      2.57E-09 Convergence criterion met
 Total energy in the final basis set = -1510.20592330
   13   -1510.2132756970      7.77E-09 Convergence criterion met
   11   -1510.2277656501      8.53E-09 Convergence criterion met
 Total energy in the final basis set = -1510.22776565
   11   -1510.2277894062      4.24E-09 Convergence criterion met
 Total energy in the final basis set = -1510.22778941
   11   -1510.2278113998      4.78E-09 Convergence criterion met
 Total energy in the final basis set = -1510.22781140
   10   -1510.2278158044      8.04E-09 Convergence criterion met
 Total energy in the final basis set = -1510.22781580
   10   -1510.2278127784      5.58E-09 Convergence criterion met
 Total energy in the final basis set = -1510.22781278
    9   -1510.2278139859      8.09E-09 Convergence criterion met
 Total energy in the final basis set = -1510.22781399

             Standard Nuclear Orientation (Angstroms)
    I     Atom           X                Y                Z
 ----------------------------------------------------------------
    1      O      -4.1502474977     2.5272444651     1.2007396238
    2      C      -3.7373761423     1.8483489524     0.2345045825
    3      C      -4.3630229474     0.5202748106    -0.3135697185
    4      C      -3.4433611538    -0.3856825226    -1.2135469078
    5      C      -1.9423920444    -0.5288297908    -0.7072636245
    6      O      -1.7175485568     0.3980934343     0.3597709113
    7      C      -0.5576896036     0.1428063888     1.2464252567
    8      C       0.8948255152    -0.2048306747     0.6783612641
    9      O       0.9087366184    -0.4619611722    -0.7789114239
   10      C       2.2237180181    -0.3459487673    -1.3674092104
   11      C       3.5074897615    -1.0384237091    -0.7207585997
   12      C       4.6900457586    -0.0362186440    -0.3804447571
   13      C       4.2414203307     1.4029394379     0.0912951182
   14      O       4.7930927246     2.0911949147     0.9770311091
   15      O      -2.8365004851     2.3555894671    -0.7669496316
   16      O       3.0370770822     1.7982736279    -0.5721875608
   17      O       2.2688487198     0.0347900462    -2.5588423059
   18      C       2.5875648353     3.1293768889    -0.1037600063
   19      C       3.5156924395    -1.9758681759     0.5631490558
   20      C       4.6717169670    -3.0322383110     0.3512885310
   21      C       5.9448362109    -2.1231843782     0.5178585063
   22      C       5.2882415401    -0.7430820384     0.9086102872
   23      O       4.0527907471    -1.1189140098     1.6462483797
   24      H       3.8560710877    -1.6561442722    -1.5698425456
   25      H       5.4122713681     0.0535766112    -1.2118563458
   26      H       2.5467162845    -2.4256820380     0.8451918207
   27      H       4.6253051051    -3.8042108866     1.1365062607
   28      H       4.6186305916    -3.5247991652    -0.6326385970
   29      H       6.6012981081    -2.4842778653     1.3250835945
   30      H       6.5358013971    -2.0472811948    -0.4091079569
   31      H       5.9116628051    -0.0678919778     1.5267662888
   32      O      -1.1946311647    -1.4710493693    -1.0374565405
   33      C      -2.2660979372     3.6497909907    -0.3369128244
   34      C      -4.9489095226    -0.5345964662     0.7221754218
   35      C      -6.2458643450    -1.1256353175     0.0491586450
   36      C      -5.6016059564    -1.8884581581    -1.1704513716
   37      C      -4.0613330928    -1.8018080525    -0.8245861087
   38      O      -4.0212007753    -1.6907508601     0.6600167885
   39      H      -5.2010946441     0.8683958719    -0.9490281534
   40      H      -3.4902003963    -0.1373291843    -2.2883598805
   41      H      -2.8454402351     4.0474418471     0.5211300001
   42      H      -5.0577388435    -0.1654132989     1.7604663098
   43      H      -6.7489904174    -1.8249621378     0.7365084246
   44      H      -6.9626936879    -0.3466757815    -0.2563084656
   45      H      -5.9309713304    -2.9383133457    -1.2169568191
   46      H      -5.8276558805    -1.4065354553    -2.1354010494
   47      H      -3.4474580566    -2.6584580101    -1.1646916580
   48      H      -2.3125013688     4.3506352352    -1.1923475751
   49      H      -1.2074237467     3.5090931456    -0.0378130736
   50      H       1.5961541753     3.2911330697    -0.5659494054
   51      H       3.2848291171     3.9275304553    -0.4302923161
   52      H       2.5004290650     3.1656862565     1.0013076986
   53      H       1.5772493353     0.6385325067     0.9132195539
   54      H       1.2449828506    -1.0887478362     1.2459510317
   55      H      -0.8440201881    -0.6796008325     1.9393267057
   56      H      -0.4820331482     1.0741577636     1.8435977435
 ----------------------------------------------------------------

    9   -1510.2278147384      5.92E-09 Convergence criterion met
 Total energy in the final basis set = -1510.22781474
 Final energy is   -1510.22781473844
 **  OPTIMIZATION CONVERGED  **

                    Orbital Energies (a.u.)
 --------------------------------------------------------------

 Alpha MOs
 -- Occupied --
-18.950 -18.932 -18.922 -18.920 -18.890 -18.884 -18.883 -18.872
-18.867 -18.863 -10.108 -10.097 -10.096 -10.094 -10.075 -10.074
-10.070 -10.064 -10.061 -10.057 -10.055 -10.054 -10.043 -10.034
-10.034 -10.033 -10.024 -10.022 -10.019 -10.018  -1.023  -1.009
 -1.000  -0.991  -0.974  -0.967  -0.946  -0.934  -0.927  -0.925
 -0.765  -0.761  -0.726  -0.724  -0.706  -0.705  -0.698  -0.671
 -0.655  -0.610  -0.600  -0.586  -0.550  -0.542  -0.541  -0.533
 -0.517  -0.504  -0.487  -0.479  -0.470  -0.457  -0.446  -0.444
 -0.437  -0.434  -0.428  -0.422  -0.412  -0.406  -0.404  -0.399
 -0.394  -0.387  -0.377  -0.371  -0.362  -0.359  -0.354  -0.344
 -0.340  -0.338  -0.333  -0.328  -0.327  -0.316  -0.314  -0.313
 -0.309  -0.308  -0.305  -0.304  -0.296  -0.293  -0.288  -0.277
 -0.267  -0.254  -0.243  -0.239  -0.236  -0.232  -0.227  -0.189
 -0.175  -0.163  -0.161  -0.160  -0.153  -0.151  -0.145  -0.143
 -0.128

          Ground-State Mulliken Net Atomic Charges

     Atom                 Charge (a.u.)
  ----------------------------------------
      1 O                    -0.222670
      2 C                     0.220355
      3 C                    -0.079283
      4 C                    -0.072373
      5 C                     0.222746
      6 O                    -0.168516
      7 C                    -0.046761
      8 C                    -0.049774
      9 O                    -0.163436
     10 C                     0.217113
     11 C                    -0.088568
     12 C                    -0.077721
     13 C                     0.210175
     14 O                    -0.210753
     15 O                    -0.170607
     16 O                    -0.165826
     17 O                    -0.202944
     18 C                    -0.127295
     19 C                     0.019670
     20 C                    -0.141469
     21 C                    -0.145521
     22 C                     0.022767
     23 O                    -0.195932
     24 H                     0.086024
     25 H                     0.089350
     26 H                     0.083650
     27 H                     0.078233
     28 H                     0.075605
     29 H                     0.079168
     30 H                     0.074980
     31 H                     0.090843
     32 O                    -0.199524
     33 C                    -0.134351
     34 C                     0.022946
     35 C                    -0.140460
     36 C                    -0.146527
     37 C                     0.022055
     38 O                    -0.195258
     39 H                     0.082585
     40 H                     0.088036
     41 H                     0.099009
     42 H                     0.087882
     43 H                     0.077378
     44 H                     0.073640
     45 H                     0.078382
     46 H                     0.073975
     47 H                     0.088348
     48 H                     0.084389
     49 H                     0.078324
     50 H                     0.095684
     51 H                     0.092279
     52 H                     0.090919
     53 H                     0.082529
     54 H                     0.082854
     55 H                     0.085497
     56 H                     0.088177
  ----------------------------------------
  Sum of atomic charges =    -0.000000

                    Cartesian Multipole Moments
 -----------------------------------------------------------------
    Charge (ESU x 10^10)
                 0.0000
    Dipole Moment (Debye)
         X       0.4214      Y      -0.0788      Z       0.1741
       Tot       0.4627
    Quadrupole Moments (Debye-Ang)
        XX    -146.1257     XY      -3.1893     YY    -153.5908
        XZ       4.5335     YZ      -2.1493     ZZ    -168.6955

 Total job time:  76.88s(wall), 3660.22s(cpu)
        *  Thank you very much for using Q-Chem.  Have a nice day.  *
