 Q-Chem 5.0, Q-Chem, Inc., Pleasanton, CA (2017)
 Q-Chem 5.0.1 for Intel X86 EM64T Linux

User input:
--------------------------------------------------------------
$molecule
0  1
O -4.1502474977 2.5272444651 1.2007396238
C -3.7373761423 1.8483489524 0.2345045825
C -4.3630229474 0.5202748106 -0.3135697185
C -3.4433611538 -0.3856825226 -1.2135469078
C -1.9423920444 -0.5288297908 -0.7072636245
O -1.7175485568 0.3980934343 0.3597709113
C -0.5576896036 0.1428063888 1.2464252567
C 0.8948255152 -0.2048306747 0.6783612641
O 0.9087366184 -0.4619611722 -0.7789114239
C 2.2237180181 -0.3459487673 -1.3674092104
C 3.5074897615 -1.0384237091 -0.7207585997
C 4.6900457586 -0.036218644 -0.3804447571
C 4.2414203307 1.4029394379 0.0912951182
O 4.7930927246 2.0911949147 0.9770311091
O -2.8365004851 2.3555894671 -0.7669496316
O 3.0370770822 1.7982736279 -0.5721875608
O 2.2688487198 0.0347900462 -2.5588423059
C 2.5875648353 3.1293768889 -0.1037600063
C 3.5156924395 -1.9758681759 0.5631490558
C 4.671716967 -3.032238311 0.351288531
C 5.9448362109 -2.1231843782 0.5178585063
C 5.2882415401 -0.7430820384 0.9086102872
O 4.0527907471 -1.1189140098 1.6462483797
H 3.8560710877 -1.6561442722 -1.5698425456
H 5.4122713681 0.0535766112 -1.2118563458
H 2.5467162845 -2.425682038 0.8451918207
H 4.6253051051 -3.8042108866 1.1365062607
H 4.6186305916 -3.5247991652 -0.632638597
H 6.6012981081 -2.4842778653 1.3250835945
H 6.5358013971 -2.0472811948 -0.4091079569
H 5.9116628051 -0.0678919778 1.5267662888
O -1.1946311647 -1.4710493693 -1.0374565405
C -2.2660979372 3.6497909907 -0.3369128244
C -4.9489095226 -0.5345964662 0.7221754218
C -6.245864345 -1.1256353175 0.049158645
C -5.6016059564 -1.8884581581 -1.1704513716
C -4.0613330928 -1.8018080525 -0.8245861087
O -4.0212007753 -1.6907508601 0.6600167885
H -5.2010946441 0.8683958719 -0.9490281534
H -3.4902003963 -0.1373291843 -2.2883598805
H -2.8454402351 4.0474418471 0.5211300001
H -5.0577388435 -0.1654132989 1.7604663098
H -6.7489904174 -1.8249621378 0.7365084246
H -6.9626936879 -0.3466757815 -0.2563084656
H -5.9309713304 -2.9383133457 -1.2169568191
H -5.8276558805 -1.4065354553 -2.1354010494
H -3.4474580566 -2.6584580101 -1.164691658
H -2.3125013688 4.3506352352 -1.1923475751
H -1.2074237467 3.5090931456 -0.0378130736
H 1.5961541753 3.2911330697 -0.5659494054
H 3.2848291171 3.9275304553 -0.4302923161
H 2.500429065 3.1656862565 1.0013076986
H 1.5772493353 0.6385325067 0.9132195539
H 1.2449828506 -1.0887478362 1.2459510317
H -0.8440201881 -0.6796008325 1.9393267057
H -0.4820331482 1.0741577636 1.8435977435
$end

$rem
JOBTYPE                   OPT
METHOD                    B3LYP
DFT_D                     d3_op
BASIS                     STO-3G
GEOM_OPT_MAX_CYCLES       100
GEOM_OPT_TOL_GRADIENT     300
GEOM_OPT_TOL_DISPLACEMENT 1200
GEOM_OPT_TOL_ENERGY       100
SYMMETRY                  False
THRESH                    12
SCF_CONVERGENCE           8
MAX_SUB_FILE_NUM          128
MEM_STATIC                400
MEM_TOTAL                 4000
$end
--------------------------------------------------------------

   16   -1510.2277160527      5.09E-09 Convergence criterion met
 Total energy in the final basis set = -1510.22771605
   14   -1510.2353247133      8.40E-09 Convergence criterion met
 Total energy in the final basis set = -1510.23532471
   14   -1510.2427876873      3.16E-09 Convergence criterion met
 Total energy in the final basis set = -1510.24278769
   15   -1510.2492039010      3.81E-09 Convergence criterion met
 Total energy in the final basis set = -1510.24920390
   14   -1510.2548101303      3.02E-09 Convergence criterion met
 Total energy in the final basis set = -1510.25481013
   14   -1510.2542066766      1.76E-09 Convergence criterion met
 Total energy in the final basis set = -1510.25420668
   13   -1510.2604911634      9.83E-09 Convergence criterion met
 Total energy in the final basis set = -1510.26049116
   13   -1510.2639767209      6.15E-09 Convergence criterion met
   11   -1510.2863062133      5.33E-09 Convergence criterion met
 Total energy in the final basis set = -1510.28630621
   11   -1510.2863119683      5.07E-09 Convergence criterion met
 Total energy in the final basis set = -1510.28631197
   11   -1510.2863089068      6.04E-09 Convergence criterion met
 Total energy in the final basis set = -1510.28630891
   11   -1510.2863134946      4.99E-09 Convergence criterion met
 Total energy in the final basis set = -1510.28631349
   10   -1510.2863150581      9.61E-09 Convergence criterion met
 Total energy in the final basis set = -1510.28631506
    9   -1510.2863136945      4.36E-09 Convergence criterion met
 Total energy in the final basis set = -1510.28631369

             Standard Nuclear Orientation (Angstroms)
    I     Atom           X                Y                Z
 ----------------------------------------------------------------
    1      O      -3.3358217263     2.0646373990     0.9748085967
    2      C      -3.1029798849     1.4022378932    -0.0596621211
    3      C      -3.8156013090     0.0841390167    -0.5312409974
    4      C      -2.8723690567    -1.1867073251    -0.6327286226
    5      C      -1.4273719142    -1.0468994188    -0.0447742269
    6      O      -1.4588985993    -0.2282390217     1.1232533257
    7      C      -0.2164145161    -0.3929016464     1.9185110654
    8      C       0.9822432472     0.5688410924     1.5164851042
    9      O       0.7852712182     1.1940058688     0.1928871334
   10      C       1.3388210876     0.5469744775    -0.9682548053
   11      C       2.6341391998    -0.3649443105    -0.8914501241
   12      C       3.9266223791     0.3142661111    -0.2607137734
   13      C       3.6458318188     1.7226640545     0.3754156124
   14      O       3.7873955342     2.0666965603     1.5679536431
   15      O      -2.1839069138     1.7651591919    -1.0869877373
   16      O       3.1802474296     2.5778155700    -0.6719386567
   17      O       0.8175082880     0.8399887030    -2.0668435094
   18      C       2.7535030971     3.8830966982    -0.1182357310
   19      C       2.5332256130    -1.6933295799    -0.0330708142
   20      C       3.6494979734    -2.6878131809    -0.5230012900
   21      C       4.9477657315    -2.0185465115     0.0714798646
   22      C       4.3416277594    -0.7676159998     0.8156781305
   23      O       3.0366288443    -1.2840441790     1.3068230501
   24      H       2.8266284566    -0.6205098815    -1.9481988429
   25      H       4.7081743619     0.4356783593    -1.0323427228
   26      H       1.4927098204    -2.0798035194     0.0233899878
   27      H       3.4844316582    -3.6902805235    -0.0968222331
   28      H       3.6773278265    -2.7706256871    -1.6210364558
   29      H       5.4525701532    -2.6854650908     0.7883771073
   30      H       5.6698989788    -1.7259492315    -0.7074932973
   31      H       4.9351823455    -0.3676352606     1.6608318240
   32      O      -0.4121910467    -1.6615802776    -0.4493375990
   33      C      -1.3710150399     2.9368338761    -0.6748385836
   34      C      -4.9045941856    -0.4147080008     0.5060285145
   35      C      -5.9091008239    -1.3629296696    -0.2559965656
   36      C      -5.0074066209    -2.6350508395    -0.4744935656
   37      C      -3.6855162053    -2.2105721219     0.2814634041
   38      O      -4.1616502807    -1.3502107476     1.3848613576
   39      H      -4.2689720699     0.2849684666    -1.5191009486
   40      H      -2.7784638743    -1.5480034628    -1.6718183019
   41      H      -1.9187914054     3.5454342035     0.0709275491
   42      H      -5.3584316632     0.3978850849     1.1059601790
   43      H      -6.7803713205    -1.5926300291     0.3780696256
   44      H      -6.2647649828    -0.9241425516    -1.2018410889
   45      H      -5.4479051663    -3.5308884911    -0.0085273651
   46      H      -4.8221946182    -2.8463607693    -1.5399296907
   47      H      -3.0810701159    -3.0514109413     0.6741908072
   48      H      -1.1660963950     3.5277606736    -1.5863412204
   49      H      -0.4217551885     2.5447756934    -0.2432590691
   50      H       2.5346736244     4.5281420276    -0.9887476347
   51      H       3.5473945262     4.3438098331     0.5035903573
   52      H       1.8370621478     3.7685216542     0.4963397152
   53      H       1.0216351548     1.4184946670     2.2262962790
   54      H       1.9273151346    -0.0388221597     1.5750172165
   55      H       0.1226368548    -1.4474925280     1.8521283790
   56      H      -0.5160156856    -0.1785413548     2.9639239330
 ----------------------------------------------------------------

    9   -1510.2863146735      2.54E-09 Convergence criterion met
 Total energy in the final basis set = -1510.28631467
 Final energy is   -1510.28631467352
 **  OPTIMIZATION CONVERGED  **

                    Orbital Energies (a.u.)
 --------------------------------------------------------------

 Alpha MOs
 -- Occupied --
-18.940 -18.939 -18.927 -18.917 -18.911 -18.884 -18.883 -18.876
-18.873 -18.854 -10.106 -10.104 -10.100 -10.083 -10.074 -10.066
-10.065 -10.063 -10.059 -10.052 -10.047 -10.047 -10.040 -10.036
-10.031 -10.029 -10.028 -10.026 -10.018 -10.016  -1.019  -1.016
 -0.999  -0.990  -0.990  -0.966  -0.943  -0.940  -0.930  -0.916
 -0.773  -0.758  -0.730  -0.721  -0.713  -0.703  -0.695  -0.666
 -0.640  -0.608  -0.602  -0.581  -0.558  -0.547  -0.539  -0.532
 -0.520  -0.507  -0.489  -0.473  -0.465  -0.450  -0.448  -0.442
 -0.439  -0.428  -0.422  -0.419  -0.411  -0.409  -0.400  -0.397
 -0.391  -0.380  -0.376  -0.372  -0.358  -0.357  -0.353  -0.351
 -0.343  -0.340  -0.334  -0.330  -0.328  -0.319  -0.318  -0.315
 -0.311  -0.307  -0.304  -0.300  -0.294  -0.290  -0.281  -0.280
 -0.266  -0.260  -0.255  -0.247  -0.231  -0.230  -0.228  -0.185
 -0.182  -0.173  -0.162  -0.158  -0.156  -0.151  -0.143  -0.141
 -0.136

          Ground-State Mulliken Net Atomic Charges

     Atom                 Charge (a.u.)
  ----------------------------------------
      1 O                    -0.219642
      2 C                     0.214573
      3 C                    -0.078653
      4 C                    -0.075978
      5 C                     0.219256
      6 O                    -0.160552
      7 C                    -0.053100
      8 C                    -0.077656
      9 O                    -0.182805
     10 C                     0.216138
     11 C                    -0.084160
     12 C                    -0.082754
     13 C                     0.208221
     14 O                    -0.211945
     15 O                    -0.173636
     16 O                    -0.168243
     17 O                    -0.195729
     18 C                    -0.128092
     19 C                     0.013118
     20 C                    -0.142385
     21 C                    -0.142892
     22 C                     0.024797
     23 O                    -0.187297
     24 H                     0.091336
     25 H                     0.089292
     26 H                     0.109275
     27 H                     0.080891
     28 H                     0.078637
     29 H                     0.080853
     30 H                     0.076659
     31 H                     0.093253
     32 O                    -0.226639
     33 C                    -0.147561
     34 C                     0.024411
     35 C                    -0.143429
     36 C                    -0.144144
     37 C                     0.024926
     38 O                    -0.188112
     39 H                     0.084006
     40 H                     0.087298
     41 H                     0.086255
     42 H                     0.090482
     43 H                     0.077236
     44 H                     0.073447
     45 H                     0.077278
     46 H                     0.073850
     47 H                     0.079582
     48 H                     0.079452
     49 H                     0.107597
     50 H                     0.093744
     51 H                     0.091091
     52 H                     0.092516
     53 H                     0.081543
     54 H                     0.117998
     55 H                     0.083905
     56 H                     0.092494
  ----------------------------------------
  Sum of atomic charges =    -0.000000

                    Cartesian Multipole Moments
 -----------------------------------------------------------------
    Charge (ESU x 10^10)
                -0.0000
    Dipole Moment (Debye)
         X       2.2434      Y      -1.8129      Z      -0.9893
       Tot       3.0493
    Quadrupole Moments (Debye-Ang)
        XX    -144.3356     XY       3.1359     YY    -152.3498
        XZ       3.8117     YZ      -0.1396     ZZ    -167.8756

 Total job time:  164.06s(wall), 7816.99s(cpu)
        *  Thank you very much for using Q-Chem.  Have a nice day.  *
