 Q-Chem 5.0, Q-Chem, Inc., Pleasanton, CA (2017)
 Q-Chem 5.0.1 for Intel X86 EM64T Linux

User input:
--------------------------------------------------------------
$molecule
0  1
O -6.2017845284 1.2181172006 0.4485234852
C -5.0175700188 1.2272400498 0.042527754
C -4.3809352479 0.1265189836 -0.890294716
C -2.8717172618 -0.3534027139 -0.6811401864
C -2.0243748002 0.3479513805 0.4644045087
O -1.4644017613 -0.5595086289 1.4722940641
C -0.1703580656 -1.0919290269 0.9842836909
C 0.817403656 -1.1866642058 2.2195548754
O 1.8804047181 -0.1599643444 2.3380328458
C 2.306380413 0.3854550457 1.0679751036
C 3.0406533541 -0.6447948118 0.1197265601
C 3.9078611626 0.0176732114 -1.0268998301
C 4.1572080653 1.559170405 -0.8349986921
O 4.8220891512 2.1211797437 0.0605948502
O -4.1311776287 2.3290346069 0.2142056773
O 3.4904721288 2.2470918271 -1.9021625704
O 2.2208706699 1.6133580409 0.8546132303
C 3.6291768135 3.7093875692 -1.7165283644
C 4.1249762139 -1.5387128538 0.8660388276
C 4.3194582902 -2.8520173816 0.0125766959
C 5.0854863542 -2.2773272789 -1.23750391
C 5.2762880485 -0.7633615299 -0.8179511549
O 5.3959263124 -0.8128871683 0.6579398538
H 2.2743876943 -1.2999484036 -0.3319801094
H 3.4661277914 -0.151871253 -2.0239748854
H 3.9278640441 -1.6854983998 1.9457776112
H 4.9367863786 -3.5788195186 0.5644759459
H 3.3622410947 -3.3288604703 -0.2526593248
H 6.0619955339 -2.7675818467 -1.3762316242
H 4.5065085546 -2.3742970847 -2.1700177521
H 6.1596310355 -0.2613856901 -1.2579282193
O -1.8022548678 1.5719120627 0.5371391302
C -4.7805547604 3.3840279383 1.0276022336
C -5.1681342206 -1.2367823845 -0.7050398028
C -4.9643513808 -2.1274610253 -1.990786856
C -3.4757808173 -2.5982972442 -1.7960233441
C -3.112899174 -1.9049143295 -0.4224150717
O -4.3830417196 -1.9393409995 0.3345979231
H -4.4937000951 0.5044613316 -1.9246135694
H -2.3080634498 -0.1921584004 -1.6196827388
H -5.0425955122 3.0140118246 2.0396388339
H -6.2150357497 -1.089471202 -0.3741272491
H -5.6619354953 -2.9799707737 -1.9829308957
H -5.1133744688 -1.5567591493 -2.9214058183
H -3.4073380681 -3.6937461455 -1.7021699624
H -2.8151224225 -2.2724681829 -2.6154280822
H -2.3182406002 -2.4041793637 0.159078672
H -5.7014977807 3.7656625759 0.5411937289
H -4.0367654568 4.1974340352 1.1111393449
H 3.1011902606 4.1786130826 -2.5670251139
H 4.6928712919 4.0241077675 -1.719824118
H 3.1670073128 4.038065674 -0.7632435754
H 0.2145178823 -1.0999165139 3.1484945907
H 1.2857311199 -2.1987834559 2.2111505428
H 0.2671281483 -0.4479665368 0.1933126651
H -0.3014292124 -2.1123006638 0.5564708224
$end

$rem
JOBTYPE                   OPT
METHOD                    B3LYP
DFT_D                     d3_op
BASIS                     STO-3G
GEOM_OPT_MAX_CYCLES       100
GEOM_OPT_TOL_GRADIENT     300
GEOM_OPT_TOL_DISPLACEMENT 1200
GEOM_OPT_TOL_ENERGY       100
SYMMETRY                  False
THRESH                    12
SCF_CONVERGENCE           8
MAX_SUB_FILE_NUM          128
MEM_STATIC                400
MEM_TOTAL                 4000
$end
--------------------------------------------------------------

   16   -1510.2253112488      3.68E-09 Convergence criterion met
 Total energy in the final basis set = -1510.22531125
   14   -1510.2289297403      6.08E-09 Convergence criterion met
 Total energy in the final basis set = -1510.22892974
   13   -1510.2323423185      7.13E-09 Convergence criterion met
 Total energy in the final basis set = -1510.23234232
   13   -1510.2357735252      7.72E-09 Convergence criterion met
 Total energy in the final basis set = -1510.23577353
   14   -1510.2393209223      2.69E-09 Convergence criterion met
 Total energy in the final basis set = -1510.23932092
   14   -1510.2428892943      2.78E-09 Convergence criterion met
 Total energy in the final basis set = -1510.24288929
   14   -1510.2461897474      2.65E-09 Convergence criterion met
 Total energy in the final basis set = -1510.24618975
   14   -1510.2493201887      2.59E-09 Convergence criterion met
   11   -1510.2837214052      4.57E-09 Convergence criterion met
 Total energy in the final basis set = -1510.28372141
   10   -1510.2837320547      3.21E-09 Convergence criterion met
 Total energy in the final basis set = -1510.28373205
   10   -1510.2837328122      6.56E-09 Convergence criterion met
 Total energy in the final basis set = -1510.28373281
   11   -1510.2837339846      5.00E-09 Convergence criterion met
 Total energy in the final basis set = -1510.28373398
   11   -1510.2837314553      6.30E-09 Convergence criterion met
 Total energy in the final basis set = -1510.28373146
   11   -1510.2837336951      6.70E-09 Convergence criterion met
 Total energy in the final basis set = -1510.28373370

             Standard Nuclear Orientation (Angstroms)
    I     Atom           X                Y                Z
 ----------------------------------------------------------------
    1      O      -2.5182248746    -0.7860095963     1.7994279684
    2      C      -3.1357902416     0.0213323005     1.0645059064
    3      C      -4.2424812309    -0.3089445991     0.0014726913
    4      C      -3.6402503608    -0.5374092862    -1.4584866830
    5      C      -2.0775124834    -0.4237834998    -1.4854968744
    6      O      -1.5303341421    -1.6163083937    -0.9069323361
    7      C      -0.0690934002    -1.4848938170    -0.7169641978
    8      C       0.2370611508    -1.0854036839     0.7833333931
    9      O       0.5479083923     0.3503235473     0.9465113760
   10      C       1.8302695551     0.8022434189     0.4856101937
   11      C       2.9181082780    -0.2592315522     0.0795970177
   12      C       4.1419564119     0.4007762717    -0.6787851594
   13      C       3.9826157846     1.9386609533    -0.9832059600
   14      O       4.6538922342     2.8784265229    -0.5086902383
   15      O      -2.9160259524     1.4256125268     1.0375632410
   16      O       3.0233829072     2.0674617198    -2.0441655925
   17      O       2.0294164699     2.0379380365     0.5085870113
   18      C       2.7809252450     3.4981905265    -2.3300136115
   19      C       3.6526496843    -0.8255710386     1.3780252658
   20      C       4.5062232343    -2.0850632291     0.9494123044
   21      C       5.7264690764    -1.3962250403     0.2323278726
   22      C       5.3220062860     0.1255219670     0.3414612185
   23      O       4.6639288101     0.2111501038     1.6671934731
   24      H       2.4768639074    -1.0691874725    -0.5220150005
   25      H       4.3096907909    -0.1169366042    -1.6405531087
   26      H       2.9955671261    -0.9774024151     2.2565794993
   27      H       4.8243169257    -2.6545947334     1.8369822457
   28      H       3.9440417788    -2.7565979306     0.2806517663
   29      H       6.6690398104    -1.5860214761     0.7702243505
   30      H       5.8437379354    -1.7211121382    -0.8138329439
   31      H       6.1524280762     0.8552176382     0.2784759811
   32      O      -1.3898317418     0.5275037440    -1.9167082690
   33      C      -1.7927166808     1.8015438473     1.9356413451
   34      C      -4.9380455586    -1.7096307447     0.2639419287
   35      C      -6.2743971521    -1.7593663802    -0.5759692376
   36      C      -5.7076013107    -1.9502854801    -2.0321579842
   37      C      -4.1530945961    -2.0114797923    -1.7522990739
   38      O      -4.0596821209    -2.6763254080    -0.4334501694
   39      H      -4.9714951008     0.5207053256    -0.0093997199
   40      H      -4.0465156009     0.1997233301    -2.1732301730
   41      H      -0.8323320434     1.3520652605     1.5801553122
   42      H      -5.0333159016    -1.9787207009     1.3335686885
   43      H      -6.8907345313    -2.6186502264    -0.2671318512
   44      H      -6.8711580274    -0.8394179161    -0.4678135117
   45      H      -6.0548159482    -2.8944753665    -2.4808931402
   46      H      -5.9757417235    -1.1200552077    -2.7048787731
   47      H      -3.5593548941    -2.5626420481    -2.5067380223
   48      H      -1.9916572554     1.4774074788     2.9767151306
   49      H      -1.7372042697     2.9041410302     1.8955773602
   50      H       2.0757147780     3.5266552224    -3.1810635724
   51      H       3.7173713593     4.0265397112    -2.6028901937
   52      H       2.3276072452     4.0091948012    -1.4558797886
   53      H      -0.7091989791    -1.2138906497     1.3662374389
   54      H       1.0311867597    -1.7294582981     1.2107464156
   55      H       0.3243290486    -0.7120793992    -1.4136290523
   56      H       0.3728362024    -2.4746423907    -0.9497752003
 ----------------------------------------------------------------

   10   -1510.2837334562      7.19E-09 Convergence criterion met
 Total energy in the final basis set = -1510.28373346
 Final energy is   -1510.28373345625
 **  OPTIMIZATION CONVERGED  **

                    Orbital Energies (a.u.)
 --------------------------------------------------------------

 Alpha MOs
 -- Occupied --
-18.949 -18.937 -18.933 -18.917 -18.893 -18.891 -18.889 -18.882
-18.874 -18.860 -10.113 -10.103 -10.100 -10.090 -10.076 -10.073
-10.068 -10.062 -10.060 -10.060 -10.051 -10.046 -10.041 -10.039
-10.038 -10.035 -10.027 -10.023 -10.022 -10.021  -1.021  -1.016
 -1.008  -0.996  -0.975  -0.971  -0.949  -0.941  -0.934  -0.923
 -0.767  -0.765  -0.728  -0.726  -0.714  -0.709  -0.701  -0.654
 -0.652  -0.619  -0.603  -0.588  -0.550  -0.548  -0.541  -0.538
 -0.518  -0.515  -0.486  -0.482  -0.460  -0.460  -0.458  -0.442
 -0.440  -0.434  -0.431  -0.425  -0.410  -0.405  -0.402  -0.400
 -0.398  -0.386  -0.374  -0.365  -0.362  -0.356  -0.351  -0.350
 -0.348  -0.340  -0.334  -0.334  -0.329  -0.328  -0.324  -0.320
 -0.316  -0.309  -0.308  -0.306  -0.297  -0.286  -0.281  -0.277
 -0.274  -0.258  -0.251  -0.243  -0.239  -0.237  -0.236  -0.196
 -0.175  -0.169  -0.162  -0.161  -0.159  -0.152  -0.149  -0.144
 -0.140

          Ground-State Mulliken Net Atomic Charges

     Atom                 Charge (a.u.)
  ----------------------------------------
      1 O                    -0.220319
      2 C                     0.209326
      3 C                    -0.078083
      4 C                    -0.077709
      5 C                     0.205266
      6 O                    -0.166955
      7 C                    -0.058304
      8 C                    -0.062396
      9 O                    -0.170993
     10 C                     0.219052
     11 C                    -0.084397
     12 C                    -0.079965
     13 C                     0.217080
     14 O                    -0.215064
     15 O                    -0.167941
     16 O                    -0.178224
     17 O                    -0.189101
     18 C                    -0.128406
     19 C                     0.023053
     20 C                    -0.144289
     21 C                    -0.143783
     22 C                     0.025010
     23 O                    -0.185707
     24 H                     0.080428
     25 H                     0.082934
     26 H                     0.081586
     27 H                     0.079557
     28 H                     0.071229
     29 H                     0.079411
     30 H                     0.073899
     31 H                     0.092229
     32 O                    -0.208489
     33 C                    -0.147876
     34 C                     0.025370
     35 C                    -0.143670
     36 C                    -0.144261
     37 C                     0.026793
     38 O                    -0.184192
     39 H                     0.086900
     40 H                     0.086768
     41 H                     0.115194
     42 H                     0.086803
     43 H                     0.078157
     44 H                     0.073770
     45 H                     0.077964
     46 H                     0.073812
     47 H                     0.083881
     48 H                     0.080588
     49 H                     0.086432
     50 H                     0.087594
     51 H                     0.086112
     52 H                     0.093223
     53 H                     0.122644
     54 H                     0.081322
     55 H                     0.100042
     56 H                     0.086699
  ----------------------------------------
  Sum of atomic charges =    -0.000000

                    Cartesian Multipole Moments
 -----------------------------------------------------------------
    Charge (ESU x 10^10)
                -0.0000
    Dipole Moment (Debye)
         X      -1.5105      Y      -3.0377      Z      -1.8701
       Tot       3.8739
    Quadrupole Moments (Debye-Ang)
        XX    -149.0145     XY     -14.7206     YY    -166.1517
        XZ      -2.4370     YZ      -0.4389     ZZ    -158.2992

 Total job time:  155.31s(wall), 6451.44s(cpu)
        *  Thank you very much for using Q-Chem.  Have a nice day.  *
