 Q-Chem 5.0, Q-Chem, Inc., Pleasanton, CA (2017)
 Q-Chem 5.0.1 for Intel X86 EM64T Linux

User input:
--------------------------------------------------------------
$molecule
0  1
O -3.94934 -3.66094 2.70899
C -3.26408 -4.56952 2.26188
C -3.36658 -6.02376 2.66595
C -2.05424 -6.81773 2.77194
C -0.77335 -6.02476 2.63554
O 0.00573 -6.20771 3.74234
C 0.82707 -7.37766 3.6657
C 2.19261 -7.10284 4.2869
O 3.17516 -6.93247 3.25324
C 2.92589 -7.59551 2.09678
C 2.98459 -9.09627 2.2546
C 3.16637 -9.87821 0.94548
C 3.61402 -9.06562 -0.25285
O 4.69943 -8.51559 -0.3708
O -2.58226 -4.32542 1.112
O 2.75285 -9.0375 -1.30414
O 2.82299 -6.97788 1.04877
C 2.99594 -8.37816 -2.49079
C 4.25869 -9.59716 2.99998
C 3.98118 -10.96222 3.6312
C 3.88834 -11.83087 2.3925
C 4.3173 -10.81993 1.32163
O 5.18179 -9.94152 1.99646
H 2.12923 -9.47669 2.84622
H 2.22317 -10.39885 0.66573
H 4.63619 -8.90061 3.77871
H 4.90236 -11.24176 4.19212
H 3.11055 -11.0217 4.31919
H 4.62018 -12.66276 2.49117
H 2.87593 -12.23292 2.17027
H 4.74158 -11.33652 0.43216
O -0.34615 -5.54171 1.59848
C -2.47427 -3.08787 0.5117
C -4.02471 -6.22765 4.03642
C -4.68963 -7.59711 4.08693
C -3.47258 -8.48742 4.11074
C -2.35473 -7.43423 4.18572
O -2.93484 -6.37401 4.90145
H -4.00934 -6.47231 1.87432
H -1.99048 -7.62627 2.01038
H -1.98092 -2.3707 1.20201
H -4.76243 -5.44159 4.30757
H -5.21023 -7.67307 5.06875
H -5.41323 -7.80452 3.26933
H -3.51044 -9.09328 5.04427
H -3.3517 -9.15766 3.23241
H -1.53454 -7.92442 4.70694
H -3.47981 -2.70864 0.22999
H -1.85849 -3.18188 -0.40614
H 2.12946 -8.51842 -3.16902
H 3.90379 -8.7917 -2.97982
H 3.13166 -7.29147 -2.30326
H 2.18671 -6.26175 5.01244
H 2.52336 -8.00169 4.85713
H 0.6647 -7.9767 2.74445
H 0.43566 -8.06785 4.42843
$end

$opt
CONSTRAINT
tors           1           2           3           4    -142.105
tors           3           4           5           6    +123.158
tors           4           5           6           7     +85.263
tors           5           6           7           8    +142.105
tors           6           7           8           9    -104.211
tors           7           8           9          10     -28.421
tors           8           9          10          11     -66.316
tors           9          10          11          12    -161.053
tors          11          12          13          14     +66.316
ENDCONSTRAINT
$end

$rem
JOBTYPE                   OPT
METHOD                    B3LYP
DFT_D                     d3_op
BASIS                     STO-3G
GEOM_OPT_MAX_CYCLES       100
GEOM_OPT_TOL_GRADIENT     300
GEOM_OPT_TOL_DISPLACEMENT 1200
GEOM_OPT_TOL_ENERGY       100
SYMMETRY                  False
THRESH                    12
SCF_CONVERGENCE           8
MAX_SUB_FILE_NUM          128
MEM_STATIC                400
MEM_TOTAL                 4000
$end
--------------------------------------------------------------

   15   -1510.0669309080      7.12E-09 Convergence criterion met
 Total energy in the final basis set = -1510.06693091
   13   -1510.1440023839      8.13E-09 Convergence criterion met
 Total energy in the final basis set = -1510.14400238
   14   -1510.1870634579      6.58E-09 Convergence criterion met
 Total energy in the final basis set = -1510.18706346
   14   -1510.2089257403      4.30E-09 Convergence criterion met
 Total energy in the final basis set = -1510.20892574
   14   -1510.2180035043      4.42E-09 Convergence criterion met
 Total energy in the final basis set = -1510.21800350
   14   -1510.2220979712      2.12E-09 Convergence criterion met
 Total energy in the final basis set = -1510.22209797
    2   -1510.2220979712      6.81E-10 Convergence criterion met
 Total energy in the final basis set = -1510.22209797
   13   -1510.2240861672      5.45E-09 Convergence criterion met
   10   -1510.2252329231      9.96E-09 Convergence criterion met
 Total energy in the final basis set = -1510.22523292
   11   -1510.2252379166      2.62E-09 Convergence criterion met
 Total energy in the final basis set = -1510.22523792
   10   -1510.2252429471      8.32E-09 Convergence criterion met
 Total energy in the final basis set = -1510.22524295
   10   -1510.2252497097      7.46E-09 Convergence criterion met
 Total energy in the final basis set = -1510.22524971
   11   -1510.2252615962      2.07E-09 Convergence criterion met
 Total energy in the final basis set = -1510.22526160
    9   -1510.2252644408      9.12E-09 Convergence criterion met
 Total energy in the final basis set = -1510.22526444

             Standard Nuclear Orientation (Angstroms)
    I     Atom           X                Y                Z
 ----------------------------------------------------------------
    1      O      -6.2017845284     1.2181172006     0.4485234852
    2      C      -5.0175700188     1.2272400498     0.0425277540
    3      C      -4.3809352479     0.1265189836    -0.8902947160
    4      C      -2.8717172618    -0.3534027139    -0.6811401864
    5      C      -2.0243748002     0.3479513805     0.4644045087
    6      O      -1.4644017613    -0.5595086289     1.4722940641
    7      C      -0.1703580656    -1.0919290269     0.9842836909
    8      C       0.8174036560    -1.1866642058     2.2195548754
    9      O       1.8804047181    -0.1599643444     2.3380328458
   10      C       2.3063804130     0.3854550457     1.0679751036
   11      C       3.0406533541    -0.6447948118     0.1197265601
   12      C       3.9078611626     0.0176732114    -1.0268998301
   13      C       4.1572080653     1.5591704050    -0.8349986921
   14      O       4.8220891512     2.1211797437     0.0605948502
   15      O      -4.1311776287     2.3290346069     0.2142056773
   16      O       3.4904721288     2.2470918271    -1.9021625704
   17      O       2.2208706699     1.6133580409     0.8546132303
   18      C       3.6291768135     3.7093875692    -1.7165283644
   19      C       4.1249762139    -1.5387128538     0.8660388276
   20      C       4.3194582902    -2.8520173816     0.0125766959
   21      C       5.0854863542    -2.2773272789    -1.2375039100
   22      C       5.2762880485    -0.7633615299    -0.8179511549
   23      O       5.3959263124    -0.8128871683     0.6579398538
   24      H       2.2743876943    -1.2999484036    -0.3319801094
   25      H       3.4661277914    -0.1518712530    -2.0239748854
   26      H       3.9278640441    -1.6854983998     1.9457776112
   27      H       4.9367863786    -3.5788195186     0.5644759459
   28      H       3.3622410947    -3.3288604703    -0.2526593248
   29      H       6.0619955339    -2.7675818467    -1.3762316242
   30      H       4.5065085546    -2.3742970847    -2.1700177521
   31      H       6.1596310355    -0.2613856901    -1.2579282193
   32      O      -1.8022548678     1.5719120627     0.5371391302
   33      C      -4.7805547604     3.3840279383     1.0276022336
   34      C      -5.1681342206    -1.2367823845    -0.7050398028
   35      C      -4.9643513808    -2.1274610253    -1.9907868560
   36      C      -3.4757808173    -2.5982972442    -1.7960233441
   37      C      -3.1128991740    -1.9049143295    -0.4224150717
   38      O      -4.3830417196    -1.9393409995     0.3345979231
   39      H      -4.4937000951     0.5044613316    -1.9246135694
   40      H      -2.3080634498    -0.1921584004    -1.6196827388
   41      H      -5.0425955122     3.0140118246     2.0396388339
   42      H      -6.2150357497    -1.0894712020    -0.3741272491
   43      H      -5.6619354953    -2.9799707737    -1.9829308957
   44      H      -5.1133744688    -1.5567591493    -2.9214058183
   45      H      -3.4073380681    -3.6937461455    -1.7021699624
   46      H      -2.8151224225    -2.2724681829    -2.6154280822
   47      H      -2.3182406002    -2.4041793637     0.1590786720
   48      H      -5.7014977807     3.7656625759     0.5411937289
   49      H      -4.0367654568     4.1974340352     1.1111393449
   50      H       3.1011902606     4.1786130826    -2.5670251139
   51      H       4.6928712919     4.0241077675    -1.7198241180
   52      H       3.1670073128     4.0380656740    -0.7632435754
   53      H       0.2145178823    -1.0999165139     3.1484945907
   54      H       1.2857311199    -2.1987834559     2.2111505428
   55      H       0.2671281483    -0.4479665368     0.1933126651
   56      H      -0.3014292124    -2.1123006638     0.5564708224
 ----------------------------------------------------------------

    9   -1510.2252625152      1.71E-09 Convergence criterion met
 Total energy in the final basis set = -1510.22526252
 Final energy is   -1510.22526251516
 **  OPTIMIZATION CONVERGED  **

                    Orbital Energies (a.u.)
 --------------------------------------------------------------

 Alpha MOs
 -- Occupied --
-18.939 -18.924 -18.916 -18.915 -18.908 -18.904 -18.892 -18.890
-18.873 -18.863 -10.113 -10.112 -10.100 -10.091 -10.085 -10.079
-10.065 -10.064 -10.063 -10.062 -10.060 -10.055 -10.045 -10.042
-10.042 -10.037 -10.026 -10.025 -10.024 -10.023  -1.016  -1.013
 -1.008  -0.999  -0.974  -0.974  -0.948  -0.939  -0.935  -0.925
 -0.766  -0.765  -0.726  -0.725  -0.715  -0.709  -0.706  -0.663
 -0.657  -0.617  -0.605  -0.591  -0.550  -0.548  -0.542  -0.541
 -0.521  -0.513  -0.486  -0.473  -0.469  -0.460  -0.451  -0.447
 -0.444  -0.437  -0.435  -0.416  -0.413  -0.410  -0.407  -0.403
 -0.401  -0.387  -0.382  -0.370  -0.364  -0.357  -0.353  -0.351
 -0.347  -0.343  -0.341  -0.335  -0.333  -0.333  -0.328  -0.317
 -0.315  -0.312  -0.310  -0.303  -0.298  -0.290  -0.283  -0.280
 -0.277  -0.254  -0.247  -0.246  -0.246  -0.237  -0.236  -0.179
 -0.174  -0.168  -0.165  -0.159  -0.157  -0.152  -0.148  -0.147
 -0.140

          Ground-State Mulliken Net Atomic Charges

     Atom                 Charge (a.u.)
  ----------------------------------------
      1 O                    -0.215389
      2 C                     0.207131
      3 C                    -0.078071
      4 C                    -0.082320
      5 C                     0.219841
      6 O                    -0.194909
      7 C                    -0.050726
      8 C                    -0.048054
      9 O                    -0.185361
     10 C                     0.219889
     11 C                    -0.085495
     12 C                    -0.080975
     13 C                     0.212333
     14 O                    -0.211438
     15 O                    -0.160825
     16 O                    -0.173426
     17 O                    -0.172206
     18 C                    -0.128791
     19 C                     0.023219
     20 C                    -0.143186
     21 C                    -0.145075
     22 C                     0.026340
     23 O                    -0.183473
     24 H                     0.075100
     25 H                     0.083352
     26 H                     0.088568
     27 H                     0.079236
     28 H                     0.069561
     29 H                     0.079043
     30 H                     0.072703
     31 H                     0.084838
     32 O                    -0.159814
     33 C                    -0.126780
     34 C                     0.023004
     35 C                    -0.144121
     36 C                    -0.145191
     37 C                     0.022423
     38 O                    -0.189643
     39 H                     0.084305
     40 H                     0.082517
     41 H                     0.090772
     42 H                     0.093391
     43 H                     0.079022
     44 H                     0.073468
     45 H                     0.077317
     46 H                     0.070870
     47 H                     0.083287
     48 H                     0.088738
     49 H                     0.095287
     50 H                     0.086998
     51 H                     0.086849
     52 H                     0.094516
     53 H                     0.102715
     54 H                     0.074317
     55 H                     0.080432
     56 H                     0.073888
  ----------------------------------------
  Sum of atomic charges =     0.000000

                    Cartesian Multipole Moments
 -----------------------------------------------------------------
    Charge (ESU x 10^10)
                 0.0000
    Dipole Moment (Debye)
         X      -0.6477      Y      -3.0641      Z      -4.2923
       Tot       5.3134
    Quadrupole Moments (Debye-Ang)
        XX    -177.6993     XY     -11.2849     YY    -151.8987
        XZ      -2.1775     YZ      -1.2268     ZZ    -159.5866

 Total job time:  95.01s(wall), 3888.05s(cpu)
        *  Thank you very much for using Q-Chem.  Have a nice day.  *
