 Q-Chem 5.0, Q-Chem, Inc., Pleasanton, CA (2017)
 Q-Chem 5.0.1 for Intel X86 EM64T Linux

User input:
--------------------------------------------------------------
$molecule
0  1
O -3.3480262958 -2.6805975853 -0.6122682134
C -2.4702755053 -1.8144795389 -0.4134930102
C -2.3183776367 -0.8772920378 0.8335361412
C -2.3060515636 0.683885003 0.5258420891
C -2.7579118608 1.0098613157 -0.950532256
O -1.7872207769 0.9753658045 -2.0446133183
C -1.0569735973 2.2494539885 -2.1843833401
C -0.046162358 2.8037303899 -1.0882668675
O 1.2851442403 2.2176280115 -1.3090007555
C 1.8697026047 1.4919318458 -0.1947682555
C 1.7995775682 -0.0791963036 -0.3939050191
C 3.1921754857 -0.8354207256 -0.3347971675
C 4.4705771501 -0.0274500464 -0.7545777729
O 5.5690595098 -0.5249649438 -1.0883111487
O -1.3511018736 -1.5888024998 -1.2804073033
O 4.1847449619 1.3690574334 -0.8364217667
O 2.1889735944 2.0635489635 0.869531743
C 5.3670881783 2.122163126 -1.3086043009
C 1.1761522189 -0.6386598105 0.9684338162
C 0.9163502561 -2.1941218896 0.8519487753
C 2.3616944838 -2.7715620078 1.0783813427
C 3.1976401798 -1.4346510847 1.138970112
O 2.3166234532 -0.5299354814 1.90608538
H 1.2084904421 -0.3256400899 -1.2927519486
H 3.1628471827 -1.6814709541 -1.0469392515
H 0.3278929117 -0.0423741722 1.3496057609
H 0.2274986259 -2.5330451089 1.6418575056
H 0.4798006141 -2.4495371055 -0.1274892691
H 2.4305258561 -3.3110257628 2.0368167382
H 2.6926192465 -3.442500449 0.269655758
H 4.1957410916 -1.5120331952 1.6120986346
O -3.9656613103 1.1542476473 -1.24390956
C -1.4686532579 -2.4242261561 -2.497366547
C -3.5446084871 -0.9838495693 1.835063392
C -3.0422047395 -0.5085372711 3.2530385308
C -2.897057135 1.0405692368 3.0109650149
C -3.4321115938 1.1747607857 1.5291486822
O -4.4519689987 0.1076562263 1.4151574749
H -1.3857968988 -1.1653372326 1.3425175445
H -1.3169933812 1.1183097321 0.7418878524
H -2.3828731295 -2.1758334581 -3.0736243691
H -4.0682514988 -1.9591909517 1.8027430139
H -3.8012531873 -0.7258318957 4.0213567766
H -2.0944703766 -0.9876941076 3.5459482743
H -3.5275596015 1.6208980312 3.7029206276
H -1.8555774754 1.3882344702 3.1068303612
H -3.8719920666 2.1570569179 1.2700822309
H -1.4878981955 -3.5057483947 -2.250771341
H -0.5759000456 -2.1977175205 -3.1087131931
H 5.0471436367 3.1786919545 -1.3684343941
H 5.6980581822 1.7729356815 -2.3081903514
H 6.2160734146 2.0291425652 -0.6009934858
H 0.0219678685 3.9014196703 -1.2663578186
H -0.4189682037 2.6599125498 -0.0531464301
H -1.7897625753 3.069319947 -2.3729832228
H -0.4615130276 2.1181422942 -3.1127696988
$end

$rem
JOBTYPE                   OPT
METHOD                    B3LYP
DFT_D                     d3_op
BASIS                     STO-3G
GEOM_OPT_MAX_CYCLES       100
GEOM_OPT_TOL_GRADIENT     300
GEOM_OPT_TOL_DISPLACEMENT 1200
GEOM_OPT_TOL_ENERGY       100
SYMMETRY                  False
THRESH                    12
SCF_CONVERGENCE           8
MAX_SUB_FILE_NUM          128
MEM_STATIC                400
MEM_TOTAL                 4000
$end
--------------------------------------------------------------

   16   -1510.2272849999      4.52E-09 Convergence criterion met
 Total energy in the final basis set = -1510.22728500
   15   -1510.2289363647      2.68E-09 Convergence criterion met
 Total energy in the final basis set = -1510.22893636
   14   -1510.2359055929      7.99E-09 Convergence criterion met
 Total energy in the final basis set = -1510.23590559
   14   -1510.2419743410      5.28E-09 Convergence criterion met
 Total energy in the final basis set = -1510.24197434
   15   -1510.2481725950      4.17E-09 Convergence criterion met
 Total energy in the final basis set = -1510.24817259
   15   -1510.2374028404      6.64E-09 Convergence criterion met
 Total energy in the final basis set = -1510.23740284
   15   -1510.2499844416      3.84E-09 Convergence criterion met
 Total energy in the final basis set = -1510.24998444
   15   -1510.2608504779      3.61E-09 Convergence criterion met
   11   -1510.3043892452      8.05E-09 Convergence criterion met
 Total energy in the final basis set = -1510.30438925
   11   -1510.3044255080      8.95E-09 Convergence criterion met
 Total energy in the final basis set = -1510.30442551
   11   -1510.3044220014      9.61E-09 Convergence criterion met
 Total energy in the final basis set = -1510.30442200
   11   -1510.3044402899      4.71E-09 Convergence criterion met
 Total energy in the final basis set = -1510.30444029
   11   -1510.3044449496      3.80E-09 Convergence criterion met
 Total energy in the final basis set = -1510.30444495
   10   -1510.3044472611      6.88E-09 Convergence criterion met
 Total energy in the final basis set = -1510.30444726

             Standard Nuclear Orientation (Angstroms)
    I     Atom           X                Y                Z
 ----------------------------------------------------------------
    1      O       3.7871564151     0.2190846340     1.4731229699
    2      C       2.7952905720    -0.4373915013     1.0961713810
    3      C       2.3434238491    -0.7867769955    -0.3607514446
    4      C       1.4375773546     0.3130486553    -1.0627039402
    5      C       1.3412880760     1.6784276280    -0.3040861800
    6      O       1.1364988330     1.4103448734     1.0962973907
    7      C       0.9213213138     2.6621479036     1.8543518399
    8      C      -0.6281291924     2.9426309232     1.9507709453
    9      O      -1.3430049919     1.6541187383     2.1331165038
   10      C      -1.6065002435     1.0769537512     0.8495503324
   11      C      -2.1074222017    -0.3907603050     1.0222165297
   12      C      -2.9561781824    -0.8805789040    -0.2239262847
   13      C      -3.1612049277     0.2134377774    -1.3384953010
   14      O      -2.6865075747     0.2080232013    -2.4940348499
   15      O       1.8796940843    -1.0920522208     2.0034855112
   16      O      -4.1068188961     1.1755467630    -0.8501219677
   17      O      -1.4503477882     1.6771362127    -0.2400169821
   18      C      -4.2797759985     2.2537335097    -1.8486895938
   19      C      -0.8798681265    -1.4071548625     0.9651667422
   20      C      -1.3882510750    -2.8255217154     1.4357640226
   21      C      -2.2103727951    -3.3025362404     0.1807103066
   22      C      -2.0541765620    -2.0577664072    -0.7725111718
   23      O      -0.6765678331    -1.5869607045    -0.4927736185
   24      H      -2.6629319156    -0.4770299775     1.9724751747
   25      H      -3.9502222035    -1.2379504516     0.0999830984
   26      H       0.0709080020    -1.0722444862     1.4465751996
   27      H      -0.5310854617    -3.4884421743     1.6351572513
   28      H      -2.0032362058    -2.7635342258     2.3477568847
   29      H      -1.7648319977    -4.1998339946    -0.2778746809
   30      H      -3.2656566069    -3.5130268623     0.4168290574
   31      H      -2.1805702991    -2.2530403499    -1.8551161599
   32      O       1.4100698914     2.8289075208    -0.7826297411
   33      C       2.2052723818    -0.7443940286     3.4026234649
   34      C       3.5434887587    -0.8847085442    -1.3981942318
   35      C       3.0471734509    -1.7662210953    -2.6116581042
   36      C       2.0505570632    -0.7719472678    -3.3162239552
   37      C       2.2154994276     0.5173339148    -2.4208117999
   38      O       3.6336304746     0.4721986324    -1.9828472003
   39      H       1.7786217527    -1.7347855761    -0.3171193583
   40      H       0.4129513978    -0.1096196980    -1.1763835557
   41      H       2.0476672518     0.3358289166     3.5974862801
   42      H       4.5146607541    -1.1808359401    -0.9564822893
   43      H       3.8934449388    -2.0227737776    -3.2690294273
   44      H       2.5591275973    -2.6969584311    -2.2815412877
   45      H       2.3502377268    -0.5650684912    -4.3556989843
   46      H       1.0121608950    -1.1405140006    -3.3121936807
   47      H       1.9944950666     1.4821626580    -2.9171352715
   48      H       3.2555470605    -0.9980496985     3.6518487557
   49      H       1.5183478400    -1.3360233072     4.0353968659
   50      H      -5.0403137742     2.9400000851    -1.4329567576
   51      H      -4.6292256266     1.8577983545    -2.8241830678
   52      H      -3.3304814915     2.8046521618    -2.0112482516
   53      H      -0.8601653510     3.5717822399     2.8326172842
   54      H      -0.9792749425     3.4345022715     1.0194556176
   55      H       1.4306326790     3.5122406173     1.3520598581
   56      H       1.3520822745     2.4958803418     2.8615138999
 ----------------------------------------------------------------

   11   -1510.3044479278      4.23E-09 Convergence criterion met
 Total energy in the final basis set = -1510.30444793
 Final energy is   -1510.30444792782
 **  OPTIMIZATION CONVERGED  **

                    Orbital Energies (a.u.)
 --------------------------------------------------------------

 Alpha MOs
 -- Occupied --
-18.942 -18.933 -18.933 -18.922 -18.893 -18.881 -18.878 -18.874
-18.872 -18.863 -10.106 -10.098 -10.098 -10.092 -10.076 -10.075
-10.065 -10.060 -10.056 -10.050 -10.049 -10.046 -10.040 -10.035
-10.025 -10.021 -10.019 -10.019 -10.010 -10.008  -1.025  -1.011
 -1.004  -1.000  -0.974  -0.958  -0.945  -0.935  -0.934  -0.927
 -0.764  -0.753  -0.727  -0.718  -0.708  -0.701  -0.692  -0.661
 -0.656  -0.620  -0.594  -0.579  -0.546  -0.539  -0.536  -0.527
 -0.509  -0.502  -0.487  -0.471  -0.463  -0.456  -0.451  -0.444
 -0.430  -0.429  -0.422  -0.420  -0.411  -0.408  -0.404  -0.402
 -0.393  -0.382  -0.373  -0.366  -0.361  -0.355  -0.349  -0.345
 -0.344  -0.338  -0.335  -0.331  -0.328  -0.322  -0.320  -0.310
 -0.305  -0.302  -0.299  -0.295  -0.292  -0.280  -0.280  -0.271
 -0.267  -0.257  -0.250  -0.247  -0.243  -0.238  -0.220  -0.190
 -0.176  -0.172  -0.167  -0.160  -0.157  -0.152  -0.146  -0.144
 -0.133

          Ground-State Mulliken Net Atomic Charges

     Atom                 Charge (a.u.)
  ----------------------------------------
      1 O                    -0.213426
      2 C                     0.216959
      3 C                    -0.083658
      4 C                    -0.087760
      5 C                     0.217626
      6 O                    -0.180901
      7 C                    -0.052052
      8 C                    -0.054906
      9 O                    -0.168620
     10 C                     0.217338
     11 C                    -0.079975
     12 C                    -0.081259
     13 C                     0.214898
     14 O                    -0.217379
     15 O                    -0.173489
     16 O                    -0.176976
     17 O                    -0.216191
     18 C                    -0.128824
     19 C                     0.010166
     20 C                    -0.144494
     21 C                    -0.144183
     22 C                     0.025161
     23 O                    -0.196184
     24 H                     0.087058
     25 H                     0.084105
     26 H                     0.110598
     27 H                     0.077606
     28 H                     0.072556
     29 H                     0.077078
     30 H                     0.073622
     31 H                     0.089168
     32 O                    -0.206898
     33 C                    -0.127044
     34 C                     0.024103
     35 C                    -0.142644
     36 C                    -0.144223
     37 C                     0.023732
     38 O                    -0.191495
     39 H                     0.090812
     40 H                     0.114670
     41 H                     0.085694
     42 H                     0.082288
     43 H                     0.075253
     44 H                     0.072815
     45 H                     0.075984
     46 H                     0.079188
     47 H                     0.089524
     48 H                     0.090567
     49 H                     0.088456
     50 H                     0.086616
     51 H                     0.087241
     52 H                     0.092471
     53 H                     0.090299
     54 H                     0.100782
     55 H                     0.102233
     56 H                     0.085911
  ----------------------------------------
  Sum of atomic charges =    -0.000000

                    Cartesian Multipole Moments
 -----------------------------------------------------------------
    Charge (ESU x 10^10)
                -0.0000
    Dipole Moment (Debye)
         X      -2.6881      Y      -1.7724      Z       2.9367
       Tot       4.3579
    Quadrupole Moments (Debye-Ang)
        XX    -165.0223     XY      -5.8572     YY    -152.0285
        XZ       1.9846     YZ       4.6448     ZZ    -155.0106

 Total job time:  158.74s(wall), 6345.78s(cpu)
        *  Thank you very much for using Q-Chem.  Have a nice day.  *
