 Q-Chem 5.0, Q-Chem, Inc., Pleasanton, CA (2017)
 Q-Chem 5.0.1 for Intel X86 EM64T Linux

User input:
--------------------------------------------------------------
$molecule
0  1
O -3.94934 -3.66094 2.70899
C -3.26408 -4.56952 2.26188
C -3.36658 -6.02376 2.66595
C -2.09215 -6.69516 3.20345
C -0.90361 -5.79095 3.44399
O -0.19755 -5.63459 2.28535
C 0.75563 -6.6789 2.06147
C 0.03799 -8.00373 1.82493
O -0.32319 -8.12423 0.44004
C -1.64294 -8.31939 0.19647
C -2.33709 -7.07854 -0.31253
C -3.04314 -7.2411 -1.66654
C -3.25935 -8.66703 -2.13202
O -3.4902 -9.00975 -3.28259
O -2.22282 -4.23385 1.45054
O -3.48794 -9.63568 -1.20439
O -2.23714 -9.18414 0.82982
C -3.80713 -10.95059 -1.48037
C -3.89415 -6.8923 0.16526
C -4.46211 -5.41884 -0.05809
C -4.65827 -5.36785 -1.5173
C -4.48189 -6.8155 -1.75729
O -4.88274 -7.484 -0.63395
H -1.79354 -6.1293 -0.13186
H -2.40393 -6.77039 -2.44609
H -3.96922 -7.57087 1.02208
H -5.47277 -5.42244 0.41933
H -4.05373 -4.4325 0.13633
H -5.6788 -4.98507 -1.74413
H -3.8888 -4.80754 -2.09652
H -5.00897 -7.09172 -2.70383
O -0.42347 -5.50456 4.53338
C -1.8826 -2.9432 1.09903
C -4.13333 -6.07463 4.07071
C -4.80728 -7.43909 4.30867
C -3.5921 -8.29617 4.52128
C -2.51531 -7.2051 4.59192
O -3.16704 -6.07762 5.08449
H -4.3605 -6.28125 2.32099
H -2.06052 -7.52577 2.55942
H -1.62438 -2.35712 2.00661
H -4.91439 -5.28896 4.20586
H -5.35497 -7.35091 5.27556
H -5.51436 -7.80599 3.53352
H -3.7088 -8.83828 5.48568
H -3.37058 -9.01673 3.70429
H -1.65271 -7.5783 5.18858
H -2.72263 -2.45252 0.56319
H -0.9992 -2.97154 0.42893
H -3.92923 -11.50222 -0.52581
H -2.99254 -11.42608 -2.06717
H -4.76121 -11.00289 -2.04703
H 0.90757 -8.69498 1.86244
H -0.47399 -8.61478 2.5959
H 1.43835 -6.75489 2.93929
H 1.37729 -6.42517 1.17572
$end

$opt
CONSTRAINT
tors           1           2           3           4    -123.158
tors           3           4           5           6     -85.263
tors           4           5           6           7     -85.263
tors           5           6           7           8     +66.316
tors           6           7           8           9     +85.263
tors           7           8           9          10    -123.158
tors           8           9          10          11    +104.211
tors           9          10          11          12    +123.158
tors          11          12          13          14    -161.053
ENDCONSTRAINT
$end

$rem
JOBTYPE                   OPT
METHOD                    B3LYP
DFT_D                     d3_op
BASIS                     STO-3G
GEOM_OPT_MAX_CYCLES       100
GEOM_OPT_TOL_GRADIENT     300
GEOM_OPT_TOL_DISPLACEMENT 1200
GEOM_OPT_TOL_ENERGY       100
SYMMETRY                  False
THRESH                    12
SCF_CONVERGENCE           8
MAX_SUB_FILE_NUM          128
MEM_STATIC                400
MEM_TOTAL                 4000
$end
--------------------------------------------------------------

   15   -1509.8289674168      9.24E-09 Convergence criterion met
 Total energy in the final basis set = -1509.82896742
   14   -1509.9125915056      8.95E-09 Convergence criterion met
 Total energy in the final basis set = -1509.91259151
   13   -1509.9912819360      5.35E-09 Convergence criterion met
 Total energy in the final basis set = -1509.99128194
    2   -1509.9912819359      6.22E-09 Convergence criterion met
 Total energy in the final basis set = -1509.99128194
   13   -1510.0525974450      8.42E-09 Convergence criterion met
 Total energy in the final basis set = -1510.05259744
   14   -1510.0980640941      3.83E-09 Convergence criterion met
 Total energy in the final basis set = -1510.09806409
   14   -1510.1306916054      4.19E-09 Convergence criterion met
 Total energy in the final basis set = -1510.13069161
   14   -1510.1538538881      4.73E-09 Convergence criterion met
    9   -1510.2274063940      8.74E-09 Convergence criterion met
 Total energy in the final basis set = -1510.22740639
    9   -1510.2274092353      4.65E-09 Convergence criterion met
 Total energy in the final basis set = -1510.22740924
    9   -1510.2274122164      3.83E-09 Convergence criterion met
 Total energy in the final basis set = -1510.22741222
    9   -1510.2274149179      4.73E-09 Convergence criterion met
 Total energy in the final basis set = -1510.22741492
    9   -1510.2274172140      3.72E-09 Convergence criterion met
 Total energy in the final basis set = -1510.22741721
    9   -1510.2274187938      4.30E-09 Convergence criterion met
 Total energy in the final basis set = -1510.22741879

             Standard Nuclear Orientation (Angstroms)
    I     Atom           X                Y                Z
 ----------------------------------------------------------------
    1      O      -3.3480262958    -2.6805975853    -0.6122682134
    2      C      -2.4702755053    -1.8144795389    -0.4134930102
    3      C      -2.3183776367    -0.8772920378     0.8335361412
    4      C      -2.3060515636     0.6838850030     0.5258420891
    5      C      -2.7579118608     1.0098613157    -0.9505322560
    6      O      -1.7872207769     0.9753658045    -2.0446133183
    7      C      -1.0569735973     2.2494539885    -2.1843833401
    8      C      -0.0461623580     2.8037303899    -1.0882668675
    9      O       1.2851442403     2.2176280115    -1.3090007555
   10      C       1.8697026047     1.4919318458    -0.1947682555
   11      C       1.7995775682    -0.0791963036    -0.3939050191
   12      C       3.1921754857    -0.8354207256    -0.3347971675
   13      C       4.4705771501    -0.0274500464    -0.7545777729
   14      O       5.5690595098    -0.5249649438    -1.0883111487
   15      O      -1.3511018736    -1.5888024998    -1.2804073033
   16      O       4.1847449619     1.3690574334    -0.8364217667
   17      O       2.1889735944     2.0635489635     0.8695317430
   18      C       5.3670881783     2.1221631260    -1.3086043009
   19      C       1.1761522189    -0.6386598105     0.9684338162
   20      C       0.9163502561    -2.1941218896     0.8519487753
   21      C       2.3616944838    -2.7715620078     1.0783813427
   22      C       3.1976401798    -1.4346510847     1.1389701120
   23      O       2.3166234532    -0.5299354814     1.9060853800
   24      H       1.2084904421    -0.3256400899    -1.2927519486
   25      H       3.1628471827    -1.6814709541    -1.0469392515
   26      H       0.3278929117    -0.0423741722     1.3496057609
   27      H       0.2274986259    -2.5330451089     1.6418575056
   28      H       0.4798006141    -2.4495371055    -0.1274892691
   29      H       2.4305258561    -3.3110257628     2.0368167382
   30      H       2.6926192465    -3.4425004490     0.2696557580
   31      H       4.1957410916    -1.5120331952     1.6120986346
   32      O      -3.9656613103     1.1542476473    -1.2439095600
   33      C      -1.4686532579    -2.4242261561    -2.4973665470
   34      C      -3.5446084871    -0.9838495693     1.8350633920
   35      C      -3.0422047395    -0.5085372711     3.2530385308
   36      C      -2.8970571350     1.0405692368     3.0109650149
   37      C      -3.4321115938     1.1747607857     1.5291486822
   38      O      -4.4519689987     0.1076562263     1.4151574749
   39      H      -1.3857968988    -1.1653372326     1.3425175445
   40      H      -1.3169933812     1.1183097321     0.7418878524
   41      H      -2.3828731295    -2.1758334581    -3.0736243691
   42      H      -4.0682514988    -1.9591909517     1.8027430139
   43      H      -3.8012531873    -0.7258318957     4.0213567766
   44      H      -2.0944703766    -0.9876941076     3.5459482743
   45      H      -3.5275596015     1.6208980312     3.7029206276
   46      H      -1.8555774754     1.3882344702     3.1068303612
   47      H      -3.8719920666     2.1570569179     1.2700822309
   48      H      -1.4878981955    -3.5057483947    -2.2507713410
   49      H      -0.5759000456    -2.1977175205    -3.1087131931
   50      H       5.0471436367     3.1786919545    -1.3684343941
   51      H       5.6980581822     1.7729356815    -2.3081903514
   52      H       6.2160734146     2.0291425652    -0.6009934858
   53      H       0.0219678685     3.9014196703    -1.2663578186
   54      H      -0.4189682037     2.6599125498    -0.0531464301
   55      H      -1.7897625753     3.0693199470    -2.3729832228
   56      H      -0.4615130276     2.1181422942    -3.1127696988
 ----------------------------------------------------------------

    9   -1510.2274193726      5.64E-09 Convergence criterion met
 Total energy in the final basis set = -1510.22741937
 Final energy is   -1510.22741937256
 **  OPTIMIZATION CONVERGED  **

                    Orbital Energies (a.u.)
 --------------------------------------------------------------

 Alpha MOs
 -- Occupied --
-18.945 -18.942 -18.910 -18.903 -18.895 -18.892 -18.891 -18.885
-18.884 -18.877 -10.108 -10.106 -10.105 -10.104 -10.077 -10.071
-10.069 -10.069 -10.066 -10.065 -10.065 -10.062 -10.046 -10.043
-10.042 -10.038 -10.025 -10.025 -10.024 -10.023  -1.019  -1.018
 -1.008  -0.998  -0.976  -0.974  -0.944  -0.941  -0.938  -0.926
 -0.770  -0.766  -0.728  -0.727  -0.712  -0.710  -0.704  -0.668
 -0.666  -0.616  -0.607  -0.587  -0.551  -0.551  -0.544  -0.541
 -0.520  -0.514  -0.489  -0.480  -0.472  -0.466  -0.456  -0.449
 -0.438  -0.434  -0.425  -0.419  -0.416  -0.415  -0.411  -0.408
 -0.397  -0.384  -0.382  -0.377  -0.370  -0.363  -0.361  -0.354
 -0.350  -0.342  -0.338  -0.335  -0.333  -0.330  -0.326  -0.318
 -0.317  -0.311  -0.310  -0.302  -0.299  -0.297  -0.290  -0.282
 -0.279  -0.261  -0.252  -0.240  -0.240  -0.237  -0.221  -0.186
 -0.184  -0.175  -0.164  -0.159  -0.156  -0.153  -0.146  -0.144
 -0.140

          Ground-State Mulliken Net Atomic Charges

     Atom                 Charge (a.u.)
  ----------------------------------------
      1 O                    -0.206053
      2 C                     0.207377
      3 C                    -0.082253
      4 C                    -0.080695
      5 C                     0.209541
      6 O                    -0.186379
      7 C                    -0.051172
      8 C                    -0.045838
      9 O                    -0.209324
     10 C                     0.228691
     11 C                    -0.080624
     12 C                    -0.080235
     13 C                     0.209096
     14 O                    -0.214341
     15 O                    -0.169890
     16 O                    -0.164310
     17 O                    -0.191120
     18 C                    -0.124634
     19 C                     0.026373
     20 C                    -0.149482
     21 C                    -0.141783
     22 C                     0.026153
     23 O                    -0.184822
     24 H                     0.092582
     25 H                     0.085135
     26 H                     0.074833
     27 H                     0.073124
     28 H                     0.082801
     29 H                     0.078344
     30 H                     0.075340
     31 H                     0.086971
     32 O                    -0.173422
     33 C                    -0.127879
     34 C                     0.023785
     35 C                    -0.143383
     36 C                    -0.145430
     37 C                     0.026071
     38 O                    -0.183919
     39 H                     0.087813
     40 H                     0.075731
     41 H                     0.094634
     42 H                     0.091487
     43 H                     0.079732
     44 H                     0.073272
     45 H                     0.080048
     46 H                     0.073667
     47 H                     0.085604
     48 H                     0.088454
     49 H                     0.090836
     50 H                     0.095978
     51 H                     0.091083
     52 H                     0.091807
     53 H                     0.084325
     54 H                     0.077415
     55 H                     0.075174
     56 H                     0.093708
  ----------------------------------------
  Sum of atomic charges =     0.000000

                    Cartesian Multipole Moments
 -----------------------------------------------------------------
    Charge (ESU x 10^10)
                 0.0000
    Dipole Moment (Debye)
         X       1.5587      Y      -0.0299      Z      -0.0162
       Tot       1.5591
    Quadrupole Moments (Debye-Ang)
        XX    -184.5542     XY      -2.6576     YY    -152.4119
        XZ      -8.2949     YZ      -2.7371     ZZ    -157.6107

 Total job time:  208.13s(wall), 8800.97s(cpu)
        *  Thank you very much for using Q-Chem.  Have a nice day.  *
