 Q-Chem 5.0, Q-Chem, Inc., Pleasanton, CA (2017)
 Q-Chem 5.0.1 for Intel X86 EM64T Linux

User input:
--------------------------------------------------------------
$molecule
0  1
O -3.94934 -3.66094 2.70899
C -3.26408 -4.56952 2.26188
C -3.36658 -6.02376 2.66595
C -2.27333 -6.57303 3.59705
C -1.29943 -5.56331 4.16282
O -1.95201 -4.71317 5.00948
C -1.1753 -4.35568 6.1576
C -0.63442 -2.93777 6.00556
O 0.69706 -2.86208 6.53877
C 1.11274 -3.95449 7.22653
C 1.10733 -3.74535 8.72215
C 1.75527 -2.43582 9.195
C 1.98273 -1.38708 8.1249
O 1.84843 -1.56083 6.92226
O -2.25035 -4.26701 1.40972
O 2.4307 -0.17948 8.56008
O 1.73408 -4.86263 6.69094
C 2.70992 0.88962 7.73484
C -0.27211 -3.63064 9.39831
C -0.15742 -3.97419 10.8854
C 0.57046 -2.75552 11.40539
C 0.64302 -1.91695 10.12773
O -0.53298 -2.25078 9.429
H 1.62125 -4.63127 9.16038
H 2.72642 -2.5891 9.71506
H -1.04516 -4.28247 8.96085
H -1.18902 -3.97378 11.30577
H 0.32643 -4.9488 11.11128
H -0.07587 -2.25528 12.16072
H 1.57813 -2.94817 11.83329
H 0.76315 -0.84221 10.38753
O -0.08337 -5.62829 4.03049
C -1.95482 -2.99174 0.97621
C -4.61275 -6.32554 3.53479
C -4.98262 -7.8051 3.4212
C -3.86199 -8.4395 4.21921
C -3.13434 -7.18649 4.71642
O -4.16146 -6.23651 4.86382
H -3.46861 -6.60122 1.71967
H -1.65908 -7.3408 3.07554
H -1.69735 -2.34402 1.84158
H -5.49279 -5.69796 3.27364
H -5.9363 -7.94811 3.97848
H -5.10522 -8.18751 2.38511
H -4.30883 -8.99454 5.07386
H -3.18726 -9.10851 3.64245
H -2.53797 -7.41213 5.62797
H -2.82171 -2.56272 0.42958
H -1.08426 -3.03347 0.29004
H 3.05538 1.74458 8.3514
H 1.79604 1.19371 7.18095
H 3.51268 0.61917 7.01596
H -0.51075 -2.74233 4.91861
H -1.31487 -2.1599 6.41238
H -0.55363 -5.24546 6.38734
H -1.86531 -4.35398 7.01942
$end

$opt
CONSTRAINT
tors           1           2           3           4    -104.211
tors           3           4           5           6     +66.316
tors           4           5           6           7    +142.105
tors           5           6           7           8    +104.211
tors           6           7           8           9    -142.105
tors           7           8           9          10      -9.474
tors           8           9          10          11    -104.211
tors           9          10          11          12     -47.368
tors          11          12          13          14      -9.474
ENDCONSTRAINT
$end

$rem
JOBTYPE                   OPT
METHOD                    B3LYP
DFT_D                     d3_op
BASIS                     STO-3G
GEOM_OPT_MAX_CYCLES       100
GEOM_OPT_TOL_GRADIENT     300
GEOM_OPT_TOL_DISPLACEMENT 1200
GEOM_OPT_TOL_ENERGY       100
SYMMETRY                  False
THRESH                    12
SCF_CONVERGENCE           8
MAX_SUB_FILE_NUM          128
MEM_STATIC                400
MEM_TOTAL                 4000
$end
--------------------------------------------------------------

   16   -1510.0346208686      1.82E-09 Convergence criterion met
 Total energy in the final basis set = -1510.03462087
   14   -1510.1198399538      4.55E-09 Convergence criterion met
 Total energy in the final basis set = -1510.11983995
   14   -1510.1731424970      5.04E-09 Convergence criterion met
 Total energy in the final basis set = -1510.17314250
   14   -1510.2060791360      4.08E-09 Convergence criterion met
 Total energy in the final basis set = -1510.20607914
   13   -1510.2236315283      8.51E-09 Convergence criterion met
 Total energy in the final basis set = -1510.22363153
   13   -1510.2328068287      4.05E-09 Convergence criterion met
 Total energy in the final basis set = -1510.23280683
   13   -1510.2378930014      2.32E-09 Convergence criterion met
 Total energy in the final basis set = -1510.23789300
   13   -1510.2408698844      2.33E-09 Convergence criterion met
   10   -1510.2494386847      7.73E-09 Convergence criterion met
 Total energy in the final basis set = -1510.24943868
   10   -1510.2494479678      9.55E-09 Convergence criterion met
 Total energy in the final basis set = -1510.24944797
   11   -1510.2494517893      1.91E-09 Convergence criterion met
 Total energy in the final basis set = -1510.24945179
    9   -1510.2494538554      7.55E-09 Convergence criterion met
 Total energy in the final basis set = -1510.24945386
    9   -1510.2494565444      8.42E-09 Convergence criterion met
 Total energy in the final basis set = -1510.24945654
    9   -1510.2494588148      6.45E-09 Convergence criterion met
 Total energy in the final basis set = -1510.24945881

             Standard Nuclear Orientation (Angstroms)
    I     Atom           X                Y                Z
 ----------------------------------------------------------------
    1      O      -3.7249289861     0.9741745339     2.2627949229
    2      C      -4.0146669997     1.2204918449     1.0737785491
    3      C      -4.8242159293     0.3224952674     0.0706805239
    4      C      -3.8719133236    -0.3847627153    -0.9892984688
    5      C      -2.3986381560     0.1498365909    -0.9879247862
    6      O      -1.7657067239    -0.1920486044     0.2602729302
    7      C      -0.3472290358    -0.5654265660     0.0533132479
    8      C       0.6060822212     0.6134048683     0.5143393990
    9      O       1.8351181937     0.9005097130    -0.2767062146
   10      C       2.1388275664    -0.0948478061    -1.2881072027
   11      C       3.3335654306    -1.0546801829    -0.8760493453
   12      C       4.5931385639    -0.2899677292    -0.3128414642
   13      C       4.5855004560     1.2180081278    -0.7267199814
   14      O       3.8038342026     1.7482125830    -1.5501871755
   15      O      -3.5412507434     2.3630592544     0.3475853041
   16      O       5.6232539158     1.9098720793    -0.0350976007
   17      O       1.4604456165    -0.2491946178    -2.3281509579
   18      C       5.6238460574     3.3397745101    -0.4261803982
   19      C       2.9146045647    -1.8672452249     0.4251359520
   20      C       4.0247110523    -2.9449039147     0.7559705063
   21      C       5.1305548560    -2.0552841878     1.4381534007
   22      C       4.5099918990    -0.6173908765     1.2409246396
   23      O       3.0704382065    -0.8528126332     1.4941093499
   24      H       3.5760372485    -1.7088809454    -1.7314953404
   25      H       5.5217359756    -0.7269924179    -0.7262448452
   26      H       1.8815362944    -2.2624246322     0.4112659773
   27      H       3.6304963350    -3.7059324052     1.4479299622
   28      H       4.3879234837    -3.4503409237    -0.1532397963
   29      H       5.2253112380    -2.2860036776     2.5114407338
   30      H       6.1195353710    -2.1588556268     0.9638981522
   31      H       4.9037586617     0.1753774321     1.9059852904
   32      O      -1.8010486143     0.6650585846    -1.9568467771
   33      C      -2.6419863871     3.1686128589     1.2040521825
   34      C      -5.4003766968    -0.9410463309     0.8308958878
   35      C      -6.3906108640    -1.7115045651    -0.1294253034
   36      C      -5.3811403467    -2.4453850141    -1.0894318727
   37      C      -4.0012143747    -1.9053988190    -0.5416857685
   38      O      -4.2202455193    -1.8341301278     0.9187449952
   39      H      -5.6037308594     0.9260275759    -0.4276413281
   40      H      -4.2602244842    -0.2361924483    -2.0125046566
   41      H      -1.8151822856     2.5515080282     1.6110573867
   42      H      -5.7885363804    -0.7211290504     1.8440459923
   43      H      -7.0040627759    -2.4289391105     0.4381956985
   44      H      -7.0608093048    -1.0214705878    -0.6666552276
   45      H      -5.4367778365    -3.5394814494    -0.9714877169
   46      H      -5.5379984412    -2.1951552992    -2.1507502512
   47      H      -3.1189770295    -2.5331206135    -0.7726997395
   48      H      -3.1886732343     3.6288077579     2.0526458761
   49      H      -2.2307442713     3.9631836843     0.5546794473
   50      H       6.4081806203     3.8224683356     0.1852579621
   51      H       4.6434186996     3.8163833250    -0.2228489560
   52      H       5.8612913076     3.4663646633    -1.5023213306
   53      H       0.0015603812     1.5474436683     0.5101463113
   54      H       0.9379063403     0.4238236336     1.5588637064
   55      H      -0.1568119087    -0.7858072541    -1.0192368011
   56      H      -0.1716436930    -1.4713285450     0.6674984527
 ----------------------------------------------------------------

    9   -1510.2494593269      3.99E-09 Convergence criterion met
 Total energy in the final basis set = -1510.24945933
 Final energy is   -1510.24945932689
 **  OPTIMIZATION CONVERGED  **

                    Orbital Energies (a.u.)
 --------------------------------------------------------------

 Alpha MOs
 -- Occupied --
-18.943 -18.928 -18.916 -18.893 -18.888 -18.885 -18.884 -18.882
-18.877 -18.872 -10.105 -10.097 -10.095 -10.093 -10.068 -10.065
-10.064 -10.062 -10.059 -10.059 -10.055 -10.054 -10.040 -10.035
-10.034 -10.033 -10.025 -10.023 -10.019 -10.018  -1.017  -1.008
 -1.000  -0.991  -0.975  -0.967  -0.942  -0.932  -0.930  -0.918
 -0.766  -0.760  -0.725  -0.722  -0.709  -0.705  -0.689  -0.666
 -0.658  -0.607  -0.596  -0.584  -0.550  -0.544  -0.541  -0.535
 -0.513  -0.509  -0.478  -0.474  -0.463  -0.462  -0.443  -0.439
 -0.435  -0.431  -0.425  -0.414  -0.411  -0.409  -0.402  -0.397
 -0.388  -0.380  -0.371  -0.366  -0.359  -0.352  -0.350  -0.345
 -0.343  -0.340  -0.334  -0.333  -0.329  -0.323  -0.319  -0.318
 -0.306  -0.305  -0.304  -0.302  -0.293  -0.287  -0.282  -0.276
 -0.270  -0.258  -0.249  -0.240  -0.237  -0.231  -0.226  -0.182
 -0.172  -0.166  -0.160  -0.152  -0.151  -0.145  -0.142  -0.141
 -0.138

          Ground-State Mulliken Net Atomic Charges

     Atom                 Charge (a.u.)
  ----------------------------------------
      1 O                    -0.205928
      2 C                     0.211526
      3 C                    -0.077608
      4 C                    -0.078836
      5 C                     0.210087
      6 O                    -0.181887
      7 C                    -0.058207
      8 C                    -0.052915
      9 O                    -0.193021
     10 C                     0.225379
     11 C                    -0.081331
     12 C                    -0.079435
     13 C                     0.216715
     14 O                    -0.199690
     15 O                    -0.172247
     16 O                    -0.168602
     17 O                    -0.192557
     18 C                    -0.127910
     19 C                     0.022162
     20 C                    -0.144689
     21 C                    -0.141924
     22 C                     0.026717
     23 O                    -0.189718
     24 H                     0.083520
     25 H                     0.084732
     26 H                     0.078239
     27 H                     0.078642
     28 H                     0.074797
     29 H                     0.078737
     30 H                     0.074485
     31 H                     0.089471
     32 O                    -0.197670
     33 C                    -0.128590
     34 C                     0.025387
     35 C                    -0.144883
     36 C                    -0.143072
     37 C                     0.026344
     38 O                    -0.184983
     39 H                     0.085215
     40 H                     0.084971
     41 H                     0.090866
     42 H                     0.087652
     43 H                     0.077614
     44 H                     0.073203
     45 H                     0.077440
     46 H                     0.074100
     47 H                     0.081272
     48 H                     0.086610
     49 H                     0.091574
     50 H                     0.091670
     51 H                     0.094606
     52 H                     0.090080
     53 H                     0.082512
     54 H                     0.088021
     55 H                     0.097674
     56 H                     0.083684
  ----------------------------------------
  Sum of atomic charges =     0.000000

                    Cartesian Multipole Moments
 -----------------------------------------------------------------
    Charge (ESU x 10^10)
                 0.0000
    Dipole Moment (Debye)
         X       1.5914      Y      -1.1265      Z       0.3873
       Tot       1.9878
    Quadrupole Moments (Debye-Ang)
        XX    -129.1097     XY      -0.1523     YY    -148.1306
        XZ       6.3692     YZ       6.8790     ZZ    -172.1456

 Total job time:  93.56s(wall), 4372.59s(cpu)
        *  Thank you very much for using Q-Chem.  Have a nice day.  *
