 Q-Chem 5.0, Q-Chem, Inc., Pleasanton, CA (2017)
 Q-Chem 5.0.1 for Intel X86 EM64T Linux

User input:
--------------------------------------------------------------
$molecule
0  1
O -3.7249289861 0.9741745339 2.2627949229
C -4.0146669997 1.2204918449 1.0737785491
C -4.8242159293 0.3224952674 0.0706805239
C -3.8719133236 -0.3847627153 -0.9892984688
C -2.398638156 0.1498365909 -0.9879247862
O -1.7657067239 -0.1920486044 0.2602729302
C -0.3472290358 -0.565426566 0.0533132479
C 0.6060822212 0.6134048683 0.514339399
O 1.8351181937 0.900509713 -0.2767062146
C 2.1388275664 -0.0948478061 -1.2881072027
C 3.3335654306 -1.0546801829 -0.8760493453
C 4.5931385639 -0.2899677292 -0.3128414642
C 4.585500456 1.2180081278 -0.7267199814
O 3.8038342026 1.748212583 -1.5501871755
O -3.5412507434 2.3630592544 0.3475853041
O 5.6232539158 1.9098720793 -0.0350976007
O 1.4604456165 -0.2491946178 -2.3281509579
C 5.6238460574 3.3397745101 -0.4261803982
C 2.9146045647 -1.8672452249 0.425135952
C 4.0247110523 -2.9449039147 0.7559705063
C 5.130554856 -2.0552841878 1.4381534007
C 4.509991899 -0.6173908765 1.2409246396
O 3.0704382065 -0.8528126332 1.4941093499
H 3.5760372485 -1.7088809454 -1.7314953404
H 5.5217359756 -0.7269924179 -0.7262448452
H 1.8815362944 -2.2624246322 0.4112659773
H 3.630496335 -3.7059324052 1.4479299622
H 4.3879234837 -3.4503409237 -0.1532397963
H 5.225311238 -2.2860036776 2.5114407338
H 6.119535371 -2.1588556268 0.9638981522
H 4.9037586617 0.1753774321 1.9059852904
O -1.8010486143 0.6650585846 -1.9568467771
C -2.6419863871 3.1686128589 1.2040521825
C -5.4003766968 -0.9410463309 0.8308958878
C -6.390610864 -1.7115045651 -0.1294253034
C -5.3811403467 -2.4453850141 -1.0894318727
C -4.0012143747 -1.905398819 -0.5416857685
O -4.2202455193 -1.8341301278 0.9187449952
H -5.6037308594 0.9260275759 -0.4276413281
H -4.2602244842 -0.2361924483 -2.0125046566
H -1.8151822856 2.5515080282 1.6110573867
H -5.7885363804 -0.7211290504 1.8440459923
H -7.0040627759 -2.4289391105 0.4381956985
H -7.0608093048 -1.0214705878 -0.6666552276
H -5.4367778365 -3.5394814494 -0.9714877169
H -5.5379984412 -2.1951552992 -2.1507502512
H -3.1189770295 -2.5331206135 -0.7726997395
H -3.1886732343 3.6288077579 2.0526458761
H -2.2307442713 3.9631836843 0.5546794473
H 6.4081806203 3.8224683356 0.1852579621
H 4.6434186996 3.816383325 -0.222848956
H 5.8612913076 3.4663646633 -1.5023213306
H 0.0015603812 1.5474436683 0.5101463113
H 0.9379063403 0.4238236336 1.5588637064
H -0.1568119087 -0.7858072541 -1.0192368011
H -0.171643693 -1.471328545 0.6674984527
$end

$rem
JOBTYPE                   OPT
METHOD                    B3LYP
DFT_D                     d3_op
BASIS                     STO-3G
GEOM_OPT_MAX_CYCLES       100
GEOM_OPT_TOL_GRADIENT     300
GEOM_OPT_TOL_DISPLACEMENT 1200
GEOM_OPT_TOL_ENERGY       100
SYMMETRY                  False
THRESH                    12
SCF_CONVERGENCE           8
MAX_SUB_FILE_NUM          128
MEM_STATIC                400
MEM_TOTAL                 4000
$end
--------------------------------------------------------------

   16   -1510.2494728165      3.79E-09 Convergence criterion met
 Total energy in the final basis set = -1510.24947282
   14   -1510.2546808867      3.18E-09 Convergence criterion met
 Total energy in the final basis set = -1510.25468089
   14   -1510.2593101496      2.50E-09 Convergence criterion met
 Total energy in the final basis set = -1510.25931015
   14   -1510.2625622329      3.82E-09 Convergence criterion met
 Total energy in the final basis set = -1510.26256223
   14   -1510.2644265731      1.85E-09 Convergence criterion met
 Total energy in the final basis set = -1510.26442657
   13   -1510.2658322386      8.41E-09 Convergence criterion met
 Total energy in the final basis set = -1510.26583224
   14   -1510.2679660905      1.66E-09 Convergence criterion met
 Total energy in the final basis set = -1510.26796609
   14   -1510.2701319485      2.22E-09 Convergence criterion met
   13   -1510.2943963447      2.51E-09 Convergence criterion met
 Total energy in the final basis set = -1510.29439634
   12   -1510.2944442030      3.32E-09 Convergence criterion met
 Total energy in the final basis set = -1510.29444420
   12   -1510.2944503559      2.55E-09 Convergence criterion met
 Total energy in the final basis set = -1510.29445036
   11   -1510.2944544928      5.40E-09 Convergence criterion met
 Total energy in the final basis set = -1510.29445449
   11   -1510.2944542191      4.56E-09 Convergence criterion met
 Total energy in the final basis set = -1510.29445422
    9   -1510.2944562063      6.27E-09 Convergence criterion met
 Total energy in the final basis set = -1510.29445621

             Standard Nuclear Orientation (Angstroms)
    I     Atom           X                Y                Z
 ----------------------------------------------------------------
    1      O      -4.1271966424    -1.0625448457     1.9990186923
    2      C      -3.7806223476     0.0576331854     1.5698935514
    3      C      -4.3718465273     0.8244974871     0.3344108516
    4      C      -3.3073249364     1.2978397580    -0.7395883225
    5      C      -1.8383221229     0.8360706180    -0.4635888161
    6      O      -1.8537084360    -0.5417658693    -0.0975290239
    7      C      -0.4850740564    -1.1006722973     0.0135940410
    8      C       0.2975023359    -0.5998184236     1.2932473571
    9      O       1.7629034456    -0.6519199374     1.0681978742
   10      C       2.2129775859    -2.0113182120     0.9921480852
   11      C       3.7277699097    -2.0135897611     0.6060796122
   12      C       4.0867321650    -1.0905420052    -0.6374695560
   13      C       2.8327370708    -0.3864704337    -1.2831606282
   14      O       1.8475278836    -0.9684399943    -1.7987198182
   15      O      -2.8038950493     0.8988985441     2.2011797347
   16      O       3.0030439222     1.0240059968    -1.2641211201
   17      O       1.4899324185    -3.0057065654     1.2190046977
   18      C       1.8474658495     1.6933851609    -1.9124631560
   19      C       4.6281600315    -1.3448762636     1.7371055327
   20      C       6.1317470138    -1.7542332339     1.4782209298
   21      C       6.4837241117    -0.8448379480     0.2426347643
   22      C       5.1167768563    -0.0837992024     0.0232996716
   23      O       4.5936669838     0.0937311723     1.3981351050
   24      H       4.0187208643    -3.0632974226     0.4266319643
   25      H       4.5666488096    -1.6946649711    -1.4296222388
   26      H       4.2651036424    -1.5108433863     2.7700235887
   27      H       6.7528112670    -1.5059528417     2.3536080069
   28      H       6.2396273777    -2.8294155099     1.2628041645
   29      H       7.2878092188    -0.1311161717     0.4825599434
   30      H       6.7815767098    -1.4271535902    -0.6438694463
   31      H       5.1875699136     0.8925764291    -0.4917516874
   32      O      -0.8076357511     1.5352179503    -0.5983941156
   33      C      -2.3087574410     0.2522739683     3.4373889901
   34      C      -5.2974890628    -0.1207045597    -0.5398551820
   35      C      -6.2262772282     0.7877435599    -1.4344110571
   36      C      -5.1923061517     1.3190836712    -2.4960636535
   37      C      -3.8741504979     0.5736737086    -2.0417114534
   38      O      -4.3600859357    -0.7205618778    -1.5181280993
   39      H      -4.9366922026     1.6947505502     0.7168417180
   40      H      -3.2994752365     2.3958657551    -0.8529144775
   41      H      -2.0323018219    -0.8064442310     3.2621555462
   42      H      -5.8041038329    -0.9128859617     0.0451565949
   43      H      -7.0162299322     0.1832487518    -1.9077909364
   44      H      -6.6986484309     1.5978769482    -0.8561065947
   45      H      -5.4706458894     1.0194647699    -3.5190325088
   46      H      -5.0782525307     2.4145282754    -2.4677922409
   47      H      -3.1235483784     0.4143352974    -2.8401872902
   48      H      -3.0736817238     0.2849737246     4.2405686020
   49      H      -1.4192955201     0.8269119914     3.7546386898
   50      H       2.1058674027     2.7674282716    -1.9384974505
   51      H       0.9020940714     1.5485854755    -1.3369989621
   52      H       1.7043870901     1.3229944123    -2.9476252705
   53      H       0.0729947763     0.4688645676     1.4790195558
   54      H       0.0139538293    -1.2006638729     2.1822419508
   55      H       0.1385066132    -0.8700818361    -0.8850910197
   56      H      -0.6281134088    -2.1969621520     0.0737659635
 ----------------------------------------------------------------

    9   -1510.2944561511      8.30E-09 Convergence criterion met
 Total energy in the final basis set = -1510.29445615
 Final energy is   -1510.29445615106
 **  OPTIMIZATION CONVERGED  **

                    Orbital Energies (a.u.)
 --------------------------------------------------------------

 Alpha MOs
 -- Occupied --
-18.941 -18.934 -18.932 -18.932 -18.889 -18.886 -18.882 -18.876
-18.875 -18.864 -10.108 -10.100 -10.099 -10.098 -10.068 -10.064
-10.062 -10.060 -10.058 -10.058 -10.055 -10.042 -10.040 -10.038
-10.037 -10.036 -10.022 -10.020 -10.020 -10.018  -1.019  -1.013
 -1.008  -1.004  -0.971  -0.968  -0.943  -0.937  -0.936  -0.929
 -0.765  -0.762  -0.728  -0.722  -0.709  -0.706  -0.692  -0.663
 -0.651  -0.615  -0.598  -0.586  -0.546  -0.544  -0.538  -0.536
 -0.513  -0.511  -0.484  -0.478  -0.466  -0.465  -0.448  -0.438
 -0.432  -0.432  -0.425  -0.415  -0.413  -0.406  -0.404  -0.394
 -0.391  -0.377  -0.372  -0.368  -0.360  -0.357  -0.354  -0.351
 -0.347  -0.336  -0.333  -0.331  -0.328  -0.324  -0.321  -0.310
 -0.307  -0.306  -0.303  -0.301  -0.295  -0.293  -0.287  -0.278
 -0.273  -0.262  -0.254  -0.246  -0.236  -0.234  -0.231  -0.191
 -0.177  -0.177  -0.163  -0.159  -0.155  -0.151  -0.147  -0.144
 -0.141

          Ground-State Mulliken Net Atomic Charges

     Atom                 Charge (a.u.)
  ----------------------------------------
      1 O                    -0.210807
      2 C                     0.216039
      3 C                    -0.078549
      4 C                    -0.078232
      5 C                     0.219825
      6 O                    -0.164891
      7 C                    -0.063928
      8 C                    -0.052306
      9 O                    -0.167101
     10 C                     0.208960
     11 C                    -0.079775
     12 C                    -0.077946
     13 C                     0.217947
     14 O                    -0.230876
     15 O                    -0.176158
     16 O                    -0.165747
     17 O                    -0.212434
     18 C                    -0.143901
     19 C                     0.026080
     20 C                    -0.143766
     21 C                    -0.144494
     22 C                     0.024373
     23 O                    -0.186033
     24 H                     0.085497
     25 H                     0.083532
     26 H                     0.082123
     27 H                     0.077773
     28 H                     0.073823
     29 H                     0.077589
     30 H                     0.072775
     31 H                     0.093444
     32 O                    -0.218011
     33 C                    -0.129853
     34 C                     0.024872
     35 C                    -0.143773
     36 C                    -0.143954
     37 C                     0.026055
     38 O                    -0.185044
     39 H                     0.084280
     40 H                     0.086054
     41 H                     0.092312
     42 H                     0.091623
     43 H                     0.078707
     44 H                     0.073122
     45 H                     0.078640
     46 H                     0.073786
     47 H                     0.083239
     48 H                     0.086139
     49 H                     0.089716
     50 H                     0.084547
     51 H                     0.113946
     52 H                     0.080245
     53 H                     0.096296
     54 H                     0.086067
     55 H                     0.109229
     56 H                     0.098926
  ----------------------------------------
  Sum of atomic charges =     0.000000

                    Cartesian Multipole Moments
 -----------------------------------------------------------------
    Charge (ESU x 10^10)
                 0.0000
    Dipole Moment (Debye)
         X       0.3956      Y       1.7652      Z      -0.1771
       Tot       1.8177
    Quadrupole Moments (Debye-Ang)
        XX    -140.8440     XY     -17.2269     YY    -165.8511
        XZ      -0.0491     YZ      -2.8524     ZZ    -153.4925

 Total job time:  119.38s(wall), 5660.73s(cpu)
        *  Thank you very much for using Q-Chem.  Have a nice day.  *
