 Q-Chem 5.0, Q-Chem, Inc., Pleasanton, CA (2017)
 Q-Chem 5.0.1 for Intel X86 EM64T Linux

User input:
--------------------------------------------------------------
$molecule
0  1
O -5.4312025616 -0.8902959094 1.6785003338
C -5.388905223 -0.2558404993 0.6031936678
C -4.5037722627 -0.5720755871 -0.6611607986
C -3.0360110342 0.0234086185 -0.6134887171
C -2.7901655562 0.9511636885 0.6440068951
O -1.4296662105 1.2096488761 1.0303868964
C -0.5383331246 1.5979078193 -0.0891019399
C 0.8688318602 0.9474380559 0.1334242726
O 1.6204132608 1.8667093701 1.0176627125
C 2.9522217831 1.484340143 1.3692218751
C 3.5502883757 0.0485252808 1.037995393
C 3.4947433205 -0.7534983758 -0.3331954224
C 3.7327147399 0.0500280614 -1.6760502357
O 4.6111377941 -0.203713183 -2.5286494957
O -6.2574868544 0.8359973663 0.2657053699
O 2.802264346 1.1288773971 -1.8296933462
O 3.6070754592 2.3090582817 2.0480808795
C 3.0196382516 1.8572858128 -3.1003591251
C 5.079492877 -0.1237851456 1.4481255479
C 5.1683244083 -1.469645871 2.2619145835
C 4.8167859404 -2.5011053155 1.1231577928
C 4.845244751 -1.5795621751 -0.1612684853
O 5.777669171 -0.4769179802 0.1902960914
H 2.9674270782 -0.5927549277 1.7314392293
H 2.5838572074 -1.3734273781 -0.4164647882
H 5.5207227023 0.7759071514 1.9201752834
H 6.1920274414 -1.6237911553 2.6396227805
H 4.4645822392 -1.5051790506 3.1088028064
H 5.5729988074 -3.2976575681 1.0438761987
H 3.8296064384 -2.9692525765 1.2682247326
H 5.1727868784 -2.0733286277 -1.0962608073
O -3.7007441682 1.3204300571 1.4197071229
C -7.0677294503 1.2083229162 1.4465387152
C -4.1827345656 -2.1245578125 -0.7299964579
C -3.6108011468 -2.4700947442 -2.1624326408
C -2.1482596282 -1.8988914448 -2.0561814236
C -2.1638155717 -1.3071763769 -0.5921395896
O -3.0045426353 -2.2631530758 0.1588316404
H -5.0418605129 -0.2158260555 -1.5569376233
H -2.8444996702 0.6057298682 -1.5330520454
H -6.4234751681 1.5500929051 2.2823223279
H -5.0057561333 -2.7758729814 -0.377893624
H -3.6080170011 -3.5596783439 -2.3240821801
H -4.1946560899 -1.9944718564 -2.9666724785
H -1.394714356 -2.698278806 -2.1402127282
H -1.9340575967 -1.1304297997 -2.8161139805
H -1.1741411057 -1.2029070436 -0.1080741686
H -7.6880417449 0.3601754195 1.8025089315
H -7.7243724755 2.0361670098 1.121356572
H 2.1076279685 1.7735920232 -3.723437499
H 3.8871205761 1.4085566929 -3.6250698232
H 3.2149244272 2.9222934252 -2.8688138612
H 0.7444401751 -0.0558618962 0.5955772204
H 1.4126321813 0.8723769124 -0.837870794
H -0.4295314781 2.7054955074 -0.0994396659
H -0.9320429103 1.2767156762 -1.0738800562
$end

$rem
JOBTYPE                   OPT
METHOD                    B3LYP
DFT_D                     d3_op
BASIS                     STO-3G
GEOM_OPT_MAX_CYCLES       100
GEOM_OPT_TOL_GRADIENT     300
GEOM_OPT_TOL_DISPLACEMENT 1200
GEOM_OPT_TOL_ENERGY       100
SYMMETRY                  False
THRESH                    12
SCF_CONVERGENCE           8
MAX_SUB_FILE_NUM          128
MEM_STATIC                400
MEM_TOTAL                 4000
$end
--------------------------------------------------------------

   16   -1510.2417407290      6.22E-09 Convergence criterion met
 Total energy in the final basis set = -1510.24174073
   14   -1510.2428978604      1.64E-09 Convergence criterion met
 Total energy in the final basis set = -1510.24289786
   13   -1510.2476161190      5.56E-09 Convergence criterion met
 Total energy in the final basis set = -1510.24761612
   13   -1510.2511172976      7.39E-09 Convergence criterion met
 Total energy in the final basis set = -1510.25111730
   13   -1510.2534272349      4.98E-09 Convergence criterion met
 Total energy in the final basis set = -1510.25342723
   13   -1510.2553717579      4.75E-09 Convergence criterion met
 Total energy in the final basis set = -1510.25537176
   13   -1510.2569474535      8.35E-09 Convergence criterion met
 Total energy in the final basis set = -1510.25694745
   13   -1510.2579971223      7.35E-09 Convergence criterion met
   12   -1510.2641527872      3.88E-09 Convergence criterion met
 Total energy in the final basis set = -1510.26415279
   12   -1510.2642031532      5.95E-09 Convergence criterion met
 Total energy in the final basis set = -1510.26420315
   12   -1510.2642428772      5.55E-09 Convergence criterion met
 Total energy in the final basis set = -1510.26424288
   11   -1510.2642576405      7.68E-09 Convergence criterion met
 Total energy in the final basis set = -1510.26425764
    9   -1510.2642616646      8.79E-09 Convergence criterion met
 Total energy in the final basis set = -1510.26426166
    9   -1510.2642594251      7.51E-09 Convergence criterion met
 Total energy in the final basis set = -1510.26425943

             Standard Nuclear Orientation (Angstroms)
    I     Atom           X                Y                Z
 ----------------------------------------------------------------
    1      O      -5.2174404481     0.4747640613     1.9193429219
    2      C      -5.0120296899     0.3607767067     0.6925822501
    3      C      -4.2643939390    -0.8197069940    -0.0395635148
    4      C      -2.8533376050    -0.4499471826    -0.6630089868
    5      C      -2.4753489903     1.0580706607    -0.3862546469
    6      O      -1.4957911627     1.7164469988    -1.2023789337
    7      C      -0.5021478833     0.8412867464    -1.8594009259
    8      C       0.7683922629     0.6452383763    -0.9554588607
    9      O       1.6288153980     1.8287977963    -1.1924316573
   10      C       2.8450281919     1.8759324199    -0.4281341253
   11      C       3.0677515432     0.8360765481     0.7456713297
   12      C       3.5800912460    -0.6068114457     0.3020828298
   13      C       3.8107323522    -0.7552799760    -1.2377369582
   14      O       4.8118782514    -0.4295605062    -1.9071432513
   15      O      -5.6030255405     1.1934648926    -0.3184049824
   16      O       2.6383451774    -1.3821805640    -1.8090266956
   17      O       3.6502142286     2.7924637316    -0.7024023186
   18      C       2.7643160768    -1.4869693883    -3.2820372701
   19      C       4.2790659766     1.3092380880     1.6578904722
   20      C       4.1885210983     0.5460727593     3.0371482393
   21      C       4.6608127092    -0.8949848317     2.6162622831
   22      C       4.9619589515    -0.6811126569     1.0810792706
   23      O       5.4640695877     0.7075308906     1.0053887491
   24      H       2.1421674858     0.7468117983     1.3410159368
   25      H       2.8716931375    -1.3914695994     0.6225032349
   26      H       4.3907945140     2.4089388379     1.7177559034
   27      H       4.8756029368     0.9971087651     3.7705118109
   28      H       3.1690114460     0.5558136067     3.4548557756
   29      H       5.5780172772    -1.1921866749     3.1487390353
   30      H       3.8898706894    -1.6637754841     2.7853930554
   31      H       5.6947800287    -1.3824979914     0.6373481002
   32      O      -3.0671481615     1.7671878016     0.4613390795
   33      C      -6.2924993496     2.3359686026     0.3192433254
   34      C      -3.8631930293    -1.9564481945     0.9869079116
   35      C      -3.5712438552    -3.2801609231     0.1790982143
   36      C      -2.1867035689    -2.9290715315    -0.4818596716
   37      C      -1.9212819252    -1.4867006110     0.1100103819
   38      O      -2.5209398772    -1.5394815146     1.4588757694
   39      H      -4.9346712851    -1.2031233879    -0.8296571687
   40      H      -2.8517772795    -0.6369621126    -1.7510116680
   41      H      -5.5731476950     2.9910458354     0.8523058897
   42      H      -4.5574966411    -2.0518664447     1.8439166236
   43      H      -3.4850028393    -4.1402411960     0.8618906649
   44      H      -4.3554481065    -3.4944084420    -0.5643103438
   45      H      -1.3956469126    -3.6263639751    -0.1629397059
   46      H      -2.2294411043    -2.9244729625    -1.5829579004
   47      H      -0.8547534104    -1.2034403052     0.1767825495
   48      H      -7.0648110857     1.9987898202     1.0408549908
   49      H      -6.7722870664     2.9029719564    -0.4997223249
   50      H       2.5705380536    -2.5358494649    -3.5778389169
   51      H       3.7865719855    -1.1813692497    -3.5833767192
   52      H       2.0173084540    -0.8234121871    -3.7610668561
   53      H       0.4515397190     0.5742208411     0.1068436023
   54      H       1.3135670981    -0.2877662114    -1.2532490265
   55      H      -0.1963281337     1.3742025411    -2.7839265068
   56      H      -0.9160416056    -0.1458427677    -2.1454874406
 ----------------------------------------------------------------

    9   -1510.2642600151      7.08E-09 Convergence criterion met
 Total energy in the final basis set = -1510.26426002
 Final energy is   -1510.26426001514
 **  OPTIMIZATION CONVERGED  **

                    Orbital Energies (a.u.)
 --------------------------------------------------------------

 Alpha MOs
 -- Occupied --
-18.957 -18.943 -18.932 -18.917 -18.905 -18.896 -18.894 -18.891
-18.876 -18.858 -10.119 -10.111 -10.101 -10.090 -10.087 -10.076
-10.072 -10.070 -10.068 -10.063 -10.062 -10.053 -10.052 -10.048
-10.045 -10.036 -10.030 -10.026 -10.026 -10.024  -1.032  -1.018
 -1.006  -0.996  -0.978  -0.976  -0.958  -0.948  -0.936  -0.922
 -0.772  -0.769  -0.730  -0.728  -0.720  -0.712  -0.711  -0.677
 -0.654  -0.610  -0.608  -0.601  -0.557  -0.554  -0.545  -0.544
 -0.521  -0.517  -0.493  -0.482  -0.476  -0.464  -0.462  -0.459
 -0.447  -0.439  -0.434  -0.432  -0.421  -0.416  -0.406  -0.404
 -0.400  -0.395  -0.391  -0.376  -0.366  -0.363  -0.362  -0.353
 -0.351  -0.347  -0.338  -0.337  -0.331  -0.328  -0.321  -0.318
 -0.317  -0.313  -0.311  -0.307  -0.303  -0.292  -0.287  -0.284
 -0.276  -0.271  -0.251  -0.246  -0.243  -0.241  -0.239  -0.200
 -0.182  -0.179  -0.167  -0.163  -0.159  -0.152  -0.150  -0.148
 -0.140

          Ground-State Mulliken Net Atomic Charges

     Atom                 Charge (a.u.)
  ----------------------------------------
      1 O                    -0.218168
      2 C                     0.217319
      3 C                    -0.080156
      4 C                    -0.084355
      5 C                     0.212996
      6 O                    -0.165454
      7 C                    -0.047992
      8 C                    -0.069484
      9 O                    -0.171388
     10 C                     0.203141
     11 C                    -0.084141
     12 C                    -0.080907
     13 C                     0.211474
     14 O                    -0.192803
     15 O                    -0.178430
     16 O                    -0.175053
     17 O                    -0.195434
     18 C                    -0.137338
     19 C                     0.026735
     20 C                    -0.144240
     21 C                    -0.144357
     22 C                     0.026992
     23 O                    -0.182418
     24 H                     0.080954
     25 H                     0.085041
     26 H                     0.093661
     27 H                     0.080601
     28 H                     0.074380
     29 H                     0.080145
     30 H                     0.073230
     31 H                     0.086187
     32 O                    -0.188742
     33 C                    -0.128545
     34 C                     0.024985
     35 C                    -0.143913
     36 C                    -0.144334
     37 C                     0.021544
     38 O                    -0.187600
     39 H                     0.083244
     40 H                     0.079822
     41 H                     0.092886
     42 H                     0.092285
     43 H                     0.079113
     44 H                     0.074637
     45 H                     0.077807
     46 H                     0.071165
     47 H                     0.075676
     48 H                     0.086215
     49 H                     0.086058
     50 H                     0.089507
     51 H                     0.108357
     52 H                     0.086761
     53 H                     0.075533
     54 H                     0.104097
     55 H                     0.100075
     56 H                     0.082631
  ----------------------------------------
  Sum of atomic charges =    -0.000000

                    Cartesian Multipole Moments
 -----------------------------------------------------------------
    Charge (ESU x 10^10)
                -0.0000
    Dipole Moment (Debye)
         X      -1.1384      Y      -5.5406      Z      -1.6515
       Tot       5.8925
    Quadrupole Moments (Debye-Ang)
        XX    -177.4032     XY      -8.2931     YY    -164.1828
        XZ      16.4927     YZ       6.9168     ZZ    -156.8739

 Total job time:  108.30s(wall), 5064.67s(cpu)
        *  Thank you very much for using Q-Chem.  Have a nice day.  *
