 Q-Chem 5.0, Q-Chem, Inc., Pleasanton, CA (2017)
 Q-Chem 5.0.1 for Intel X86 EM64T Linux

User input:
--------------------------------------------------------------
$molecule
0  1
O -3.94934 -3.66094 2.70899
C -3.26408 -4.56952 2.26188
C -3.36658 -6.02376 2.66595
C -2.57813 -6.46456 3.91009
C -1.91791 -5.36653 4.71416
O -1.62819 -5.82061 5.96927
C -0.98539 -7.09969 5.97092
C -1.49076 -7.94043 7.13878
O -0.73995 -7.63319 8.324
C -1.09864 -8.32128 9.43621
C -2.37205 -9.11231 9.25356
C -2.43729 -9.94564 7.96531
C -1.12042 -10.15148 7.24408
O -0.62587 -11.23458 6.96681
O -2.41604 -4.29803 1.23462
O 0.07674 -9.53444 7.60799
O -0.38795 -8.36321 10.42845
C 1.31079 -9.56987 6.95829
C -2.60127 -10.17818 10.33989
C -4.08748 -10.52189 10.422
C -4.26193 -11.30609 9.14158
C -2.81976 -11.30606 8.61607
O -2.04168 -11.3406 9.78775
H -3.20141 -8.36972 9.2935
H -3.30933 -9.74333 7.29793
H -2.22664 -9.87847 11.34264
H -4.23041 -11.21197 11.28418
H -4.75948 -9.64414 10.53661
H -4.56283 -12.34411 9.40801
H -4.98814 -10.88126 8.41558
H -2.69149 -12.16812 7.92451
O -1.87736 -4.17653 4.45023
C -2.21234 -3.04055 0.70613
C -4.80808 -6.41754 2.97359
C -4.97392 -7.93715 2.89725
C -4.2836 -8.35162 4.17548
C -3.83877 -6.98672 4.70044
O -4.89832 -6.13811 4.3342
H -3.02225 -6.5956 1.77239
H -1.91018 -7.27296 3.56913
H -1.81969 -2.35655 1.48881
H -5.54558 -5.90875 2.31419
H -6.05464 -8.19142 2.97772
H -4.55391 -8.37642 1.96673
H -5.05397 -8.75847 4.86921
H -3.45593 -9.08504 4.06622
H -3.73662 -7.03588 5.78989
H -3.16352 -2.63764 0.29733
H -1.4698 -3.10703 -0.11526
H 1.65046 -8.53363 6.76155
H 1.25562 -10.10064 5.9835
H 2.05682 -10.06678 7.61039
H -2.41213 -7.3936 7.4459
H -2.22669 -8.35533 6.41366
H 0.06367 -6.85813 6.24365
H -0.72534 -7.67513 5.06572
$end

$opt
CONSTRAINT
tors           1           2           3           4     -85.263
tors           3           4           5           6    +161.053
tors           4           5           6           7     +47.368
tors           5           6           7           8    -142.105
tors           6           7           8           9     -85.263
tors           7           8           9          10    -180.000
tors           8           9          10          11      -9.474
tors           9          10          11          12     +47.368
tors          11          12          13          14    +123.158
ENDCONSTRAINT
$end

$rem
JOBTYPE                   OPT
METHOD                    B3LYP
DFT_D                     d3_op
BASIS                     STO-3G
GEOM_OPT_MAX_CYCLES       100
GEOM_OPT_TOL_GRADIENT     300
GEOM_OPT_TOL_DISPLACEMENT 1200
GEOM_OPT_TOL_ENERGY       100
SYMMETRY                  False
THRESH                    12
SCF_CONVERGENCE           8
MAX_SUB_FILE_NUM          128
MEM_STATIC                400
MEM_TOTAL                 4000
$end
--------------------------------------------------------------

   18   -1509.8401472425      8.28E-09 Convergence criterion met
 Total energy in the final basis set = -1509.84014724
   14   -1509.9499059731      9.80E-09 Convergence criterion met
 Total energy in the final basis set = -1509.94990597
   14   -1510.0292948470      4.47E-09 Convergence criterion met
 Total energy in the final basis set = -1510.02929485
   14   -1510.0841361854      3.28E-09 Convergence criterion met
 Total energy in the final basis set = -1510.08413619
   14   -1510.1232549683      3.41E-09 Convergence criterion met
 Total energy in the final basis set = -1510.12325497
   14   -1510.1505896220      2.66E-09 Convergence criterion met
 Total energy in the final basis set = -1510.15058962
   13   -1510.1701567627      8.61E-09 Convergence criterion met
 Total energy in the final basis set = -1510.17015676
   13   -1510.1849173914      6.07E-09 Convergence criterion met
   10   -1510.2417014945      7.90E-09 Convergence criterion met
 Total energy in the final basis set = -1510.24170149
   11   -1510.2417193535      3.07E-09 Convergence criterion met
 Total energy in the final basis set = -1510.24171935
   10   -1510.2417338537      8.41E-09 Convergence criterion met
 Total energy in the final basis set = -1510.24173385
    9   -1510.2417443120      8.31E-09 Convergence criterion met
 Total energy in the final basis set = -1510.24174431
    9   -1510.2417480622      6.93E-09 Convergence criterion met
 Total energy in the final basis set = -1510.24174806
    9   -1510.2417505451      5.57E-09 Convergence criterion met
 Total energy in the final basis set = -1510.24175055

             Standard Nuclear Orientation (Angstroms)
    I     Atom           X                Y                Z
 ----------------------------------------------------------------
    1      O      -5.4312025616    -0.8902959094     1.6785003338
    2      C      -5.3889052230    -0.2558404993     0.6031936678
    3      C      -4.5037722627    -0.5720755871    -0.6611607986
    4      C      -3.0360110342     0.0234086185    -0.6134887171
    5      C      -2.7901655562     0.9511636885     0.6440068951
    6      O      -1.4296662105     1.2096488761     1.0303868964
    7      C      -0.5383331246     1.5979078193    -0.0891019399
    8      C       0.8688318602     0.9474380559     0.1334242726
    9      O       1.6204132608     1.8667093701     1.0176627125
   10      C       2.9522217831     1.4843401430     1.3692218751
   11      C       3.5502883757     0.0485252808     1.0379953930
   12      C       3.4947433205    -0.7534983758    -0.3331954224
   13      C       3.7327147399     0.0500280614    -1.6760502357
   14      O       4.6111377941    -0.2037131830    -2.5286494957
   15      O      -6.2574868544     0.8359973663     0.2657053699
   16      O       2.8022643460     1.1288773971    -1.8296933462
   17      O       3.6070754592     2.3090582817     2.0480808795
   18      C       3.0196382516     1.8572858128    -3.1003591251
   19      C       5.0794928770    -0.1237851456     1.4481255479
   20      C       5.1683244083    -1.4696458710     2.2619145835
   21      C       4.8167859404    -2.5011053155     1.1231577928
   22      C       4.8452447510    -1.5795621751    -0.1612684853
   23      O       5.7776691710    -0.4769179802     0.1902960914
   24      H       2.9674270782    -0.5927549277     1.7314392293
   25      H       2.5838572074    -1.3734273781    -0.4164647882
   26      H       5.5207227023     0.7759071514     1.9201752834
   27      H       6.1920274414    -1.6237911553     2.6396227805
   28      H       4.4645822392    -1.5051790506     3.1088028064
   29      H       5.5729988074    -3.2976575681     1.0438761987
   30      H       3.8296064384    -2.9692525765     1.2682247326
   31      H       5.1727868784    -2.0733286277    -1.0962608073
   32      O      -3.7007441682     1.3204300571     1.4197071229
   33      C      -7.0677294503     1.2083229162     1.4465387152
   34      C      -4.1827345656    -2.1245578125    -0.7299964579
   35      C      -3.6108011468    -2.4700947442    -2.1624326408
   36      C      -2.1482596282    -1.8988914448    -2.0561814236
   37      C      -2.1638155717    -1.3071763769    -0.5921395896
   38      O      -3.0045426353    -2.2631530758     0.1588316404
   39      H      -5.0418605129    -0.2158260555    -1.5569376233
   40      H      -2.8444996702     0.6057298682    -1.5330520454
   41      H      -6.4234751681     1.5500929051     2.2823223279
   42      H      -5.0057561333    -2.7758729814    -0.3778936240
   43      H      -3.6080170011    -3.5596783439    -2.3240821801
   44      H      -4.1946560899    -1.9944718564    -2.9666724785
   45      H      -1.3947143560    -2.6982788060    -2.1402127282
   46      H      -1.9340575967    -1.1304297997    -2.8161139805
   47      H      -1.1741411057    -1.2029070436    -0.1080741686
   48      H      -7.6880417449     0.3601754195     1.8025089315
   49      H      -7.7243724755     2.0361670098     1.1213565720
   50      H       2.1076279685     1.7735920232    -3.7234374990
   51      H       3.8871205761     1.4085566929    -3.6250698232
   52      H       3.2149244272     2.9222934252    -2.8688138612
   53      H       0.7444401751    -0.0558618962     0.5955772204
   54      H       1.4126321813     0.8723769124    -0.8378707940
   55      H      -0.4295314781     2.7054955074    -0.0994396659
   56      H      -0.9320429103     1.2767156762    -1.0738800562
 ----------------------------------------------------------------

    9   -1510.2417508824      4.94E-09 Convergence criterion met
 Total energy in the final basis set = -1510.24175088
 Final energy is   -1510.24175088244
 **  OPTIMIZATION CONVERGED  **

                    Orbital Energies (a.u.)
 --------------------------------------------------------------

 Alpha MOs
 -- Occupied --
-18.963 -18.932 -18.931 -18.919 -18.900 -18.898 -18.895 -18.890
-18.869 -18.858 -10.121 -10.111 -10.101 -10.089 -10.084 -10.078
-10.070 -10.066 -10.065 -10.063 -10.060 -10.056 -10.052 -10.045
-10.041 -10.036 -10.030 -10.026 -10.026 -10.022  -1.035  -1.015
 -1.004  -0.996  -0.977  -0.976  -0.957  -0.948  -0.933  -0.922
 -0.770  -0.768  -0.730  -0.728  -0.718  -0.711  -0.706  -0.680
 -0.654  -0.610  -0.604  -0.597  -0.553  -0.552  -0.544  -0.544
 -0.520  -0.516  -0.499  -0.487  -0.475  -0.463  -0.460  -0.458
 -0.440  -0.440  -0.434  -0.424  -0.422  -0.413  -0.409  -0.404
 -0.400  -0.391  -0.388  -0.379  -0.368  -0.362  -0.354  -0.353
 -0.346  -0.344  -0.340  -0.336  -0.334  -0.329  -0.322  -0.319
 -0.317  -0.314  -0.312  -0.305  -0.297  -0.291  -0.284  -0.280
 -0.275  -0.266  -0.249  -0.243  -0.241  -0.238  -0.238  -0.200
 -0.180  -0.179  -0.165  -0.163  -0.159  -0.150  -0.149  -0.146
 -0.139

          Ground-State Mulliken Net Atomic Charges

     Atom                 Charge (a.u.)
  ----------------------------------------
      1 O                    -0.217109
      2 C                     0.215021
      3 C                    -0.080548
      4 C                    -0.084598
      5 C                     0.216973
      6 O                    -0.174663
      7 C                    -0.046658
      8 C                    -0.066755
      9 O                    -0.168735
     10 C                     0.207408
     11 C                    -0.088761
     12 C                    -0.077666
     13 C                     0.216990
     14 O                    -0.202339
     15 O                    -0.174664
     16 O                    -0.173628
     17 O                    -0.205965
     18 C                    -0.133649
     19 C                     0.022325
     20 C                    -0.140541
     21 C                    -0.146770
     22 C                     0.024134
     23 O                    -0.189819
     24 H                     0.079602
     25 H                     0.083144
     26 H                     0.095995
     27 H                     0.079657
     28 H                     0.075187
     29 H                     0.080293
     30 H                     0.072443
     31 H                     0.090789
     32 O                    -0.182448
     33 C                    -0.128413
     34 C                     0.026113
     35 C                    -0.144468
     36 C                    -0.144141
     37 C                     0.022023
     38 O                    -0.185103
     39 H                     0.084091
     40 H                     0.078325
     41 H                     0.093752
     42 H                     0.088005
     43 H                     0.079125
     44 H                     0.074356
     45 H                     0.077103
     46 H                     0.070066
     47 H                     0.078891
     48 H                     0.085843
     49 H                     0.085965
     50 H                     0.087030
     51 H                     0.109586
     52 H                     0.094787
     53 H                     0.074016
     54 H                     0.113606
     55 H                     0.095159
     56 H                     0.079637
  ----------------------------------------
  Sum of atomic charges =     0.000000

                    Cartesian Multipole Moments
 -----------------------------------------------------------------
    Charge (ESU x 10^10)
                 0.0000
    Dipole Moment (Debye)
         X      -0.5387      Y      -1.7562      Z      -4.9911
       Tot       5.3185
    Quadrupole Moments (Debye-Ang)
        XX    -175.5059     XY      -9.6331     YY    -162.7096
        XZ      10.9018     YZ      -7.1626     ZZ    -161.1971

 Total job time:  114.13s(wall), 4193.46s(cpu)
        *  Thank you very much for using Q-Chem.  Have a nice day.  *
