 Q-Chem 5.0, Q-Chem, Inc., Pleasanton, CA (2017)
 Q-Chem 5.0.1 for Intel X86 EM64T Linux

User input:
--------------------------------------------------------------
$molecule
0  1
O -2.9503610844 0.921496396 1.7691423291
C -3.7480114778 0.5746186921 0.8715240879
C -3.6052895692 -0.5911017202 -0.1662800926
C -2.4270478113 -0.3675629756 -1.2118366861
C -1.6754706155 0.989857982 -0.9911214187
O -0.6582541455 0.8168075414 -0.0045612498
C -0.2434504791 2.1291682665 0.554750212
C 1.1563162595 1.8875162462 1.2204247601
O 1.1470648065 0.6852487346 2.06701209
C 1.3959802448 -0.5733960307 1.4138509025
C 2.8202171509 -0.8777751872 0.7735600546
C 3.184530412 -0.406694436 -0.706505802
C 2.0769658578 0.2998441905 -1.557994434
O 1.7798053148 1.5158902858 -1.5548998007
O -5.0055351227 1.221860446 0.6307410365
O 1.4376786727 -0.67694227 -2.3897125768
O 0.6145127891 -1.5215858985 1.6564644582
C 0.5149540117 -0.0183855682 -3.347763797
C 3.9624892083 -0.1279259918 1.5910955997
C 5.3462750008 -0.8384151044 1.3169047506
C 5.6811042985 -0.3135156113 -0.1281623217
C 4.4085952608 0.5691605452 -0.4287360911
O 4.0867670758 1.1688609473 0.8839824048
H 2.9254614795 -1.9751797353 0.8397898706
H 3.5107166625 -1.2871233742 -1.2882720263
H 3.7172186061 0.0398435018 2.6575830785
H 6.099940567 -0.5115974339 2.0510218206
H 5.261732428 -1.9358979857 1.3626360232
H 6.5892405189 0.3100960952 -0.1309673944
H 5.8069042239 -1.125844753 -0.8613881577
H 4.5437227727 1.359503599 -1.1921071483
O -1.9446586881 2.0806505547 -1.5446274722
C -5.1852970526 2.3459759117 1.578329174
C -3.1443633695 -1.9529775404 0.5077505405
C -3.4062599385 -3.1225571095 -0.5229323573
C -2.2256911459 -2.9031319086 -1.5398998921
C -1.5160475288 -1.63739266 -0.9147628126
O -1.670753751 -1.841000303 0.5426482991
H -4.5742777159 -0.6966569575 -0.6852368602
H -2.8229974611 -0.3738475368 -2.2431015638
H -4.4088448959 3.1255197105 1.4372187856
H -3.5438745446 -2.1207112796 1.5264259893
H -3.3300173475 -4.1000414823 -0.020798454
H -4.3973312604 -3.0457306395 -0.9982318001
H -1.5361346155 -3.7621782172 -1.5501289822
H -2.5769637495 -2.7205180564 -2.5682252689
H -0.446360182 -1.5115037408 -1.1772847066
H -5.1494008385 2.0017462424 2.6321555581
H -6.1811883267 2.7736148567 1.3609478809
H -0.3388349753 -0.701057242 -3.510097506
H 1.0343100565 0.1545075972 -4.3122857377
H 0.1627697956 0.9523855599 -2.9471672496
H 1.9369542589 1.850562814 0.4300991356
H 1.3796036252 2.7354188264 1.9010766106
H -0.9982977027 2.4400755666 1.3095018077
H -0.1748821683 2.9001966645 -0.2425120907
$end

$rem
JOBTYPE                   OPT
METHOD                    B3LYP
DFT_D                     d3_op
BASIS                     STO-3G
GEOM_OPT_MAX_CYCLES       100
GEOM_OPT_TOL_GRADIENT     300
GEOM_OPT_TOL_DISPLACEMENT 1200
GEOM_OPT_TOL_ENERGY       100
SYMMETRY                  False
THRESH                    12
SCF_CONVERGENCE           8
MAX_SUB_FILE_NUM          128
MEM_STATIC                400
MEM_TOTAL                 4000
$end
--------------------------------------------------------------

   16   -1510.2652990320      5.81E-09 Convergence criterion met
 Total energy in the final basis set = -1510.26529903
   15   -1510.1776695158      6.51E-09 Convergence criterion met
 Total energy in the final basis set = -1510.17766952
   15   -1510.2674423988      8.80E-09 Convergence criterion met
 Total energy in the final basis set = -1510.26744240
   13   -1510.2671008508      7.86E-09 Convergence criterion met
 Total energy in the final basis set = -1510.26710085
   14   -1510.2682744040      3.93E-09 Convergence criterion met
 Total energy in the final basis set = -1510.26827440
   13   -1510.2702803185      6.81E-09 Convergence criterion met
 Total energy in the final basis set = -1510.27028032
   13   -1510.2701615742      7.53E-09 Convergence criterion met
 Total energy in the final basis set = -1510.27016157
   14   -1510.2714811551      5.07E-09 Convergence criterion met
   12   -1510.2836580371      4.72E-09 Convergence criterion met
 Total energy in the final basis set = -1510.28365804
   12   -1510.2836969984      2.49E-09 Convergence criterion met
 Total energy in the final basis set = -1510.28369700
   10   -1510.2837061657      9.85E-09 Convergence criterion met
 Total energy in the final basis set = -1510.28370617
   11   -1510.2837082288      5.63E-09 Convergence criterion met
 Total energy in the final basis set = -1510.28370823
   10   -1510.2837108476      8.71E-09 Convergence criterion met
 Total energy in the final basis set = -1510.28371085
    9   -1510.2837111184      6.94E-09 Convergence criterion met
 Total energy in the final basis set = -1510.28371112

             Standard Nuclear Orientation (Angstroms)
    I     Atom           X                Y                Z
 ----------------------------------------------------------------
    1      O       2.5654292783    -1.7732027408    -0.4218279660
    2      C       2.9608366863    -0.9664015776     0.4533419794
    3      C       3.0839954823     0.5844427611     0.2760172236
    4      C       2.2984047338     1.0977138976    -0.9994648500
    5      C       1.6546812193    -0.0464951064    -1.8688996162
    6      O       0.3763200978    -0.4833855834    -1.3356130398
    7      C      -0.0646549617    -1.7091721851    -2.0553728645
    8      C      -1.0879286316    -2.4154387603    -1.0980492095
    9      O      -0.4704895744    -2.5171952082     0.2373733917
   10      C      -0.3683492309    -1.2311370340     0.8806326600
   11      C      -1.6798325428    -0.3297251045     1.0181714725
   12      C      -2.2827395128     0.6986540306    -0.0531559069
   13      C      -1.8460066665     0.7225725688    -1.5619463372
   14      O      -2.2233222618    -0.0505652864    -2.4692364416
   15      O       3.4350216856    -1.3440194593     1.7411806561
   16      O      -1.1724531966     1.9682796389    -1.8423136914
   17      O       0.6141811302    -1.0498104954     1.6362949688
   18      C      -0.8485370500     2.0550801722    -3.2859029915
   19      C      -2.9529234920    -1.2496767283     1.3011094079
   20      C      -3.9160579540    -0.4851035310     2.2836587073
   21      C      -4.4848562793     0.6297866431     1.3304597338
   22      C      -3.8090208836     0.2408205913    -0.0415892259
   23      O      -3.6917296051    -1.2352945151     0.0152409740
   24      H      -1.4487983935     0.2715337950     1.9158900554
   25      H      -2.1510101757     1.7259456031     0.3296538406
   26      H      -2.7050470287    -2.2899928226     1.5870909945
   27      H      -4.7141308243    -1.1551835956     2.6417751811
   28      H      -3.3803391900    -0.0736280022     3.1538683969
   29      H      -5.5818229660     0.5736210136     1.2479888559
   30      H      -4.2070085952     1.6464758797     1.6519769994
   31      H      -4.3744653051     0.5434815214    -0.9439126786
   32      O       2.0910498495    -0.4506644589    -2.9685057978
   33      C       3.1772732296    -2.7875625082     1.9565527268
   34      C       2.3651899489     1.4051329582     1.4290433913
   35      C       2.8455881714     2.9085070651     1.3362472310
   36      C       2.0422001452     3.4057391123     0.0760572569
   37      C       1.2592672358     2.0944586355    -0.3285185178
   38      O       0.9597782590     1.4697211050     0.9776072429
   39      H       4.1580488260     0.8400814059     0.2167051442
   40      H       2.9827512253     1.6353133148    -1.6794755262
   41      H       3.7257487633    -3.4148839541     1.2244436802
   42      H       2.4391761520     0.9331578816     2.4276224349
   43      H       2.5567436702     3.4607417113     2.2445590278
   44      H       3.9366376705     2.9901865350     1.2061264003
   45      H       1.3342361509     4.2072657733     0.3413917026
   46      H       2.6979795020     3.7712430012    -0.7304065851
   47      H       0.3136980201     2.2247657825    -0.9049601066
   48      H       2.0905131050    -2.9968342005     1.8733671173
   49      H       3.5300604403    -3.0121541312     2.9796702234
   50      H      -0.4265674555     3.0643311045    -3.4436063825
   51      H      -1.7547201546     1.9225448594    -3.9098695859
   52      H      -0.0995748916     1.2911497383    -3.5784527701
   53      H      -2.0645124178    -1.8749065531    -1.0655872019
   54      H      -1.2605516254    -3.4557968398    -1.4395601540
   55      H       0.8107812687    -2.3618393776    -2.2506630378
   56      H      -0.5548021011    -1.4443654285    -3.0169754943
 ----------------------------------------------------------------

    8   -1510.2837116507      8.79E-09 Convergence criterion met
 Total energy in the final basis set = -1510.28371165
 Final energy is   -1510.28371165072
 **  OPTIMIZATION CONVERGED  **

                    Orbital Energies (a.u.)
 --------------------------------------------------------------

 Alpha MOs
 -- Occupied --
-18.947 -18.930 -18.924 -18.909 -18.897 -18.879 -18.873 -18.869
-18.863 -18.861 -10.108 -10.095 -10.093 -10.092 -10.070 -10.064
-10.060 -10.055 -10.053 -10.053 -10.048 -10.041 -10.033 -10.030
-10.030 -10.026 -10.024 -10.022 -10.011 -10.009  -1.020  -1.009
 -0.999  -0.989  -0.977  -0.958  -0.944  -0.929  -0.929  -0.918
 -0.761  -0.753  -0.722  -0.714  -0.707  -0.700  -0.685  -0.669
 -0.651  -0.603  -0.595  -0.572  -0.545  -0.539  -0.534  -0.528
 -0.517  -0.502  -0.484  -0.476  -0.459  -0.455  -0.441  -0.437
 -0.434  -0.429  -0.422  -0.414  -0.410  -0.404  -0.399  -0.396
 -0.387  -0.379  -0.369  -0.366  -0.359  -0.356  -0.349  -0.342
 -0.339  -0.336  -0.333  -0.327  -0.322  -0.317  -0.315  -0.309
 -0.308  -0.305  -0.299  -0.296  -0.288  -0.276  -0.272  -0.269
 -0.268  -0.255  -0.248  -0.243  -0.242  -0.228  -0.218  -0.183
 -0.173  -0.168  -0.160  -0.159  -0.149  -0.147  -0.142  -0.136
 -0.127

          Ground-State Mulliken Net Atomic Charges

     Atom                 Charge (a.u.)
  ----------------------------------------
      1 O                    -0.214551
      2 C                     0.223925
      3 C                    -0.077951
      4 C                    -0.083858
      5 C                     0.215557
      6 O                    -0.178530
      7 C                    -0.053507
      8 C                    -0.057602
      9 O                    -0.183328
     10 C                     0.223052
     11 C                    -0.081551
     12 C                    -0.078282
     13 C                     0.219347
     14 O                    -0.217400
     15 O                    -0.165621
     16 O                    -0.168158
     17 O                    -0.209460
     18 C                    -0.129966
     19 C                     0.020122
     20 C                    -0.142757
     21 C                    -0.144608
     22 C                     0.025373
     23 O                    -0.188801
     24 H                     0.091954
     25 H                     0.090026
     26 H                     0.086916
     27 H                     0.078606
     28 H                     0.077070
     29 H                     0.078951
     30 H                     0.075945
     31 H                     0.084456
     32 O                    -0.217745
     33 C                    -0.127052
     34 C                     0.027595
     35 C                    -0.144872
     36 C                    -0.145628
     37 C                     0.001941
     38 O                    -0.194491
     39 H                     0.083702
     40 H                     0.080747
     41 H                     0.086558
     42 H                     0.091646
     43 H                     0.074594
     44 H                     0.070639
     45 H                     0.072912
     46 H                     0.069004
     47 H                     0.104769
     48 H                     0.102353
     49 H                     0.087671
     50 H                     0.092197
     51 H                     0.093387
     52 H                     0.092721
     53 H                     0.105199
     54 H                     0.086057
     55 H                     0.099034
     56 H                     0.091691
  ----------------------------------------
  Sum of atomic charges =    -0.000000

                    Cartesian Multipole Moments
 -----------------------------------------------------------------
    Charge (ESU x 10^10)
                -0.0000
    Dipole Moment (Debye)
         X      -1.1558      Y       2.3639      Z       0.8070
       Tot       2.7523
    Quadrupole Moments (Debye-Ang)
        XX    -153.4692     XY      -0.9353     YY    -154.1777
        XZ       0.1940     YZ      -6.3157     ZZ    -159.7371

 Total job time:  149.35s(wall), 7128.39s(cpu)
        *  Thank you very much for using Q-Chem.  Have a nice day.  *
