 Q-Chem 5.0, Q-Chem, Inc., Pleasanton, CA (2017)
 Q-Chem 5.0.1 for Intel X86 EM64T Linux

User input:
--------------------------------------------------------------
$molecule
0  1
O -3.94934 -3.66094 2.70899
C -3.26408 -4.56952 2.26188
C -3.36658 -6.02376 2.66595
C -2.97353 -6.38153 4.10864
C -2.69204 -5.22192 5.03825
O -3.8595 -4.77308 5.58689
C -3.75836 -3.44851 6.12033
C -4.89514 -3.18964 7.10362
O -6.14337 -3.60889 6.53002
C -6.44556 -4.92159 6.687
C -6.69118 -5.30055 8.12809
C -5.42846 -5.64638 8.93072
C -4.11291 -5.2273 8.30589
O -3.59519 -4.12529 8.41589
O -2.37527 -4.28676 1.27304
O -3.30616 -6.28983 8.02232
O -6.97499 -5.54608 5.78279
C -1.92958 -6.27289 7.886
C -7.32607 -4.23318 9.04969
C -8.04974 -4.92203 10.20724
C -6.87013 -5.44615 11.00713
C -5.70544 -4.83865 10.21395
O -6.23955 -3.63752 9.71649
H -7.38626 -6.17187 8.09872
H -5.37078 -6.73986 9.13555
H -8.01452 -3.545 8.51304
H -8.55024 -4.12085 10.79729
H -8.80438 -5.68515 9.9192
H -6.92085 -5.01235 12.03041
H -6.79042 -6.55323 11.0665
H -4.79893 -4.74619 10.85149
O -1.65648 -4.56974 4.96895
C -2.16011 -3.0253 0.75871
C -4.79559 -6.57726 2.58719
C -4.75998 -8.09612 2.41912
C -4.30793 -8.52283 3.80096
C -4.24983 -7.16415 4.50741
O -5.28256 -6.42964 3.8939
H -2.71769 -6.58572 1.95535
H -2.08845 -7.05288 4.17177
H -1.80573 -2.34134 1.5594
H -5.39983 -6.10919 1.77944
H -5.80804 -8.44044 2.26733
H -4.12877 -8.45883 1.57949
H -5.10807 -9.15101 4.2523
H -3.3366 -9.06143 3.84032
H -4.3323 -7.30347 5.6077
H -3.09722 -2.62853 0.31285
H -1.38439 -3.08225 -0.03217
H -1.64452 -6.72026 6.91418
H -1.48363 -6.90035 8.68462
H -1.50262 -5.25049 7.9617
H -5.01336 -2.54672 8.01273
H -4.91303 -2.10103 6.87251
H -3.83008 -2.76007 5.24234
H -2.7619 -3.2002 6.55895
$end

$opt
CONSTRAINT
tors           1           2           3           4     -66.316
tors           3           4           5           6     +85.263
tors           4           5           6           7    -161.053
tors           5           6           7           8    -161.053
tors           6           7           8           9     -47.368
tors           7           8           9          10     +85.263
tors           8           9          10          11     +66.316
tors           9          10          11          12     -85.263
tors          11          12          13          14     +85.263
ENDCONSTRAINT
$end

$rem
JOBTYPE                   OPT
METHOD                    B3LYP
DFT_D                     d3_op
BASIS                     STO-3G
GEOM_OPT_MAX_CYCLES       100
GEOM_OPT_TOL_GRADIENT     300
GEOM_OPT_TOL_DISPLACEMENT 1200
GEOM_OPT_TOL_ENERGY       100
SYMMETRY                  False
THRESH                    12
SCF_CONVERGENCE           8
MAX_SUB_FILE_NUM          128
MEM_STATIC                400
MEM_TOTAL                 4000
$end
--------------------------------------------------------------

   15   -1509.9766573750      9.35E-09 Convergence criterion met
 Total energy in the final basis set = -1509.97665737
   14   -1510.0592308448      3.87E-09 Convergence criterion met
 Total energy in the final basis set = -1510.05923084
   14   -1510.1201584094      8.56E-09 Convergence criterion met
 Total energy in the final basis set = -1510.12015841
   14   -1510.1587745436      3.08E-09 Convergence criterion met
 Total energy in the final basis set = -1510.15877454
   13   -1510.1864775623      9.41E-09 Convergence criterion met
 Total energy in the final basis set = -1510.18647756
   13   -1510.2071335616      7.91E-09 Convergence criterion met
 Total energy in the final basis set = -1510.20713356
   13   -1510.2231810497      7.85E-09 Convergence criterion met
 Total energy in the final basis set = -1510.22318105
   13   -1510.2360324720      5.35E-09 Convergence criterion met
   11   -1510.2652696441      5.27E-09 Convergence criterion met
 Total energy in the final basis set = -1510.26526964
   11   -1510.2652754852      2.96E-09 Convergence criterion met
 Total energy in the final basis set = -1510.26527549
    9   -1510.2652798154      7.41E-09 Convergence criterion met
 Total energy in the final basis set = -1510.26527982
   11   -1510.2652861398      2.08E-09 Convergence criterion met
 Total energy in the final basis set = -1510.26528614
    9   -1510.2652897004      6.66E-09 Convergence criterion met
 Total energy in the final basis set = -1510.26528970
    9   -1510.2652915635      4.83E-09 Convergence criterion met
 Total energy in the final basis set = -1510.26529156

             Standard Nuclear Orientation (Angstroms)
    I     Atom           X                Y                Z
 ----------------------------------------------------------------
    1      O      -2.9503610844     0.9214963960     1.7691423291
    2      C      -3.7480114778     0.5746186921     0.8715240879
    3      C      -3.6052895692    -0.5911017202    -0.1662800926
    4      C      -2.4270478113    -0.3675629756    -1.2118366861
    5      C      -1.6754706155     0.9898579820    -0.9911214187
    6      O      -0.6582541455     0.8168075414    -0.0045612498
    7      C      -0.2434504791     2.1291682665     0.5547502120
    8      C       1.1563162595     1.8875162462     1.2204247601
    9      O       1.1470648065     0.6852487346     2.0670120900
   10      C       1.3959802448    -0.5733960307     1.4138509025
   11      C       2.8202171509    -0.8777751872     0.7735600546
   12      C       3.1845304120    -0.4066944360    -0.7065058020
   13      C       2.0769658578     0.2998441905    -1.5579944340
   14      O       1.7798053148     1.5158902858    -1.5548998007
   15      O      -5.0055351227     1.2218604460     0.6307410365
   16      O       1.4376786727    -0.6769422700    -2.3897125768
   17      O       0.6145127891    -1.5215858985     1.6564644582
   18      C       0.5149540117    -0.0183855682    -3.3477637970
   19      C       3.9624892083    -0.1279259918     1.5910955997
   20      C       5.3462750008    -0.8384151044     1.3169047506
   21      C       5.6811042985    -0.3135156113    -0.1281623217
   22      C       4.4085952608     0.5691605452    -0.4287360911
   23      O       4.0867670758     1.1688609473     0.8839824048
   24      H       2.9254614795    -1.9751797353     0.8397898706
   25      H       3.5107166625    -1.2871233742    -1.2882720263
   26      H       3.7172186061     0.0398435018     2.6575830785
   27      H       6.0999405670    -0.5115974339     2.0510218206
   28      H       5.2617324280    -1.9358979857     1.3626360232
   29      H       6.5892405189     0.3100960952    -0.1309673944
   30      H       5.8069042239    -1.1258447530    -0.8613881577
   31      H       4.5437227727     1.3595035990    -1.1921071483
   32      O      -1.9446586881     2.0806505547    -1.5446274722
   33      C      -5.1852970526     2.3459759117     1.5783291740
   34      C      -3.1443633695    -1.9529775404     0.5077505405
   35      C      -3.4062599385    -3.1225571095    -0.5229323573
   36      C      -2.2256911459    -2.9031319086    -1.5398998921
   37      C      -1.5160475288    -1.6373926600    -0.9147628126
   38      O      -1.6707537510    -1.8410003030     0.5426482991
   39      H      -4.5742777159    -0.6966569575    -0.6852368602
   40      H      -2.8229974611    -0.3738475368    -2.2431015638
   41      H      -4.4088448959     3.1255197105     1.4372187856
   42      H      -3.5438745446    -2.1207112796     1.5264259893
   43      H      -3.3300173475    -4.1000414823    -0.0207984540
   44      H      -4.3973312604    -3.0457306395    -0.9982318001
   45      H      -1.5361346155    -3.7621782172    -1.5501289822
   46      H      -2.5769637495    -2.7205180564    -2.5682252689
   47      H      -0.4463601820    -1.5115037408    -1.1772847066
   48      H      -5.1494008385     2.0017462424     2.6321555581
   49      H      -6.1811883267     2.7736148567     1.3609478809
   50      H      -0.3388349753    -0.7010572420    -3.5100975060
   51      H       1.0343100565     0.1545075972    -4.3122857377
   52      H       0.1627697956     0.9523855599    -2.9471672496
   53      H       1.9369542589     1.8505628140     0.4300991356
   54      H       1.3796036252     2.7354188264     1.9010766106
   55      H      -0.9982977027     2.4400755666     1.3095018077
   56      H      -0.1748821683     2.9001966645    -0.2425120907
 ----------------------------------------------------------------

    9   -1510.2652912635      2.74E-09 Convergence criterion met
 Total energy in the final basis set = -1510.26529126
 Final energy is   -1510.26529126351
 **  OPTIMIZATION CONVERGED  **

                    Orbital Energies (a.u.)
 --------------------------------------------------------------

 Alpha MOs
 -- Occupied --
-18.945 -18.930 -18.923 -18.900 -18.893 -18.887 -18.882 -18.872
-18.871 -18.866 -10.110 -10.093 -10.093 -10.087 -10.066 -10.065
-10.061 -10.060 -10.055 -10.053 -10.053 -10.050 -10.042 -10.034
-10.033 -10.032 -10.024 -10.022 -10.015 -10.014  -1.021  -1.008
 -1.003  -0.987  -0.975  -0.961  -0.947  -0.932  -0.930  -0.917
 -0.764  -0.757  -0.723  -0.719  -0.709  -0.703  -0.687  -0.668
 -0.659  -0.604  -0.596  -0.572  -0.548  -0.541  -0.539  -0.531
 -0.514  -0.506  -0.482  -0.477  -0.462  -0.456  -0.443  -0.438
 -0.434  -0.427  -0.420  -0.416  -0.412  -0.408  -0.406  -0.399
 -0.391  -0.379  -0.369  -0.368  -0.356  -0.355  -0.348  -0.345
 -0.340  -0.339  -0.337  -0.334  -0.324  -0.323  -0.317  -0.313
 -0.308  -0.303  -0.301  -0.299  -0.294  -0.278  -0.277  -0.272
 -0.267  -0.258  -0.252  -0.241  -0.240  -0.224  -0.212  -0.185
 -0.173  -0.168  -0.165  -0.153  -0.151  -0.147  -0.142  -0.135
 -0.130

          Ground-State Mulliken Net Atomic Charges

     Atom                 Charge (a.u.)
  ----------------------------------------
      1 O                    -0.207990
      2 C                     0.204478
      3 C                    -0.078656
      4 C                    -0.079772
      5 C                     0.203096
      6 O                    -0.170018
      7 C                    -0.050922
      8 C                    -0.050556
      9 O                    -0.185665
     10 C                     0.210972
     11 C                    -0.083134
     12 C                    -0.083277
     13 C                     0.211962
     14 O                    -0.213336
     15 O                    -0.169732
     16 O                    -0.168449
     17 O                    -0.175816
     18 C                    -0.135943
     19 C                     0.023000
     20 C                    -0.144179
     21 C                    -0.143367
     22 C                     0.023935
     23 O                    -0.190054
     24 H                     0.087808
     25 H                     0.086829
     26 H                     0.088748
     27 H                     0.079048
     28 H                     0.075453
     29 H                     0.078873
     30 H                     0.074267
     31 H                     0.085045
     32 O                    -0.219045
     33 C                    -0.129184
     34 C                     0.026867
     35 C                    -0.143889
     36 C                    -0.144528
     37 C                     0.023165
     38 O                    -0.172122
     39 H                     0.085529
     40 H                     0.079972
     41 H                     0.088431
     42 H                     0.084452
     43 H                     0.077788
     44 H                     0.071780
     45 H                     0.077505
     46 H                     0.069250
     47 H                     0.088971
     48 H                     0.089096
     49 H                     0.089843
     50 H                     0.089724
     51 H                     0.085862
     52 H                     0.103715
     53 H                     0.103659
     54 H                     0.084859
     55 H                     0.090389
     56 H                     0.095265
  ----------------------------------------
  Sum of atomic charges =     0.000000

                    Cartesian Multipole Moments
 -----------------------------------------------------------------
    Charge (ESU x 10^10)
                -0.0000
    Dipole Moment (Debye)
         X       0.8465      Y      -1.0449      Z      -2.3866
       Tot       2.7393
    Quadrupole Moments (Debye-Ang)
        XX    -139.3901     XY      -3.0316     YY    -159.7404
        XZ      -2.8573     YZ       6.6724     ZZ    -158.3876

 Total job time:  90.64s(wall), 4323.61s(cpu)
        *  Thank you very much for using Q-Chem.  Have a nice day.  *
