 Q-Chem 5.0, Q-Chem, Inc., Pleasanton, CA (2017)
 Q-Chem 5.0.1 for Intel X86 EM64T Linux

User input:
--------------------------------------------------------------
$molecule
0  1
O -3.94934 -3.66094 2.70899
C -3.26408 -4.56952 2.26188
C -3.36658 -6.02376 2.66595
C -3.41669 -6.33291 4.1712
C -3.53792 -5.14515 5.09996
O -4.52021 -4.3068 4.65532
C -5.54052 -4.06765 5.63052
C -5.36223 -5.00679 6.81895
O -5.67419 -4.31658 8.03926
C -5.10916 -3.09147 8.17708
C -4.66581 -2.80379 9.59177
C -3.26749 -3.32718 9.95099
C -2.39197 -3.72967 8.78131
O -1.45461 -3.08 8.34103
O -2.27073 -4.26496 1.38585
O -2.37043 -5.08281 8.61299
O -4.44221 -2.51271 7.32775
C -1.34169 -5.83835 8.0765
C -4.50659 -1.30233 9.90927
C -4.65029 -1.07891 11.41337
C -3.36746 -1.71025 11.91443
C -2.6855 -2.0419 10.58063
O -3.14119 -1.04016 9.70386
H -5.45209 -3.21762 10.26421
H -3.28975 -4.16613 10.68266
H -5.22036 -0.65766 9.35112
H -4.59555 0.02078 11.58159
H -5.5826 -1.47163 11.87316
H -2.794 -0.93907 12.47509
H -3.49746 -2.62014 12.53954
H -1.58354 -2.10365 10.72071
O -2.60557 -4.73619 5.77137
C -1.99712 -2.99121 0.93319
C -4.7143 -6.63473 2.22327
C -4.57941 -8.15091 2.09454
C -4.47884 -8.54733 3.55243
C -4.69603 -7.18635 4.22512
O -5.5549 -6.50684 3.34372
H -2.54898 -6.57471 2.14705
H -2.52731 -6.91311 4.50462
H -1.72959 -2.33127 1.78609
H -5.09844 -6.20325 1.27265
H -5.54538 -8.53021 1.69011
H -3.74854 -8.5046 1.44695
H -5.31802 -9.23969 3.78617
H -3.51244 -9.00585 3.8548
H -5.06247 -7.33599 5.26026
H -2.87915 -2.57693 0.39959
H -1.14002 -3.03115 0.23015
H -1.72693 -6.46907 7.25073
H -0.95394 -6.52052 8.86063
H -0.49996 -5.21569 7.70598
H -6.0334 -5.885 6.713
H -4.40934 -5.46907 7.12989
H -6.51353 -4.35866 5.17908
H -5.73982 -2.98553 5.70254
$end

$opt
CONSTRAINT
tors           1           2           3           4     -47.368
tors           3           4           5           6     +47.368
tors           4           5           6           7    +123.158
tors           5           6           7           8      -9.474
tors           6           7           8           9    +142.105
tors           7           8           9          10     -47.368
tors           8           9          10          11    -142.105
tors           9          10          11          12     +85.263
tors          11          12          13          14    +104.211
ENDCONSTRAINT
$end

$rem
JOBTYPE                   OPT
METHOD                    B3LYP
DFT_D                     d3_op
BASIS                     STO-3G
GEOM_OPT_MAX_CYCLES       100
GEOM_OPT_TOL_GRADIENT     300
GEOM_OPT_TOL_DISPLACEMENT 1200
GEOM_OPT_TOL_ENERGY       100
SYMMETRY                  False
THRESH                    12
SCF_CONVERGENCE           8
MAX_SUB_FILE_NUM          128
MEM_STATIC                400
MEM_TOTAL                 4000
$end
--------------------------------------------------------------

   15   -1510.0417066376      9.17E-09 Convergence criterion met
 Total energy in the final basis set = -1510.04170664
   14   -1510.1243853230      8.39E-09 Convergence criterion met
 Total energy in the final basis set = -1510.12438532
   14   -1510.1730403652      9.13E-09 Convergence criterion met
 Total energy in the final basis set = -1510.17304037
   15   -1510.2000830342      1.48E-09 Convergence criterion met
 Total energy in the final basis set = -1510.20008303
   14   -1510.2176983799      8.65E-09 Convergence criterion met
 Total energy in the final basis set = -1510.21769838
   14   -1510.2270118762      3.35E-09 Convergence criterion met
 Total energy in the final basis set = -1510.22701188
   13   -1510.2331405879      3.29E-09 Convergence criterion met
 Total energy in the final basis set = -1510.23314059
    2   -1510.2331405878      3.52E-09 Convergence criterion met
   11   -1510.2467828969      7.23E-09 Convergence criterion met
 Total energy in the final basis set = -1510.24678290
   10   -1510.2468567181      9.98E-09 Convergence criterion met
 Total energy in the final basis set = -1510.24685672
   11   -1510.2469030141      6.23E-09 Convergence criterion met
 Total energy in the final basis set = -1510.24690301
   11   -1510.2469212335      4.96E-09 Convergence criterion met
 Total energy in the final basis set = -1510.24692123
   11   -1510.2469243398      3.32E-09 Convergence criterion met
 Total energy in the final basis set = -1510.24692434
    9   -1510.2469263796      4.84E-09 Convergence criterion met
 Total energy in the final basis set = -1510.24692638

             Standard Nuclear Orientation (Angstroms)
    I     Atom           X                Y                Z
 ----------------------------------------------------------------
    1      O      -3.1778667994     2.2965297516     0.9859693662
    2      C      -4.0020828969     1.8747188257     0.1490182057
    3      C      -4.2077078706     0.4354766572    -0.4386845878
    4      C      -2.9215431528    -0.3415310613    -0.9414324242
    5      C      -1.5214428139     0.1604211970    -0.4274122752
    6      O      -1.5206180647     0.3723363446     0.9796711312
    7      C      -0.4976172190    -0.3818269546     1.7640855851
    8      C       0.3455930274    -1.5128593196     1.0393586655
    9      O       1.7763350562    -1.6165598482     1.4334002425
   10      C       2.5026167148    -0.3805157275     1.4702478136
   11      C       3.9587307393    -0.6378426506     0.9365174551
   12      C       4.1394416928    -0.5704212005    -0.6433680357
   13      C       2.8453244720    -0.4075439418    -1.5181296508
   14      O       2.4458470157     0.6288499642    -2.0906504090
   15      O      -5.0081229713     2.7051228261    -0.4556475134
   16      O       2.2436350747    -1.6985180468    -1.6730547466
   17      O       2.0737842064     0.7181845360     1.8956344506
   18      C       1.1255660632    -1.6255058922    -2.6483982979
   19      C       4.9143394928     0.5447466279     1.3887475594
   20      C       6.4159837328     0.1012142973     1.1793074849
   21      C       6.5598029341     0.2367313377    -0.3825701067
   22      C       5.0997199709     0.6879066351    -0.7798726629
   23      O       4.6953806559     1.5663086795     0.3399278008
   24      H       4.2923506472    -1.6210229829     1.3154533924
   25      H       4.6401300108    -1.4938399529    -0.9863364543
   26      H       4.6724334310     0.9606884676     2.3856856151
   27      H       7.0980473428     0.7843559265     1.7096882697
   28      H       6.5963118845    -0.9255619825     1.5355208807
   29      H       7.2896839138     1.0160027044    -0.6542247442
   30      H       6.8524353662    -0.7071515285    -0.8692385420
   31      H       5.0045242665     1.2243443470    -1.7438770536
   32      O      -0.5073245789     0.2799157071    -1.1601698129
   33      C      -4.9017324588     4.0880535279     0.0629612337
   34      C      -4.8144285422    -0.6150902776     0.6037197808
   35      C      -5.6231004507    -1.6810346520    -0.2319683605
   36      C      -4.4460208852    -2.4401358319    -0.9504277522
   37      C      -3.1845353602    -1.7663080663    -0.2755499508
   38      O      -3.6491038841    -1.3940150855     1.0786070706
   39      H      -4.9110837170     0.5576951146    -1.2814395985
   40      H      -2.8837140025    -0.3911180333    -2.0442781294
   41      H      -3.9186161352     4.5403690177    -0.1803913525
   42      H      -5.3561547299    -0.1663884210     1.4587781250
   43      H      -6.1790705008    -2.3516462450     0.4429918291
   44      H      -6.3322220385    -1.2188960544    -0.9369133341
   45      H      -4.4675919341    -3.5210337915    -0.7399084129
   46      H      -4.4517429371    -2.2931184510    -2.0423811468
   47      H      -2.2883577935    -2.4137198686    -0.2145497214
   48      H      -5.0415091669     4.1249859884     1.1626453915
   49      H      -5.7059516814     4.6626706372    -0.4322794646
   50      H       0.3712601534    -0.8688105772    -2.3304578180
   51      H       0.6768184961    -2.6355380775    -2.6653847345
   52      H       1.4962713292    -1.3709718981    -3.6618578769
   53      H      -0.0768545276    -2.5162767435     1.2467359891
   54      H       0.3188668788    -1.3344994181    -0.0561913587
   55      H      -1.0616718080    -0.8167189297     2.6142893714
   56      H       0.2522834316     0.3538560443     2.1425662429
 ----------------------------------------------------------------

    9   -1510.2469267411      3.15E-09 Convergence criterion met
 Total energy in the final basis set = -1510.24692674
 Final energy is   -1510.24692674109
 **  OPTIMIZATION CONVERGED  **

                    Orbital Energies (a.u.)
 --------------------------------------------------------------

 Alpha MOs
 -- Occupied --
-18.930 -18.927 -18.923 -18.916 -18.896 -18.890 -18.889 -18.882
-18.877 -18.869 -10.108 -10.106 -10.096 -10.090 -10.069 -10.068
-10.065 -10.061 -10.053 -10.053 -10.052 -10.043 -10.042 -10.039
-10.035 -10.033 -10.027 -10.025 -10.016 -10.015  -1.011  -1.009
 -1.004  -1.000  -0.977  -0.964  -0.941  -0.935  -0.930  -0.926
 -0.767  -0.758  -0.727  -0.720  -0.712  -0.704  -0.694  -0.662
 -0.652  -0.615  -0.598  -0.586  -0.550  -0.544  -0.541  -0.533
 -0.515  -0.507  -0.480  -0.467  -0.460  -0.456  -0.447  -0.441
 -0.437  -0.437  -0.425  -0.411  -0.410  -0.406  -0.405  -0.401
 -0.383  -0.376  -0.370  -0.364  -0.360  -0.358  -0.351  -0.348
 -0.342  -0.340  -0.338  -0.335  -0.330  -0.325  -0.324  -0.315
 -0.313  -0.307  -0.305  -0.301  -0.295  -0.289  -0.276  -0.272
 -0.271  -0.254  -0.253  -0.243  -0.241  -0.228  -0.226  -0.177
 -0.175  -0.173  -0.165  -0.152  -0.152  -0.147  -0.145  -0.139
 -0.137

          Ground-State Mulliken Net Atomic Charges

     Atom                 Charge (a.u.)
  ----------------------------------------
      1 O                    -0.198494
      2 C                     0.205037
      3 C                    -0.079817
      4 C                    -0.078981
      5 C                     0.221034
      6 O                    -0.168552
      7 C                    -0.067804
      8 C                    -0.058509
      9 O                    -0.176918
     10 C                     0.217654
     11 C                    -0.077323
     12 C                    -0.079330
     13 C                     0.203944
     14 O                    -0.204017
     15 O                    -0.172785
     16 O                    -0.175069
     17 O                    -0.193703
     18 C                    -0.146063
     19 C                     0.024955
     20 C                    -0.144813
     21 C                    -0.143843
     22 C                     0.024963
     23 O                    -0.185636
     24 H                     0.085510
     25 H                     0.084510
     26 H                     0.086315
     27 H                     0.077617
     28 H                     0.072229
     29 H                     0.077585
     30 H                     0.072185
     31 H                     0.088441
     32 O                    -0.202687
     33 C                    -0.129747
     34 C                     0.027643
     35 C                    -0.142062
     36 C                    -0.144741
     37 C                     0.024062
     38 O                    -0.185273
     39 H                     0.087209
     40 H                     0.083921
     41 H                     0.090330
     42 H                     0.085605
     43 H                     0.078781
     44 H                     0.075921
     45 H                     0.078812
     46 H                     0.075126
     47 H                     0.077810
     48 H                     0.088748
     49 H                     0.089256
     50 H                     0.110113
     51 H                     0.078722
     52 H                     0.080676
     53 H                     0.086421
     54 H                     0.092653
     55 H                     0.088475
     56 H                     0.113903
  ----------------------------------------
  Sum of atomic charges =     0.000000

                    Cartesian Multipole Moments
 -----------------------------------------------------------------
    Charge (ESU x 10^10)
                 0.0000
    Dipole Moment (Debye)
         X      -1.7958      Y      -3.1627      Z      -1.1759
       Tot       3.8224
    Quadrupole Moments (Debye-Ang)
        XX    -133.9866     XY      -7.4007     YY    -158.3436
        XZ       5.2153     YZ       1.5676     ZZ    -159.7545

 Total job time:  94.81s(wall), 4521.01s(cpu)
        *  Thank you very much for using Q-Chem.  Have a nice day.  *
