 Q-Chem 5.0, Q-Chem, Inc., Pleasanton, CA (2017)
 Q-Chem 5.0.1 for Intel X86 EM64T Linux

User input:
--------------------------------------------------------------
$molecule
0  1
O -3.1778667994 2.2965297516 0.9859693662
C -4.0020828969 1.8747188257 0.1490182057
C -4.2077078706 0.4354766572 -0.4386845878
C -2.9215431528 -0.3415310613 -0.9414324242
C -1.5214428139 0.160421197 -0.4274122752
O -1.5206180647 0.3723363446 0.9796711312
C -0.497617219 -0.3818269546 1.7640855851
C 0.3455930274 -1.5128593196 1.0393586655
O 1.7763350562 -1.6165598482 1.4334002425
C 2.5026167148 -0.3805157275 1.4702478136
C 3.9587307393 -0.6378426506 0.9365174551
C 4.1394416928 -0.5704212005 -0.6433680357
C 2.845324472 -0.4075439418 -1.5181296508
O 2.4458470157 0.6288499642 -2.090650409
O -5.0081229713 2.7051228261 -0.4556475134
O 2.2436350747 -1.6985180468 -1.6730547466
O 2.0737842064 0.718184536 1.8956344506
C 1.1255660632 -1.6255058922 -2.6483982979
C 4.9143394928 0.5447466279 1.3887475594
C 6.4159837328 0.1012142973 1.1793074849
C 6.5598029341 0.2367313377 -0.3825701067
C 5.0997199709 0.6879066351 -0.7798726629
O 4.6953806559 1.5663086795 0.3399278008
H 4.2923506472 -1.6210229829 1.3154533924
H 4.6401300108 -1.4938399529 -0.9863364543
H 4.672433431 0.9606884676 2.3856856151
H 7.0980473428 0.7843559265 1.7096882697
H 6.5963118845 -0.9255619825 1.5355208807
H 7.2896839138 1.0160027044 -0.6542247442
H 6.8524353662 -0.7071515285 -0.869238542
H 5.0045242665 1.224344347 -1.7438770536
O -0.5073245789 0.2799157071 -1.1601698129
C -4.9017324588 4.0880535279 0.0629612337
C -4.8144285422 -0.6150902776 0.6037197808
C -5.6231004507 -1.681034652 -0.2319683605
C -4.4460208852 -2.4401358319 -0.9504277522
C -3.1845353602 -1.7663080663 -0.2755499508
O -3.6491038841 -1.3940150855 1.0786070706
H -4.911083717 0.5576951146 -1.2814395985
H -2.8837140025 -0.3911180333 -2.0442781294
H -3.9186161352 4.5403690177 -0.1803913525
H -5.3561547299 -0.166388421 1.458778125
H -6.1790705008 -2.351646245 0.4429918291
H -6.3322220385 -1.2188960544 -0.9369133341
H -4.4675919341 -3.5210337915 -0.7399084129
H -4.4517429371 -2.293118451 -2.0423811468
H -2.2883577935 -2.4137198686 -0.2145497214
H -5.0415091669 4.1249859884 1.1626453915
H -5.7059516814 4.6626706372 -0.4322794646
H 0.3712601534 -0.8688105772 -2.330457818
H 0.6768184961 -2.6355380775 -2.6653847345
H 1.4962713292 -1.3709718981 -3.6618578769
H -0.0768545276 -2.5162767435 1.2467359891
H 0.3188668788 -1.3344994181 -0.0561913587
H -1.061671808 -0.8167189297 2.6142893714
H 0.2522834316 0.3538560443 2.1425662429
$end

$rem
JOBTYPE                   OPT
METHOD                    B3LYP
DFT_D                     d3_op
BASIS                     STO-3G
GEOM_OPT_MAX_CYCLES       100
GEOM_OPT_TOL_GRADIENT     300
GEOM_OPT_TOL_DISPLACEMENT 1200
GEOM_OPT_TOL_ENERGY       100
SYMMETRY                  False
THRESH                    12
SCF_CONVERGENCE           8
MAX_SUB_FILE_NUM          128
MEM_STATIC                400
MEM_TOTAL                 4000
$end
--------------------------------------------------------------

   16   -1510.2470959115      6.07E-09 Convergence criterion met
 Total energy in the final basis set = -1510.24709591
   15   -1510.2484636551      4.00E-09 Convergence criterion met
 Total energy in the final basis set = -1510.24846366
   14   -1510.2537409945      5.51E-09 Convergence criterion met
 Total energy in the final basis set = -1510.25374099
   13   -1510.2583968465      7.86E-09 Convergence criterion met
 Total energy in the final basis set = -1510.25839685
   14   -1510.2617949324      7.54E-09 Convergence criterion met
 Total energy in the final basis set = -1510.26179493
   14   -1510.2648428887      7.68E-09 Convergence criterion met
 Total energy in the final basis set = -1510.26484289
   14   -1510.2672087906      3.22E-09 Convergence criterion met
 Total energy in the final basis set = -1510.26720879
   14   -1510.2693966069      4.93E-09 Convergence criterion met
   13   -1510.2894845896      1.82E-09 Convergence criterion met
 Total energy in the final basis set = -1510.28948459
   13   -1510.2894048026      3.09E-09 Convergence criterion met
 Total energy in the final basis set = -1510.28940480
   12   -1510.2895320402      8.48E-09 Convergence criterion met
 Total energy in the final basis set = -1510.28953204
   12   -1510.2895177707      2.39E-09 Convergence criterion met
 Total energy in the final basis set = -1510.28951777
   11   -1510.2895323085      7.73E-09 Convergence criterion met
 Total energy in the final basis set = -1510.28953231
   11   -1510.2895355096      3.73E-09 Convergence criterion met
 Total energy in the final basis set = -1510.28953551

             Standard Nuclear Orientation (Angstroms)
    I     Atom           X                Y                Z
 ----------------------------------------------------------------
    1      O       1.4590004686    -0.8493739053     0.8451149200
    2      C       2.0741838491    -0.7147968018    -0.2383275902
    3      C       3.4189496895     0.0595957743    -0.4862033035
    4      C       3.3188570165     1.6272355592    -0.2111801397
    5      C       1.8746340513     2.0320232639     0.2568358519
    6      O       1.8149710873     2.0450023473     1.6864794667
    7      C       0.5025144287     1.6027425976     2.2323384573
    8      C      -0.7517191008     2.4035216062     1.6947801446
    9      O      -1.9997953780     1.5932493706     1.7197931755
   10      C      -1.9555076604     0.6041381707     0.6936963657
   11      C      -3.3273949615    -0.1329059731     0.5875558359
   12      C      -3.7649411026    -0.3358857816    -0.9264990541
   13      C      -2.7333478309     0.2595615019    -1.9561804720
   14      O      -2.1033130195    -0.3716173442    -2.8315497545
   15      O       1.6491708336    -1.2698772094    -1.4778200989
   16      O      -2.6643385147     1.6752193704    -1.7550742137
   17      O      -0.9462164263     0.3775846570    -0.0161126340
   18      C      -1.5341116542     2.2481875760    -2.5267020416
   19      C      -3.1994919521    -1.6499317936     1.0566525000
   20      C      -4.6543500020    -2.2414498551     1.2249255963
   21      C      -5.0767208637    -2.4469449663    -0.2772421976
   22      C      -3.7956037641    -1.9150524214    -1.0285460452
   23      O      -2.6776317835    -2.3322541264    -0.1475415137
   24      H      -4.0832964795     0.4190995056     1.1722096203
   25      H      -4.7568549130     0.1146557046    -1.1124029820
   26      H      -2.5216343610    -1.8093290738     1.9177424705
   27      H      -4.6182429961    -3.1981914879     1.7698091993
   28      H      -5.3218763158    -1.5519506244     1.7659704249
   29      H      -5.2445083063    -3.5112564235    -0.5066576715
   30      H      -5.9820215131    -1.8797616037    -0.5467212786
   31      H      -3.6380627967    -2.2991093616    -2.0550464866
   32      O       0.9417316911     2.3368140329    -0.5273777735
   33      C       0.3292754659    -1.9372206490    -1.3164831261
   34      C       4.5468992441    -0.3476815807     0.5572877374
   35      C       5.9392649112     0.1383861129    -0.0103508722
   36      C       5.8425633787     1.6892359734     0.2398509784
   37      C       4.4180619160     1.8027486849     0.9164231646
   38      O       4.3065400968     0.5543992277     1.7048666127
   39      H       3.7335996320    -0.1370512892    -1.5258081586
   40      H       3.5597463197     2.1971704104    -1.1262825838
   41      H      -0.3955647203    -1.2450085883    -0.8300200940
   42      H       4.5108931553    -1.4053562600     0.8829170192
   43      H       6.7659927475    -0.3124115818     0.5614399904
   44      H       6.0656039135    -0.1156065034    -1.0749435226
   45      H       6.6259856122     2.0373636315     0.9316645140
   46      H       5.9064886885     2.2755156403    -0.6908398200
   47      H       4.2711925703     2.6855986568     1.5674020032
   48      H       0.4225018571    -2.8641371006    -0.7153984145
   49      H      -0.0100326867    -2.1877870592    -2.3375200032
   50      H      -0.6069777328     2.2223317113    -1.9107611170
   51      H      -1.8008156122     3.2956322855    -2.7590282337
   52      H      -1.3689165339     1.6769947711    -3.4612749389
   53      H      -0.9628282207     3.2911978674     2.3211296928
   54      H      -0.5012007095     2.6970648502     0.6504815360
   55      H       0.6054962032     1.7047113048     3.3310223405
   56      H       0.3991293179     0.5244564256     1.9727717997
 ----------------------------------------------------------------

   11   -1510.2895364017      2.35E-09 Convergence criterion met
 Total energy in the final basis set = -1510.28953640
 Final energy is   -1510.28953640169
 **  OPTIMIZATION CONVERGED  **

                    Orbital Energies (a.u.)
 --------------------------------------------------------------

 Alpha MOs
 -- Occupied --
-18.940 -18.929 -18.921 -18.921 -18.888 -18.886 -18.885 -18.879
-18.868 -18.861 -10.107 -10.104 -10.093 -10.089 -10.062 -10.061
-10.057 -10.057 -10.057 -10.056 -10.042 -10.039 -10.035 -10.035
-10.031 -10.028 -10.021 -10.020 -10.018 -10.017  -1.018  -1.008
 -1.000  -0.997  -0.971  -0.966  -0.941  -0.937  -0.927  -0.922
 -0.763  -0.759  -0.726  -0.720  -0.709  -0.704  -0.690  -0.649
 -0.642  -0.614  -0.592  -0.580  -0.545  -0.543  -0.537  -0.534
 -0.508  -0.506  -0.480  -0.470  -0.458  -0.454  -0.449  -0.440
 -0.434  -0.430  -0.429  -0.408  -0.405  -0.401  -0.393  -0.391
 -0.389  -0.373  -0.370  -0.368  -0.355  -0.353  -0.351  -0.344
 -0.336  -0.336  -0.333  -0.330  -0.327  -0.325  -0.319  -0.311
 -0.307  -0.304  -0.303  -0.294  -0.293  -0.283  -0.282  -0.274
 -0.267  -0.264  -0.243  -0.240  -0.233  -0.233  -0.230  -0.190
 -0.170  -0.165  -0.164  -0.155  -0.149  -0.146  -0.144  -0.140
 -0.139

          Ground-State Mulliken Net Atomic Charges

     Atom                 Charge (a.u.)
  ----------------------------------------
      1 O                    -0.221014
      2 C                     0.208004
      3 C                    -0.079630
      4 C                    -0.078397
      5 C                     0.220611
      6 O                    -0.169663
      7 C                    -0.056749
      8 C                    -0.068006
      9 O                    -0.166915
     10 C                     0.218437
     11 C                    -0.079589
     12 C                    -0.079297
     13 C                     0.213261
     14 O                    -0.213541
     15 O                    -0.168997
     16 O                    -0.178142
     17 O                    -0.214726
     18 C                    -0.142485
     19 C                     0.025192
     20 C                    -0.143595
     21 C                    -0.144024
     22 C                     0.023950
     23 O                    -0.188788
     24 H                     0.087573
     25 H                     0.084651
     26 H                     0.084309
     27 H                     0.078518
     28 H                     0.074257
     29 H                     0.078332
     30 H                     0.073710
     31 H                     0.090419
     32 O                    -0.207837
     33 C                    -0.141563
     34 C                     0.025577
     35 C                    -0.143796
     36 C                    -0.144267
     37 C                     0.026488
     38 O                    -0.185013
     39 H                     0.086886
     40 H                     0.083544
     41 H                     0.116314
     42 H                     0.083677
     43 H                     0.077404
     44 H                     0.073850
     45 H                     0.077284
     46 H                     0.072813
     47 H                     0.086850
     48 H                     0.078655
     49 H                     0.088426
     50 H                     0.106080
     51 H                     0.082193
     52 H                     0.092784
     53 H                     0.084880
     54 H                     0.114357
     55 H                     0.087145
     56 H                     0.109605
  ----------------------------------------
  Sum of atomic charges =     0.000000

                    Cartesian Multipole Moments
 -----------------------------------------------------------------
    Charge (ESU x 10^10)
                -0.0000
    Dipole Moment (Debye)
         X      -0.7405      Y       0.9123      Z       0.2774
       Tot       1.2072
    Quadrupole Moments (Debye-Ang)
        XX    -138.6684     XY       5.7724     YY    -155.8221
        XZ      -6.7568     YZ      -1.4127     ZZ    -163.4397

 Total job time:  119.28s(wall), 5651.89s(cpu)
        *  Thank you very much for using Q-Chem.  Have a nice day.  *
