 Q-Chem 5.0, Q-Chem, Inc., Pleasanton, CA (2017)
 Q-Chem 5.0.1 for Intel X86 EM64T Linux

User input:
--------------------------------------------------------------
$molecule
0  1
O -3.94934 -3.66094 2.70899
C -3.26408 -4.56952 2.26188
C -3.36658 -6.02376 2.66595
C -3.85957 -6.32399 4.09097
C -4.36389 -5.14454 4.89263
O -4.76543 -5.56188 6.12957
C -4.8086 -6.98711 6.25647
C -3.92456 -7.43874 7.41433
O -4.18901 -6.63453 8.57458
C -3.25234 -5.69608 8.85942
C -2.68207 -5.83729 10.25065
C -2.68756 -7.26729 10.81042
C -2.917 -8.37206 9.79871
O -2.64004 -9.55153 9.9621
O -2.40449 -4.29607 1.24463
O -2.01088 -8.03109 8.8057
O -2.64815 -5.08852 7.98418
C -1.22558 -8.85179 7.98004
C -1.20046 -5.44174 10.44118
C -0.95942 -5.05677 11.90076
C -1.06015 -6.41334 12.57223
C -1.23 -7.31574 11.34503
O -0.4935 -6.65119 10.34466
H -3.31018 -5.16708 10.87916
H -3.42164 -7.4274 11.63
H -0.86794 -4.62177 9.76889
H 0.09381 -4.70179 11.97511
H -1.63685 -4.27487 12.30595
H -0.09208 -6.62513 13.07866
H -1.90022 -6.52999 13.29014
H -0.90405 -8.3529 11.57858
O -3.77805 -4.07761 4.94723
C -2.20326 -3.03933 0.71351
C -4.31062 -6.70997 1.69394
C -4.11614 -8.22202 1.73843
C -4.77566 -8.52605 3.05406
C -5.15608 -7.10885 3.50604
O -5.52974 -6.48487 2.3079
H -2.33745 -6.43076 2.53064
H -3.03691 -6.88551 4.59743
H -1.82491 -2.3491 1.49768
H -4.21301 -6.33755 0.64928
H -4.70001 -8.70244 0.92164
H -3.04646 -8.51507 1.6627
H -5.71581 -9.08429 2.84521
H -4.15527 -9.10625 3.76894
H -6.0372 -7.1797 4.1777
H -3.1525 -2.64514 0.29179
H -1.45085 -3.10397 -0.099
H -1.13109 -8.41169 6.96888
H -1.65351 -9.86837 7.85894
H -0.20268 -8.92142 8.39804
H -4.1109 -8.51972 7.6133
H -2.93637 -7.23979 6.95458
H -4.60039 -7.8382 5.5973
H -5.85295 -7.20876 6.56587
$end

$opt
CONSTRAINT
tors           1           2           3           4     -28.421
tors           3           4           5           6    -180.000
tors           4           5           6           7      -9.474
tors           5           6           7           8    +123.158
tors           6           7           8           9     +47.368
tors           7           8           9          10    -104.211
tors           8           9          10          11    -123.158
tors           9          10          11          12     +28.421
tors          11          12          13          14    +161.053
ENDCONSTRAINT
$end

$rem
JOBTYPE                   OPT
METHOD                    B3LYP
DFT_D                     d3_op
BASIS                     STO-3G
GEOM_OPT_MAX_CYCLES       100
GEOM_OPT_TOL_GRADIENT     300
GEOM_OPT_TOL_DISPLACEMENT 1200
GEOM_OPT_TOL_ENERGY       100
SYMMETRY                  False
THRESH                    12
SCF_CONVERGENCE           8
MAX_SUB_FILE_NUM          128
MEM_STATIC                400
MEM_TOTAL                 4000
$end
--------------------------------------------------------------

   16   -1509.9372182855      7.13E-09 Convergence criterion met
 Total energy in the final basis set = -1509.93721829
   15   -1510.0359109145      3.28E-09 Convergence criterion met
 Total energy in the final basis set = -1510.03591091
   15   -1510.0967262672      5.45E-09 Convergence criterion met
 Total energy in the final basis set = -1510.09672627
   15   -1510.1372023535      2.23E-09 Convergence criterion met
 Total energy in the final basis set = -1510.13720235
   15   -1510.1634505882      2.36E-09 Convergence criterion met
 Total energy in the final basis set = -1510.16345059
   14   -1510.1817146158      7.82E-09 Convergence criterion met
 Total energy in the final basis set = -1510.18171462
   14   -1510.1940484703      6.50E-09 Convergence criterion met
 Total energy in the final basis set = -1510.19404847
   14   -1510.2030833691      4.90E-09 Convergence criterion met
   11   -1510.2250945953      5.48E-09 Convergence criterion met
 Total energy in the final basis set = -1510.22509460
   10   -1510.2251225273      9.49E-09 Convergence criterion met
 Total energy in the final basis set = -1510.22512253
   11   -1510.2251516989      4.88E-09 Convergence criterion met
 Total energy in the final basis set = -1510.22515170
   10   -1510.2251708378      8.64E-09 Convergence criterion met
 Total energy in the final basis set = -1510.22517084
   10   -1510.2251814866      8.23E-09 Convergence criterion met
 Total energy in the final basis set = -1510.22518149
    9   -1510.2251852085      7.75E-09 Convergence criterion met
 Total energy in the final basis set = -1510.22518521

             Standard Nuclear Orientation (Angstroms)
    I     Atom           X                Y                Z
 ----------------------------------------------------------------
    1      O      -4.8554491444     1.5804602574     1.2410721848
    2      C      -4.7838900680     1.4657715713     0.0004575195
    3      C      -4.0694351264     0.3460184442    -0.8463696141
    4      C      -2.8273100037    -0.3258348784    -0.1356524122
    5      C      -2.0317688830     0.6846932133     0.7914668056
    6      O      -0.8734652477     0.2551573262     1.5187413589
    7      C      -0.5446274559    -1.1831117998     1.5678968245
    8      C       0.9223943752    -1.3709795241     1.0076761505
    9      O       1.8525270293    -0.3958544882     1.6148670568
   10      C       2.1723053448     0.6728630929     0.6855931353
   11      C       3.7188857696     0.8288305361     0.4153329972
   12      C       4.7304620102    -0.3724360674     0.5131495689
   13      C       4.3293880006    -1.7175310021    -0.2030287577
   14      O       5.1297259790    -2.6301988771    -0.5104675258
   15      O      -5.4255309831     2.3532290358    -0.9266407030
   16      O       2.9970028082    -1.6443537719    -0.7178925399
   17      O       1.3046022657     1.3598114392     0.1061471336
   18      C       2.7066794636    -2.8195531476    -1.5709358759
   19      C       4.1449116883     1.5085830430    -0.9630984964
   20      C       5.2462679861     2.5725508019    -0.5965085253
   21      C       6.3843617428     1.6137618161    -0.0737727392
   22      C       5.8298698361     0.1954912721    -0.4997965275
   23      O       4.9486131537     0.4782761333    -1.6665888429
   24      H       4.0406730833     1.5252571562     1.2163614996
   25      H       5.0909195905    -0.5565426523     1.5405552706
   26      H       3.3024376958     1.8600006166    -1.5900637405
   27      H       5.5671629952     3.1196457503    -1.4977734163
   28      H       4.9083582644     3.2971083877     0.1619284031
   29      H       7.3479220462     1.8133222068    -0.5682576034
   30      H       6.5282582920     1.6854787292     1.0166054918
   31      H       6.6004426889    -0.5530359938    -0.7690817401
   32      O      -2.2611438464     1.9140378755     0.8211142648
   33      C      -6.1548006275     3.4078488580    -0.1859605524
   34      C      -5.0744568538    -0.8825711027    -0.8632922505
   35      C      -4.4832185578    -2.0922922933    -1.6935644583
   36      C      -3.4804365230    -2.7258568126    -0.6565363884
   37      C      -3.5333720917    -1.6341816834     0.4839430592
   38      O      -4.9756761254    -1.3231121007     0.5484928629
   39      H      -3.8286421344     0.7354013741    -1.8509263502
   40      H      -2.1115953775    -0.6494217976    -0.9148535447
   41      H      -5.4631500345     4.0378228296     0.4100308934
   42      H      -6.1180395935    -0.6097105668    -1.1139343575
   43      H      -5.2803218621    -2.7979035164    -1.9755753294
   44      H      -3.9777010089    -1.7473012954    -2.6100019959
   45      H      -3.8516283056    -3.6925691389    -0.2793227429
   46      H      -2.4690049883    -2.8688059128    -1.0699940300
   47      H      -3.1888692870    -1.9559701374     1.4840646564
   48      H      -6.9140363226     2.9770984695     0.4984220620
   49      H      -6.6550873852     4.0294765224    -0.9511710219
   50      H       1.9552478060    -3.4652343957    -1.0742657160
   51      H       3.6422835320    -3.3916400500    -1.7345041898
   52      H       2.2993763936    -2.4551032714    -2.5333996125
   53      H       1.2847568676    -2.3849783138     1.2820461433
   54      H       0.9011709135    -1.2822393344    -0.0951946047
   55      H      -1.2205656980    -1.8232728651     0.9744069119
   56      H      -0.5902575971    -1.5034847761     2.6311227653
 ----------------------------------------------------------------

    9   -1510.2251853590      5.01E-09 Convergence criterion met
 Total energy in the final basis set = -1510.22518536
 Final energy is   -1510.22518535903
 **  OPTIMIZATION CONVERGED  **

                    Orbital Energies (a.u.)
 --------------------------------------------------------------

 Alpha MOs
 -- Occupied --
-18.941 -18.927 -18.922 -18.908 -18.892 -18.890 -18.888 -18.879
-18.867 -18.864 -10.106 -10.105 -10.096 -10.089 -10.075 -10.073
-10.066 -10.065 -10.063 -10.062 -10.061 -10.055 -10.045 -10.038
-10.037 -10.036 -10.027 -10.026 -10.024 -10.021  -1.019  -1.006
 -1.001  -0.995  -0.975  -0.973  -0.942  -0.936  -0.928  -0.921
 -0.766  -0.764  -0.727  -0.725  -0.712  -0.707  -0.701  -0.667
 -0.656  -0.611  -0.600  -0.591  -0.549  -0.545  -0.542  -0.540
 -0.519  -0.511  -0.493  -0.472  -0.469  -0.463  -0.451  -0.447
 -0.442  -0.436  -0.424  -0.417  -0.415  -0.408  -0.403  -0.400
 -0.393  -0.387  -0.380  -0.376  -0.361  -0.360  -0.358  -0.346
 -0.346  -0.339  -0.333  -0.332  -0.323  -0.320  -0.320  -0.315
 -0.314  -0.311  -0.309  -0.304  -0.296  -0.283  -0.278  -0.276
 -0.273  -0.254  -0.246  -0.242  -0.237  -0.235  -0.233  -0.181
 -0.173  -0.167  -0.165  -0.155  -0.154  -0.150  -0.146  -0.141
 -0.135

          Ground-State Mulliken Net Atomic Charges

     Atom                 Charge (a.u.)
  ----------------------------------------
      1 O                    -0.206835
      2 C                     0.217360
      3 C                    -0.075108
      4 C                    -0.086678
      5 C                     0.214340
      6 O                    -0.166388
      7 C                    -0.051286
      8 C                    -0.040333
      9 O                    -0.190285
     10 C                     0.224120
     11 C                    -0.081523
     12 C                    -0.073577
     13 C                     0.215527
     14 O                    -0.217345
     15 O                    -0.173731
     16 O                    -0.172799
     17 O                    -0.188253
     18 C                    -0.136900
     19 C                     0.023467
     20 C                    -0.139791
     21 C                    -0.146544
     22 C                     0.022872
     23 O                    -0.193668
     24 H                     0.083557
     25 H                     0.089148
     26 H                     0.090819
     27 H                     0.078577
     28 H                     0.075805
     29 H                     0.079808
     30 H                     0.074725
     31 H                     0.088515
     32 O                    -0.196130
     33 C                    -0.128756
     34 C                     0.023851
     35 C                    -0.145379
     36 C                    -0.142876
     37 C                     0.020878
     38 O                    -0.187003
     39 H                     0.087446
     40 H                     0.078446
     41 H                     0.091675
     42 H                     0.084313
     43 H                     0.079260
     44 H                     0.074723
     45 H                     0.078371
     46 H                     0.068821
     47 H                     0.083312
     48 H                     0.087396
     49 H                     0.087458
     50 H                     0.079713
     51 H                     0.106210
     52 H                     0.088354
     53 H                     0.082740
     54 H                     0.090839
     55 H                     0.082803
     56 H                     0.085942
  ----------------------------------------
  Sum of atomic charges =    -0.000000

                    Cartesian Multipole Moments
 -----------------------------------------------------------------
    Charge (ESU x 10^10)
                -0.0000
    Dipole Moment (Debye)
         X       0.9626      Y      -2.5641      Z      -1.7984
       Tot       3.2765
    Quadrupole Moments (Debye-Ang)
        XX    -156.3933     XY      10.3019     YY    -155.5022
        XZ      14.4900     YZ      -1.0868     ZZ    -163.0352

 Total job time:  94.95s(wall), 4523.52s(cpu)
        *  Thank you very much for using Q-Chem.  Have a nice day.  *
