 Q-Chem 5.0, Q-Chem, Inc., Pleasanton, CA (2017)
 Q-Chem 5.0.1 for Intel X86 EM64T Linux

User input:
--------------------------------------------------------------
$molecule
0  1
O -4.8554491444 1.5804602574 1.2410721848
C -4.783890068 1.4657715713 0.0004575195
C -4.0694351264 0.3460184442 -0.8463696141
C -2.8273100037 -0.3258348784 -0.1356524122
C -2.031768883 0.6846932133 0.7914668056
O -0.8734652477 0.2551573262 1.5187413589
C -0.5446274559 -1.1831117998 1.5678968245
C 0.9223943752 -1.3709795241 1.0076761505
O 1.8525270293 -0.3958544882 1.6148670568
C 2.1723053448 0.6728630929 0.6855931353
C 3.7188857696 0.8288305361 0.4153329972
C 4.7304620102 -0.3724360674 0.5131495689
C 4.3293880006 -1.7175310021 -0.2030287577
O 5.129725979 -2.6301988771 -0.5104675258
O -5.4255309831 2.3532290358 -0.926640703
O 2.9970028082 -1.6443537719 -0.7178925399
O 1.3046022657 1.3598114392 0.1061471336
C 2.7066794636 -2.8195531476 -1.5709358759
C 4.1449116883 1.508583043 -0.9630984964
C 5.2462679861 2.5725508019 -0.5965085253
C 6.3843617428 1.6137618161 -0.0737727392
C 5.8298698361 0.1954912721 -0.4997965275
O 4.9486131537 0.4782761333 -1.6665888429
H 4.0406730833 1.5252571562 1.2163614996
H 5.0909195905 -0.5565426523 1.5405552706
H 3.3024376958 1.8600006166 -1.5900637405
H 5.5671629952 3.1196457503 -1.4977734163
H 4.9083582644 3.2971083877 0.1619284031
H 7.3479220462 1.8133222068 -0.5682576034
H 6.528258292 1.6854787292 1.0166054918
H 6.6004426889 -0.5530359938 -0.7690817401
O -2.2611438464 1.9140378755 0.8211142648
C -6.1548006275 3.407848858 -0.1859605524
C -5.0744568538 -0.8825711027 -0.8632922505
C -4.4832185578 -2.0922922933 -1.6935644583
C -3.480436523 -2.7258568126 -0.6565363884
C -3.5333720917 -1.6341816834 0.4839430592
O -4.9756761254 -1.3231121007 0.5484928629
H -3.8286421344 0.7354013741 -1.8509263502
H -2.1115953775 -0.6494217976 -0.9148535447
H -5.4631500345 4.0378228296 0.4100308934
H -6.1180395935 -0.6097105668 -1.1139343575
H -5.2803218621 -2.7979035164 -1.9755753294
H -3.9777010089 -1.7473012954 -2.6100019959
H -3.8516283056 -3.6925691389 -0.2793227429
H -2.4690049883 -2.8688059128 -1.06999403
H -3.188869287 -1.9559701374 1.4840646564
H -6.9140363226 2.9770984695 0.498422062
H -6.6550873852 4.0294765224 -0.9511710219
H 1.955247806 -3.4652343957 -1.074265716
H 3.642283532 -3.39164005 -1.7345041898
H 2.2993763936 -2.4551032714 -2.5333996125
H 1.2847568676 -2.3849783138 1.2820461433
H 0.9011709135 -1.2822393344 -0.0951946047
H -1.220565698 -1.8232728651 0.9744069119
H -0.5902575971 -1.5034847761 2.6311227653
$end

$rem
JOBTYPE                   OPT
METHOD                    B3LYP
DFT_D                     d3_op
BASIS                     STO-3G
GEOM_OPT_MAX_CYCLES       100
GEOM_OPT_TOL_GRADIENT     300
GEOM_OPT_TOL_DISPLACEMENT 1200
GEOM_OPT_TOL_ENERGY       100
SYMMETRY                  False
THRESH                    12
SCF_CONVERGENCE           8
MAX_SUB_FILE_NUM          128
MEM_STATIC                400
MEM_TOTAL                 4000
$end
--------------------------------------------------------------

   16   -1510.2252138490      7.44E-09 Convergence criterion met
 Total energy in the final basis set = -1510.22521385
   14   -1510.2330467815      2.45E-09 Convergence criterion met
 Total energy in the final basis set = -1510.23304678
   14   -1510.2411746148      2.57E-09 Convergence criterion met
 Total energy in the final basis set = -1510.24117461
   13   -1510.2475017252      7.75E-09 Convergence criterion met
 Total energy in the final basis set = -1510.24750173
   13   -1510.2522131965      9.54E-09 Convergence criterion met
 Total energy in the final basis set = -1510.25221320
   13   -1510.2557113003      3.56E-09 Convergence criterion met
 Total energy in the final basis set = -1510.25571130
   13   -1510.2583927948      4.66E-09 Convergence criterion met
 Total energy in the final basis set = -1510.25839279
   13   -1510.2607497298      4.52E-09 Convergence criterion met
   12   -1510.2830084211      7.64E-09 Convergence criterion met
 Total energy in the final basis set = -1510.28300842
   12   -1510.2830334127      4.18E-09 Convergence criterion met
 Total energy in the final basis set = -1510.28303341
   10   -1510.2830597868      8.55E-09 Convergence criterion met
 Total energy in the final basis set = -1510.28305979
   10   -1510.2830730954      6.85E-09 Convergence criterion met
 Total energy in the final basis set = -1510.28307310
   10   -1510.2830714202      5.72E-09 Convergence criterion met
 Total energy in the final basis set = -1510.28307142
    9   -1510.2830737643      5.11E-09 Convergence criterion met
 Total energy in the final basis set = -1510.28307376

             Standard Nuclear Orientation (Angstroms)
    I     Atom           X                Y                Z
 ----------------------------------------------------------------
    1      O      -3.6135372971     2.2708464229     0.3522306483
    2      C      -2.6673657613     1.6133264601    -0.1311561037
    3      C      -2.7052965007     0.1165658346    -0.6156154894
    4      C      -2.1525755137    -0.9442232599     0.4215905103
    5      C      -1.4975567687    -0.2562180253     1.6715443619
    6      O      -0.7561157403    -1.0370059747     2.6216521364
    7      C      -0.5039375016    -2.4559106599     2.2880852393
    8      C       0.7327379995    -2.6526850550     1.3051725603
    9      O       1.5883487219    -1.4467547538     1.2990420650
   10      C       1.2686623006    -0.6253678759     0.1602533368
   11      C       2.0564662825     0.7215714528     0.2845544398
   12      C       3.5878411587     0.6016949058    -0.1144420559
   13      C       4.1042168710    -0.8596617871    -0.2970133586
   14      O       5.1339260130    -1.3648511483     0.2023588227
   15      O      -1.4122313426     2.1994921758    -0.5460333886
   16      O       3.2001677974    -1.5632074987    -1.1598421705
   17      O       0.4470104837    -0.9520968737    -0.7246136758
   18      C       3.6104864868    -2.9773920539    -1.3091666998
   19      C       1.5302529649     1.7350032456    -0.8090488619
   20      C       2.1497938917     3.1603672999    -0.5247840765
   21      C       3.6200632783     2.9787878762    -1.0542462671
   22      C       3.5980269822     1.4555724798    -1.4656560132
   23      O       2.2416954767     1.2735705195    -2.0259366172
   24      H       1.9407727847     1.0967610005     1.3175889973
   25      H       4.2286403387     1.0746665819     0.6501205968
   26      H       0.4224025842     1.7182529633    -0.9337033764
   27      H       1.6099809689     3.9353909725    -1.0906222056
   28      H       2.1133190255     3.4176734867     0.5458279705
   29      H       3.8124112327     3.6095560814    -1.9370010075
   30      H       4.3827926508     3.1969719235    -0.2899657250
   31      H       4.3682573642     1.1491740121    -2.2000229601
   32      O      -1.5848323695     0.9704735326     1.9177309441
   33      C      -1.3492604987     3.6104415710    -0.1048050612
   34      C      -4.2054325773    -0.3687202874    -0.7592940078
   35      C      -4.2292739496    -1.7311452334    -1.5601468882
   36      C      -3.7428315207    -2.7460121616    -0.4599024808
   37      C      -3.4786762854    -1.7667091705     0.7514135687
   38      O      -4.5576805120    -0.7655351790     0.6247549529
   39      H      -2.1416033993     0.0485623838    -1.5632645543
   40      H      -1.3829919208    -1.5582767534    -0.0781576241
   41      H      -0.6299912562     3.7078692879     0.7323886844
   42      H      -4.9027991514     0.4110117399    -1.1214104202
   43      H      -5.2511574495    -1.9632056783    -1.8995610147
   44      H      -3.5620774046    -1.7063736840    -2.4365522125
   45      H      -4.5313505019    -3.4710447404    -0.2020349419
   46      H      -2.8365098663    -3.2970399052    -0.7577783516
   47      H      -3.5090045216    -2.2322616367     1.7555145583
   48      H      -2.3566268176     3.9294515976     0.2308449521
   49      H      -1.0082623266     4.2281094226    -0.9574533831
   50      H       2.8092663620    -3.6280874738    -0.9068318231
   51      H       4.5551481774    -3.1478418937    -0.7535386133
   52      H       3.7533167058    -3.1963439120    -2.3851912470
   53      H       1.3556843149    -3.4974835794     1.6609783570
   54      H       0.3798662459    -2.8533113462     0.2718421141
   55      H      -1.3965646589    -2.9661571413     1.8731546261
   56      H      -0.2652597912    -2.9181336155     3.2671724435
 ----------------------------------------------------------------

    9   -1510.2830736693      2.55E-09 Convergence criterion met
 Total energy in the final basis set = -1510.28307367
 Final energy is   -1510.28307366934
 **  OPTIMIZATION CONVERGED  **

                    Orbital Energies (a.u.)
 --------------------------------------------------------------

 Alpha MOs
 -- Occupied --
-18.945 -18.939 -18.939 -18.921 -18.891 -18.888 -18.883 -18.882
-18.881 -18.862 -10.109 -10.107 -10.103 -10.092 -10.087 -10.080
-10.066 -10.063 -10.059 -10.059 -10.048 -10.044 -10.039 -10.037
-10.036 -10.033 -10.024 -10.021 -10.017 -10.014  -1.025  -1.016
 -1.010  -0.997  -0.973  -0.965  -0.949  -0.940  -0.939  -0.924
 -0.764  -0.762  -0.727  -0.723  -0.715  -0.707  -0.700  -0.662
 -0.653  -0.622  -0.601  -0.588  -0.550  -0.545  -0.540  -0.534
 -0.515  -0.511  -0.489  -0.473  -0.470  -0.463  -0.454  -0.445
 -0.437  -0.434  -0.428  -0.425  -0.415  -0.413  -0.409  -0.402
 -0.399  -0.392  -0.375  -0.369  -0.361  -0.359  -0.351  -0.350
 -0.347  -0.344  -0.335  -0.331  -0.328  -0.327  -0.323  -0.317
 -0.310  -0.306  -0.304  -0.302  -0.299  -0.291  -0.278  -0.273
 -0.270  -0.259  -0.248  -0.246  -0.238  -0.236  -0.227  -0.190
 -0.178  -0.177  -0.165  -0.163  -0.159  -0.157  -0.146  -0.145
 -0.140

          Ground-State Mulliken Net Atomic Charges

     Atom                 Charge (a.u.)
  ----------------------------------------
      1 O                    -0.215841
      2 C                     0.221363
      3 C                    -0.079589
      4 C                    -0.092655
      5 C                     0.210785
      6 O                    -0.164836
      7 C                    -0.050860
      8 C                    -0.058163
      9 O                    -0.171551
     10 C                     0.219988
     11 C                    -0.077762
     12 C                    -0.079848
     13 C                     0.210690
     14 O                    -0.212328
     15 O                    -0.178391
     16 O                    -0.168201
     17 O                    -0.216136
     18 C                    -0.135112
     19 C                     0.013250
     20 C                    -0.145530
     21 C                    -0.143211
     22 C                     0.026467
     23 O                    -0.187709
     24 H                     0.090113
     25 H                     0.086486
     26 H                     0.109211
     27 H                     0.075627
     28 H                     0.072049
     29 H                     0.076961
     30 H                     0.073020
     31 H                     0.081422
     32 O                    -0.192865
     33 C                    -0.135198
     34 C                     0.026132
     35 C                    -0.144366
     36 C                    -0.143433
     37 C                     0.021436
     38 O                    -0.185192
     39 H                     0.091696
     40 H                     0.097670
     41 H                     0.084140
     42 H                     0.088915
     43 H                     0.078508
     44 H                     0.076294
     45 H                     0.077971
     46 H                     0.071636
     47 H                     0.079231
     48 H                     0.103188
     49 H                     0.081521
     50 H                     0.081885
     51 H                     0.102535
     52 H                     0.088382
     53 H                     0.088774
     54 H                     0.092741
     55 H                     0.084864
     56 H                     0.093825
  ----------------------------------------
  Sum of atomic charges =     0.000000

                    Cartesian Multipole Moments
 -----------------------------------------------------------------
    Charge (ESU x 10^10)
                 0.0000
    Dipole Moment (Debye)
         X       1.2344      Y      -2.8994      Z      -1.0147
       Tot       3.3106
    Quadrupole Moments (Debye-Ang)
        XX    -172.5186     XY      11.3420     YY    -142.3186
        XZ       4.5022     YZ      -3.9034     ZZ    -165.3016

 Total job time:  120.31s(wall), 5737.16s(cpu)
        *  Thank you very much for using Q-Chem.  Have a nice day.  *
