 Q-Chem 5.0, Q-Chem, Inc., Pleasanton, CA (2017)
 Q-Chem 5.0.1 for Intel X86 EM64T Linux

User input:
--------------------------------------------------------------
$molecule
0  1
O 1.5666175376 0.0603349233 1.6429314666
C 1.6746517758 -0.8066352469 0.7435346619
C 2.5982658232 -0.7210441546 -0.5199151784
C 3.2547776224 0.7095064603 -0.7140583794
C 3.0970095141 1.6637283829 0.5515195091
O 2.4385477921 2.9358528887 0.2765130028
C 1.0266615691 2.7579073673 -0.1014301463
C 0.0316795807 2.6618291453 1.1163130788
O -1.3194460105 2.486967996 0.5231446793
C -1.7564784665 1.1224488458 0.6488510908
C -2.9084865887 0.9556590172 -0.4102335235
C -3.3239698167 -0.5024225763 -0.8805447041
C -2.5948509982 -1.7061635073 -0.1935934524
O -2.3875897471 -1.90396265 1.0245973125
O 1.073653158 -2.0989639775 0.8042423083
O -2.0729128641 -2.5262260213 -1.2448025586
O -1.2457072465 0.3031386839 1.4386143539
C -1.1613821824 -3.56409178 -0.7034973992
C -4.2984079029 1.4909842202 0.1678030184
C -5.2343513466 1.8503823414 -1.0523061974
C -5.6371135299 0.4146673364 -1.5546819048
C -4.8763616488 -0.4972188713 -0.513433959
O -4.9247144274 0.2819542805 0.7426840482
H -2.6091853173 1.5603302811 -1.2844310824
H -3.1747234543 -0.6141552631 -1.9686126618
H -4.1974875778 2.2827863915 0.9351711331
H -6.1124950222 2.4188211015 -0.7067361758
H -4.7091636523 2.4411910719 -1.8194739721
H -6.7245838208 0.2520483138 -1.4870256505
H -5.3142156046 0.2187205192 -2.5895070708
H -5.3126993796 -1.5035422165 -0.3616974325
O 3.8258735223 1.5891314149 1.5630671044
C 0.3217979407 -2.2723493393 2.0797185524
C 3.8859186811 -1.6519748479 -0.4333607917
C 4.4143590464 -1.8630275263 -1.9060239536
C 5.0118488509 -0.4398089684 -2.2139112555
C 4.7845287184 0.2977502728 -0.8342719299
O 4.9144457815 -0.7805420379 0.1738449563
H 1.989636952 -1.0004349164 -1.4000808335
H 2.8810717257 1.216140371 -1.6199285642
H -0.7680330657 -2.180515097 1.8618744262
H 3.7471015388 -2.5756641116 0.1614983566
H 5.1955033263 -2.6400129715 -1.9230180875
H 3.6120061139 -2.1522631924 -2.6034170754
H 6.0861276931 -0.4935059952 -2.4506576812
H 4.4927600032 0.0680955609 -3.0427233038
H 5.4957580266 1.1166406843 -0.6129258348
H 0.6300499851 -1.4955714014 2.8040995689
H 0.5617618328 -3.2832011319 2.4592678322
H -0.9324883621 -4.2382399337 -1.5488498578
H -1.638828636 -4.1412066981 0.1133848753
H -0.2230284657 -3.0979444413 -0.3210288501
H 0.2890988679 1.7860334114 1.7531742052
H 0.0385158207 3.5950094541 1.7134778408
H 0.8755833086 1.8542536433 -0.7331147804
H 0.7563373995 3.6455123401 -0.7118787441
$end

$rem
JOBTYPE                   OPT
METHOD                    B3LYP
DFT_D                     d3_op
BASIS                     STO-3G
GEOM_OPT_MAX_CYCLES       100
GEOM_OPT_TOL_GRADIENT     300
GEOM_OPT_TOL_DISPLACEMENT 1200
GEOM_OPT_TOL_ENERGY       100
SYMMETRY                  False
THRESH                    12
SCF_CONVERGENCE           8
MAX_SUB_FILE_NUM          128
MEM_STATIC                400
MEM_TOTAL                 4000
$end
--------------------------------------------------------------

   16   -1510.2689515998      5.64E-09 Convergence criterion met
 Total energy in the final basis set = -1510.26895160
   15   -1510.2666024227      8.00E-09 Convergence criterion met
 Total energy in the final basis set = -1510.26660242
   14   -1510.2674944279      3.72E-09 Convergence criterion met
 Total energy in the final basis set = -1510.26749443
   14   -1510.2734405635      4.49E-09 Convergence criterion met
 Total energy in the final basis set = -1510.27344056
   16   -1510.0240939792      3.38E-09 Convergence criterion met
 Total energy in the final basis set = -1510.02409398
   16   -1510.2567144209      4.00E-09 Convergence criterion met
 Total energy in the final basis set = -1510.25671442
   13   -1510.2656884784      6.30E-09 Convergence criterion met
 Total energy in the final basis set = -1510.26568848
   13   -1510.2691204298      5.95E-09 Convergence criterion met
   11   -1510.2945354154      8.26E-09 Convergence criterion met
 Total energy in the final basis set = -1510.29453542
   12   -1510.2945488059      3.42E-09 Convergence criterion met
 Total energy in the final basis set = -1510.29454881
   11   -1510.2945569438      4.22E-09 Convergence criterion met
 Total energy in the final basis set = -1510.29455694
   10   -1510.2945600152      7.85E-09 Convergence criterion met
 Total energy in the final basis set = -1510.29456002
   10   -1510.2945591394      8.48E-09 Convergence criterion met
 Total energy in the final basis set = -1510.29455914
   10   -1510.2945613116      8.84E-09 Convergence criterion met
 Total energy in the final basis set = -1510.29456131

             Standard Nuclear Orientation (Angstroms)
    I     Atom           X                Y                Z
 ----------------------------------------------------------------
    1      O      -1.5446219473     0.6149788770    -1.7546003838
    2      C      -1.6352795288    -0.4115310211    -1.0406238375
    3      C      -2.4352514390    -0.5574358654     0.2971298230
    4      C      -3.3281048175     0.7054868690     0.6237148026
    5      C      -3.2475307551     1.9107443464    -0.4100519965
    6      O      -2.3469377915     3.0040276775    -0.1175549036
    7      C      -1.1013560408     2.6480476903     0.5904073162
    8      C       0.0786677088     2.6726162987    -0.4559322410
    9      O       1.3915044923     2.3914981613     0.1810845512
   10      C       1.5876960376     0.9908534689     0.3356028967
   11      C       2.9996728419     0.7293464283     0.9579552856
   12      C       3.4068141820    -0.8009690319     0.9203996861
   13      C       2.3211781082    -1.7516297077     0.2893773218
   14      O       2.2897316760    -2.1535894600    -0.8980640052
   15      O      -1.0450668146    -1.6710802999    -1.3482593795
   16      O       1.4665754721    -2.2154590209     1.3342309742
   17      O       0.7511722379     0.1187114429     0.0016416842
   18      C       0.4058042136    -3.0933228681     0.7806678125
   19      C       4.1525433201     1.3740252356     0.0746161203
   20      C       5.4876912769     1.3757370253     0.9179291684
   21      C       5.8902501753    -0.1443787371     0.8535753760
   22      C       4.7006611974    -0.7384933591     0.0030914901
   23      O       4.3900278313     0.3439044892    -0.9611172013
   24      H       3.0093053794     1.1308426962     1.9880040829
   25      H       3.6359246421    -1.1675787569     1.9366113953
   26      H       3.8750389816     2.3417562301    -0.3863855080
   27      H       6.2442522832     2.0162295319     0.4376171605
   28      H       5.3259121895     1.7313808596     1.9481113683
   29      H       6.8477077755    -0.2865171097     0.3275213191
   30      H       5.9619648789    -0.6093189681     1.8498811667
   31      H       4.9190143346    -1.6802204393    -0.5365138309
   32      O      -4.0822955110     2.0933599878    -1.3209853446
   33      C      -0.1112976925    -1.5782005782    -2.5003851055
   34      C      -3.5371676353    -1.6954745422     0.1769273159
   35      C      -4.0791361541    -2.0274469551     1.6215277380
   36      C      -4.9934257893    -0.7764934758     1.8973152097
   37      C      -4.7795468310     0.0548452079     0.5713046538
   38      O      -4.6631342155    -0.9888970790    -0.4726748842
   39      H      -1.7126150437    -0.7752114048     1.1048003366
   40      H      -3.1133606433     1.0870364668     1.6371118435
   41      H       0.9071704943    -1.8121973193    -2.1076772275
   42      H      -3.2153212708    -2.5668322929    -0.4257012570
   43      H      -4.6631622097    -2.9612968505     1.6075666420
   44      H      -3.2647251601    -2.1316180257     2.3562656021
   45      H      -6.0512432789    -1.0658623169     2.0020329827
   46      H      -4.6905014885    -0.2155344405     2.7957209870
   47      H      -5.5862751895     0.7672669856     0.3127458438
   48      H      -0.1536719908    -0.5593919918    -2.9310048600
   49      H      -0.4206278645    -2.3254520232    -3.2558671152
   50      H      -0.2254172764    -3.3779747082     1.6420776085
   51      H       0.8404933698    -4.0083684557     0.3296388075
   52      H      -0.2055358035    -2.5596486653     0.0108732973
   53      H      -0.1642551011     1.9282393771    -1.2479091816
   54      H       0.1678694507     3.6843560830    -0.8976475990
   55      H      -1.1354647319     1.6523929741     1.0731350586
   56      H      -0.9310883909     3.4165843412     1.3739359494
 ----------------------------------------------------------------

    9   -1510.2945614659      3.94E-09 Convergence criterion met
 Total energy in the final basis set = -1510.29456147
 Final energy is   -1510.29456146594
 **  OPTIMIZATION CONVERGED  **

                    Orbital Energies (a.u.)
 --------------------------------------------------------------

 Alpha MOs
 -- Occupied --
-18.951 -18.948 -18.926 -18.920 -18.893 -18.891 -18.889 -18.889
-18.866 -18.865 -10.117 -10.114 -10.099 -10.095 -10.074 -10.068
-10.065 -10.063 -10.061 -10.059 -10.047 -10.045 -10.044 -10.041
-10.038 -10.036 -10.025 -10.023 -10.023 -10.021  -1.030  -1.020
 -1.003  -0.996  -0.974  -0.972  -0.953  -0.946  -0.929  -0.929
 -0.768  -0.766  -0.729  -0.725  -0.716  -0.707  -0.700  -0.657
 -0.654  -0.617  -0.599  -0.587  -0.551  -0.548  -0.541  -0.540
 -0.518  -0.511  -0.488  -0.483  -0.466  -0.460  -0.458  -0.457
 -0.437  -0.435  -0.428  -0.426  -0.416  -0.407  -0.399  -0.395
 -0.393  -0.391  -0.381  -0.374  -0.368  -0.360  -0.355  -0.350
 -0.346  -0.338  -0.337  -0.332  -0.330  -0.327  -0.322  -0.316
 -0.315  -0.309  -0.307  -0.304  -0.299  -0.288  -0.281  -0.279
 -0.275  -0.262  -0.259  -0.244  -0.238  -0.236  -0.234  -0.198
 -0.182  -0.172  -0.167  -0.164  -0.158  -0.149  -0.148  -0.146
 -0.141

          Ground-State Mulliken Net Atomic Charges

     Atom                 Charge (a.u.)
  ----------------------------------------
      1 O                    -0.211435
      2 C                     0.233663
      3 C                    -0.081247
      4 C                    -0.087576
      5 C                     0.216293
      6 O                    -0.175868
      7 C                    -0.050048
      8 C                    -0.057719
      9 O                    -0.169547
     10 C                     0.216518
     11 C                    -0.078142
     12 C                    -0.081880
     13 C                     0.220254
     14 O                    -0.226963
     15 O                    -0.168249
     16 O                    -0.174811
     17 O                    -0.217406
     18 C                    -0.147745
     19 C                     0.024516
     20 C                    -0.143761
     21 C                    -0.144092
     22 C                     0.025350
     23 O                    -0.188636
     24 H                     0.086799
     25 H                     0.084473
     26 H                     0.089075
     27 H                     0.079333
     28 H                     0.073467
     29 H                     0.078918
     30 H                     0.073625
     31 H                     0.088236
     32 O                    -0.199902
     33 C                    -0.144923
     34 C                     0.024744
     35 C                    -0.144366
     36 C                    -0.144264
     37 C                     0.026715
     38 O                    -0.186906
     39 H                     0.088412
     40 H                     0.077111
     41 H                     0.117284
     42 H                     0.089108
     43 H                     0.078986
     44 H                     0.072568
     45 H                     0.079097
     46 H                     0.072304
     47 H                     0.090954
     48 H                     0.096879
     49 H                     0.084357
     50 H                     0.077135
     51 H                     0.079204
     52 H                     0.111104
     53 H                     0.110130
     54 H                     0.093268
     55 H                     0.081617
     56 H                     0.083989
  ----------------------------------------
  Sum of atomic charges =     0.000000

                    Cartesian Multipole Moments
 -----------------------------------------------------------------
    Charge (ESU x 10^10)
                 0.0000
    Dipole Moment (Debye)
         X       2.6147      Y      -0.9746      Z       4.8232
       Tot       5.5722
    Quadrupole Moments (Debye-Ang)
        XX    -162.8196     XY       9.2496     YY    -161.1512
        XZ      -5.8992     YZ       4.2932     ZZ    -160.4762

 Total job time:  132.89s(wall), 6340.32s(cpu)
        *  Thank you very much for using Q-Chem.  Have a nice day.  *
