 Q-Chem 5.0, Q-Chem, Inc., Pleasanton, CA (2017)
 Q-Chem 5.0.1 for Intel X86 EM64T Linux

User input:
--------------------------------------------------------------
$molecule
0  1
O -3.94934 -3.66094 2.70899
C -3.26408 -4.56952 2.26188
C -3.36658 -6.02376 2.66595
C -4.25419 -6.35572 3.87665
C -5.08044 -5.22016 4.4387
O -4.78927 -5.04497 5.76156
C -3.45078 -4.59074 5.9882
C -3.38487 -3.0713 5.87371
O -2.04018 -2.62119 6.10192
C -1.35289 -2.25148 4.99283
C 0.14181 -2.22852 5.2073
C 0.98093 -2.27001 3.92183
C 0.23593 -1.9708 2.63647
O -0.52956 -1.03358 2.46262
O -2.54077 -4.33624 1.13816
O 0.56554 -2.75272 1.57719
O -1.90429 -2.30049 3.90797
C 0.5915 -2.29787 0.27431
C 0.64167 -0.92617 5.8522
C 1.98608 -1.17666 6.5337
C 2.88597 -1.35222 5.32656
C 1.89217 -1.05614 4.19696
O 1.00651 -0.11842 4.76204
H 0.38839 -3.09525 5.86285
H 1.56871 -3.20643 3.79334
H -0.08415 -0.48568 6.57033
H 2.26979 -0.23396 7.05436
H 2.00043 -2.01594 7.26197
H 3.67825 -0.57186 5.3642
H 3.34582 -2.35824 5.21713
H 2.43279 -0.72319 3.28281
O -6.14734 -4.85647 3.96474
C -2.69308 -3.20943 0.35989
C -4.04061 -6.87068 1.57054
C -3.65942 -8.34156 1.73774
C -4.48505 -8.7084 2.95161
C -5.20239 -7.38046 3.21356
O -5.40052 -6.85478 1.92368
H -2.31995 -6.36218 2.83615
H -3.70035 -6.88518 4.68572
H -2.45593 -2.29755 0.94631
H -3.79943 -6.53048 0.53981
H -4.05266 -8.90315 0.8604
H -2.56662 -8.51991 1.83302
H -5.23283 -9.47503 2.64808
H -3.90871 -9.07382 3.8287
H -6.12169 -7.559 3.81472
H -3.73905 -3.14438 -0.00938
H -2.0284 -3.28824 -0.52278
H 0.81866 -3.14462 -0.40525
H 1.3877 -1.53111 0.16569
H -0.3694 -1.83442 -0.01611
H -3.83997 -2.72998 4.92548
H -4.03713 -2.62297 6.6528
H -2.6949 -5.03248 5.30506
H -3.14934 -4.87328 7.01901
$end

$opt
CONSTRAINT
tors           1           2           3           4      -9.474
tors           3           4           5           6    -123.158
tors           4           5           6           7     +66.316
tors           5           6           7           8     +85.263
tors           6           7           8           9    -180.000
tors           7           8           9          10    +104.211
tors           8           9          10          11    -161.053
tors           9          10          11          12    +161.053
tors          11          12          13          14     +47.368
ENDCONSTRAINT
$end

$rem
JOBTYPE                   OPT
METHOD                    B3LYP
DFT_D                     d3_op
BASIS                     STO-3G
GEOM_OPT_MAX_CYCLES       100
GEOM_OPT_TOL_GRADIENT     300
GEOM_OPT_TOL_DISPLACEMENT 1200
GEOM_OPT_TOL_ENERGY       100
SYMMETRY                  False
THRESH                    12
SCF_CONVERGENCE           8
MAX_SUB_FILE_NUM          128
MEM_STATIC                400
MEM_TOTAL                 4000
$end
--------------------------------------------------------------

   15   -1510.1177960366      5.66E-09 Convergence criterion met
 Total energy in the final basis set = -1510.11779604
   14   -1510.1877724053      3.04E-09 Convergence criterion met
 Total energy in the final basis set = -1510.18777241
   14   -1510.2280206294      4.14E-09 Convergence criterion met
 Total energy in the final basis set = -1510.22802063
   14   -1510.2480435582      7.77E-09 Convergence criterion met
 Total energy in the final basis set = -1510.24804356
   14   -1510.2571072226      6.21E-09 Convergence criterion met
 Total energy in the final basis set = -1510.25710722
   13   -1510.2610384709      5.14E-09 Convergence criterion met
 Total energy in the final basis set = -1510.26103847
   13   -1510.2632216103      7.56E-09 Convergence criterion met
 Total energy in the final basis set = -1510.26322161
   13   -1510.2647959572      5.43E-09 Convergence criterion met
   11   -1510.2690421761      2.15E-09 Convergence criterion met
 Total energy in the final basis set = -1510.26904218
   10   -1510.2690437771      5.34E-09 Convergence criterion met
 Total energy in the final basis set = -1510.26904378
    9   -1510.2690469165      6.45E-09 Convergence criterion met
 Total energy in the final basis set = -1510.26904692
   10   -1510.2690479630      7.78E-09 Convergence criterion met
 Total energy in the final basis set = -1510.26904796
    8   -1510.2690482462      9.27E-09 Convergence criterion met
 Total energy in the final basis set = -1510.26904825
    9   -1510.2690483499      5.68E-09 Convergence criterion met
 Total energy in the final basis set = -1510.26904835

             Standard Nuclear Orientation (Angstroms)
    I     Atom           X                Y                Z
 ----------------------------------------------------------------
    1      O       1.5666175376     0.0603349233     1.6429314666
    2      C       1.6746517758    -0.8066352469     0.7435346619
    3      C       2.5982658232    -0.7210441546    -0.5199151784
    4      C       3.2547776224     0.7095064603    -0.7140583794
    5      C       3.0970095141     1.6637283829     0.5515195091
    6      O       2.4385477921     2.9358528887     0.2765130028
    7      C       1.0266615691     2.7579073673    -0.1014301463
    8      C       0.0316795807     2.6618291453     1.1163130788
    9      O      -1.3194460105     2.4869679960     0.5231446793
   10      C      -1.7564784665     1.1224488458     0.6488510908
   11      C      -2.9084865887     0.9556590172    -0.4102335235
   12      C      -3.3239698167    -0.5024225763    -0.8805447041
   13      C      -2.5948509982    -1.7061635073    -0.1935934524
   14      O      -2.3875897471    -1.9039626500     1.0245973125
   15      O       1.0736531580    -2.0989639775     0.8042423083
   16      O      -2.0729128641    -2.5262260213    -1.2448025586
   17      O      -1.2457072465     0.3031386839     1.4386143539
   18      C      -1.1613821824    -3.5640917800    -0.7034973992
   19      C      -4.2984079029     1.4909842202     0.1678030184
   20      C      -5.2343513466     1.8503823414    -1.0523061974
   21      C      -5.6371135299     0.4146673364    -1.5546819048
   22      C      -4.8763616488    -0.4972188713    -0.5134339590
   23      O      -4.9247144274     0.2819542805     0.7426840482
   24      H      -2.6091853173     1.5603302811    -1.2844310824
   25      H      -3.1747234543    -0.6141552631    -1.9686126618
   26      H      -4.1974875778     2.2827863915     0.9351711331
   27      H      -6.1124950222     2.4188211015    -0.7067361758
   28      H      -4.7091636523     2.4411910719    -1.8194739721
   29      H      -6.7245838208     0.2520483138    -1.4870256505
   30      H      -5.3142156046     0.2187205192    -2.5895070708
   31      H      -5.3126993796    -1.5035422165    -0.3616974325
   32      O       3.8258735223     1.5891314149     1.5630671044
   33      C       0.3217979407    -2.2723493393     2.0797185524
   34      C       3.8859186811    -1.6519748479    -0.4333607917
   35      C       4.4143590464    -1.8630275263    -1.9060239536
   36      C       5.0118488509    -0.4398089684    -2.2139112555
   37      C       4.7845287184     0.2977502728    -0.8342719299
   38      O       4.9144457815    -0.7805420379     0.1738449563
   39      H       1.9896369520    -1.0004349164    -1.4000808335
   40      H       2.8810717257     1.2161403710    -1.6199285642
   41      H      -0.7680330657    -2.1805150970     1.8618744262
   42      H       3.7471015388    -2.5756641116     0.1614983566
   43      H       5.1955033263    -2.6400129715    -1.9230180875
   44      H       3.6120061139    -2.1522631924    -2.6034170754
   45      H       6.0861276931    -0.4935059952    -2.4506576812
   46      H       4.4927600032     0.0680955609    -3.0427233038
   47      H       5.4957580266     1.1166406843    -0.6129258348
   48      H       0.6300499851    -1.4955714014     2.8040995689
   49      H       0.5617618328    -3.2832011319     2.4592678322
   50      H      -0.9324883621    -4.2382399337    -1.5488498578
   51      H      -1.6388286360    -4.1412066981     0.1133848753
   52      H      -0.2230284657    -3.0979444413    -0.3210288501
   53      H       0.2890988679     1.7860334114     1.7531742052
   54      H       0.0385158207     3.5950094541     1.7134778408
   55      H       0.8755833086     1.8542536433    -0.7331147804
   56      H       0.7563373995     3.6455123401    -0.7118787441
 ----------------------------------------------------------------

    8   -1510.2690484900      6.98E-09 Convergence criterion met
 Total energy in the final basis set = -1510.26904849
 Final energy is   -1510.26904848997
 **  OPTIMIZATION CONVERGED  **

                    Orbital Energies (a.u.)
 --------------------------------------------------------------

 Alpha MOs
 -- Occupied --
-18.943 -18.936 -18.926 -18.907 -18.895 -18.892 -18.890 -18.886
-18.885 -18.873 -10.109 -10.104 -10.103 -10.092 -10.068 -10.066
-10.065 -10.065 -10.062 -10.057 -10.056 -10.044 -10.044 -10.043
-10.040 -10.036 -10.025 -10.024 -10.024 -10.023  -1.019  -1.015
 -1.010  -0.992  -0.977  -0.973  -0.944  -0.943  -0.936  -0.926
 -0.768  -0.765  -0.727  -0.724  -0.716  -0.708  -0.693  -0.664
 -0.654  -0.613  -0.598  -0.581  -0.550  -0.549  -0.542  -0.541
 -0.519  -0.512  -0.479  -0.473  -0.464  -0.462  -0.456  -0.455
 -0.438  -0.437  -0.429  -0.422  -0.413  -0.411  -0.400  -0.398
 -0.385  -0.381  -0.378  -0.374  -0.366  -0.359  -0.358  -0.350
 -0.341  -0.340  -0.335  -0.335  -0.332  -0.329  -0.319  -0.316
 -0.315  -0.309  -0.307  -0.304  -0.300  -0.290  -0.288  -0.276
 -0.273  -0.257  -0.255  -0.245  -0.240  -0.237  -0.230  -0.185
 -0.184  -0.178  -0.168  -0.161  -0.152  -0.150  -0.148  -0.144
 -0.138

          Ground-State Mulliken Net Atomic Charges

     Atom                 Charge (a.u.)
  ----------------------------------------
      1 O                    -0.201728
      2 C                     0.215020
      3 C                    -0.081257
      4 C                    -0.085120
      5 C                     0.215927
      6 O                    -0.184595
      7 C                    -0.046632
      8 C                    -0.062619
      9 O                    -0.181880
     10 C                     0.207001
     11 C                    -0.079371
     12 C                    -0.080750
     13 C                     0.211886
     14 O                    -0.201028
     15 O                    -0.174330
     16 O                    -0.172302
     17 O                    -0.200509
     18 C                    -0.142362
     19 C                     0.027301
     20 C                    -0.143407
     21 C                    -0.144206
     22 C                     0.026788
     23 O                    -0.185510
     24 H                     0.085923
     25 H                     0.086701
     26 H                     0.087091
     27 H                     0.079383
     28 H                     0.074556
     29 H                     0.079065
     30 H                     0.074104
     31 H                     0.083831
     32 O                    -0.187785
     33 C                    -0.150020
     34 C                     0.026138
     35 C                    -0.142704
     36 C                    -0.145046
     37 C                     0.027350
     38 O                    -0.182910
     39 H                     0.081949
     40 H                     0.078543
     41 H                     0.119604
     42 H                     0.087277
     43 H                     0.079243
     44 H                     0.073036
     45 H                     0.079459
     46 H                     0.072986
     47 H                     0.087945
     48 H                     0.100911
     49 H                     0.080263
     50 H                     0.085402
     51 H                     0.086759
     52 H                     0.102652
     53 H                     0.112098
     54 H                     0.087892
     55 H                     0.068657
     56 H                     0.083327
  ----------------------------------------
  Sum of atomic charges =     0.000000

                    Cartesian Multipole Moments
 -----------------------------------------------------------------
    Charge (ESU x 10^10)
                 0.0000
    Dipole Moment (Debye)
         X      -1.9763      Y      -1.2457      Z      -5.3666
       Tot       5.8530
    Quadrupole Moments (Debye-Ang)
        XX    -165.2108     XY      -8.1756     YY    -155.3173
        XZ      -4.5983     YZ      -2.9245     ZZ    -162.5151

 Total job time:  118.61s(wall), 5660.57s(cpu)
        *  Thank you very much for using Q-Chem.  Have a nice day.  *
