 Q-Chem 5.0, Q-Chem, Inc., Pleasanton, CA (2017)
 Q-Chem 5.0.1 for Intel X86 EM64T Linux

User input:
--------------------------------------------------------------
$molecule
0  1
O -3.3381053316 -1.7664738647 -0.2613955224
C -3.6729494881 -0.7431569483 -0.8987103137
C -3.9943613514 0.6878602637 -0.3224864581
C -3.2044339484 0.9665757633 1.0235912082
C -3.1308554022 -0.3489238968 1.9413460625
O -1.9805544427 -0.7299270211 2.7268591997
C -0.6737046806 -0.6840327161 2.0460289928
C -0.5475716594 -1.7472972108 0.8894379366
O 0.8849504249 -1.9579689456 0.5734948169
C 1.315375841 -0.9592576376 -0.3667092592
C 2.8310860225 -1.1833357224 -0.7000659641
C 3.705632456 0.1247208505 -0.8815921068
C 3.1809444892 1.3833205416 -0.0803655035
O 2.0179118643 1.6772405625 0.2659534798
O -3.8794504755 -0.7351235823 -2.3133024405
O 4.3013769032 2.2498738324 0.150933524
O 0.5365987542 -0.1579971635 -0.9261746723
C 3.8588938975 3.4634406264 0.8737492899
C 3.6996136338 -2.0056218185 0.3488739811
C 4.7988400492 -2.7779075306 -0.4755995933
C 5.6842939232 -1.5719613102 -0.9672305993
C 5.0418978923 -0.3636990053 -0.1746924545
O 4.4974680906 -0.9801838301 1.0611263686
H 2.8312770245 -1.7277483628 -1.6640227011
H 3.8387854083 0.3976172401 -1.944402735
H 3.1033498823 -2.6096748467 1.0592533616
H 5.3694718508 -3.4502043656 0.1852226661
H 4.3748541924 -3.3678833582 -1.3036541759
H 6.7417464209 -1.700914295 -0.6879265256
H 5.6249592878 -1.4224563111 -2.0574783424
H 5.7326059514 0.4634757847 0.0760591101
O -4.2076101774 -0.906222434 2.2546136064
C -3.5866644148 -2.0736277768 -2.8760026367
C -3.3064092734 1.7415283498 -1.2823982252
C -3.6050429092 3.2128771842 -0.7961330014
C -2.5909807721 3.354373749 0.3965521514
C -2.0131750298 1.8846529151 0.4738908497
O -1.873102618 1.5209406711 -0.953912914
H -5.0870277516 0.8134974809 -0.2140517464
H -3.8430115273 1.6208519842 1.6477940225
H -4.2292259697 -2.8566178373 -2.4241841045
H -3.4904233638 1.5450493304 -2.3554855211
H -3.3963354057 3.9379049756 -1.5983162454
H -4.6532307835 3.3321401272 -0.4775032104
H -1.7814202702 4.0603069519 0.1509124402
H -3.0686753305 3.6748556344 1.3360624433
H -1.0382646979 1.8185997633 0.9866959214
H -2.525122185 -2.3551532388 -2.7205878977
H -3.7949530765 -1.9998130726 -3.9591735631
H 4.7612005639 4.0899789269 0.9982630855
H 3.4404956233 3.2145560957 1.8704446469
H 3.0918443821 4.0241099912 0.3012640493
H -0.9386131586 -2.7243041876 1.2374233909
H -1.1177065416 -1.4169128759 -0.0032377799
H 0.0585045406 -0.9450613699 2.8383669639
H -0.4087661651 0.3163613261 1.6566049999
$end

$rem
JOBTYPE                   OPT
METHOD                    B3LYP
DFT_D                     d3_op
BASIS                     STO-3G
GEOM_OPT_MAX_CYCLES       100
GEOM_OPT_TOL_GRADIENT     300
GEOM_OPT_TOL_DISPLACEMENT 1200
GEOM_OPT_TOL_ENERGY       100
SYMMETRY                  False
THRESH                    12
SCF_CONVERGENCE           8
MAX_SUB_FILE_NUM          128
MEM_STATIC                400
MEM_TOTAL                 4000
$end
--------------------------------------------------------------

   16   -1510.2478495397      7.91E-09 Convergence criterion met
 Total energy in the final basis set = -1510.24784954
   13   -1510.2500590914      5.61E-09 Convergence criterion met
 Total energy in the final basis set = -1510.25005909
   13   -1510.2535518275      9.69E-09 Convergence criterion met
 Total energy in the final basis set = -1510.25355183
   14   -1510.2570143097      7.02E-09 Convergence criterion met
 Total energy in the final basis set = -1510.25701431
   13   -1510.2599612080      8.92E-09 Convergence criterion met
 Total energy in the final basis set = -1510.25996121
   14   -1510.2636813553      4.79E-09 Convergence criterion met
 Total energy in the final basis set = -1510.26368136
   14   -1510.2685417442      2.56E-09 Convergence criterion met
 Total energy in the final basis set = -1510.26854174
   14   -1510.2727834781      6.64E-09 Convergence criterion met
   12   -1510.2923206438      5.00E-09 Convergence criterion met
 Total energy in the final basis set = -1510.29232064
   12   -1510.2922640441      3.74E-09 Convergence criterion met
 Total energy in the final basis set = -1510.29226404
   12   -1510.2923396474      3.30E-09 Convergence criterion met
 Total energy in the final basis set = -1510.29233965
   11   -1510.2923510212      5.83E-09 Convergence criterion met
 Total energy in the final basis set = -1510.29235102
   11   -1510.2923590328      3.92E-09 Convergence criterion met
 Total energy in the final basis set = -1510.29235903
   11   -1510.2923620255      3.85E-09 Convergence criterion met
 Total energy in the final basis set = -1510.29236203

             Standard Nuclear Orientation (Angstroms)
    I     Atom           X                Y                Z
 ----------------------------------------------------------------
    1      O       2.7672954196    -1.7905806423    -0.2504588490
    2      C       2.7971611165    -0.9296472417     0.6603402133
    3      C       3.0940580718     0.5963945592     0.4883098483
    4      C       3.2369679257     1.0436612267    -1.0249843791
    5      C       3.1990846475    -0.1314817505    -2.1192245733
    6      O       2.0110379725    -0.4875822968    -2.8370691559
    7      C       0.7164351674    -0.3966037489    -2.1205106760
    8      C       0.2693455993    -1.8488269101    -1.7064223894
    9      O      -1.0746075023    -1.8542113823    -1.0694574278
   10      C      -1.0114406643    -1.3454763202     0.2574082497
   11      C      -2.4448963954    -1.3372708668     0.9071145362
   12      C      -3.1201962713     0.1029914710     0.9166024181
   13      C      -2.2575160071     1.1853460517     0.1852876498
   14      O      -1.7162350688     1.0826312950    -0.9379086226
   15      O       2.6281578494    -1.2105957215     2.0454574338
   16      O      -2.1683286645     2.3413222425     1.0191612515
   17      O       0.0435981780    -0.9868310248     0.8321818292
   18      C      -1.2607638304     3.3352612274     0.3892753179
   19      C      -3.5266741771    -2.1722529952     0.1019664897
   20      C      -4.7567713328    -2.4350581830     1.0586368003
   21      C      -5.4287798405    -1.0121464219     1.0877925858
   22      C      -4.4679676709    -0.2028770122     0.1284375600
   23      O      -4.0572165650    -1.2010129392    -0.8820643032
   24      H      -2.3332687341    -1.7094949937     1.9417014139
   25      H      -3.3194330449     0.4518138123     1.9448535751
   26      H      -3.1253058496    -3.0649143499    -0.4142224732
   27      H      -5.4292320501    -3.1890131104     0.6195289225
   28      H      -4.4430179529    -2.7794930419     2.0569339664
   29      H      -6.4507455626    -1.0380810121     0.6772425577
   30      H      -5.4654108570    -0.5777402288     2.0996960626
   31      H      -4.9235516370     0.6797679158    -0.3611866273
   32      O       4.2785098416    -0.6024033661    -2.5467210464
   33      C       2.2550770082    -2.6331993500     2.2297890557
   34      C       1.9081529387     1.5227230908     0.9857257877
   35      C       2.4676259738     2.9829066469     1.1831323754
   36      C       2.6562464555     3.4464116028    -0.3115791001
   37      C       2.1415045853     2.1837289789    -1.1043836532
   38      O       1.0560159784     1.6707918890    -0.2226537881
   39      H       4.0134152118     0.8242195856     1.0580569995
   40      H       4.2379586552     1.4860474216    -1.1746456792
   41      H       3.0070834871    -3.3145404841     1.7825100753
   42      H       1.3161078934     1.1016422190     1.8212845248
   43      H       1.7291683619     3.6088076963     1.7087910696
   44      H       3.4091154881     2.9901872488     1.7546580910
   45      H       2.0332700789     4.3252658498    -0.5428969903
   46      H       3.7043726450     3.6837320093    -0.5531046583
   47      H       1.7438599240     2.3869274324    -2.1173424991
   48      H       1.2653094035    -2.8341149211     1.7715192754
   49      H       2.2021889849    -2.7962282652     3.3216212147
   50      H      -1.0714388596     4.1033305977     1.1609213219
   51      H      -1.7391905854     3.8112980839    -0.4906306054
   52      H      -0.3103468192     2.8328765788     0.0774208060
   53      H       0.1686548253    -2.4929950210    -2.6021128094
   54      H       1.0464319978    -2.2667813967    -1.0272988791
   55      H      -0.0160034929     0.0223385996    -2.8408092308
   56      H       0.7528191012     0.2664693330    -1.2224441667
 ----------------------------------------------------------------

    9   -1510.2923636741      8.22E-09 Convergence criterion met
 Total energy in the final basis set = -1510.29236367
 Final energy is   -1510.29236367410
 **  OPTIMIZATION CONVERGED  **

                    Orbital Energies (a.u.)
 --------------------------------------------------------------

 Alpha MOs
 -- Occupied --
-18.946 -18.931 -18.930 -18.925 -18.908 -18.887 -18.886 -18.865
-18.864 -18.851 -10.111 -10.098 -10.090 -10.087 -10.077 -10.076
-10.068 -10.058 -10.056 -10.048 -10.047 -10.038 -10.038 -10.035
-10.035 -10.034 -10.034 -10.033 -10.019 -10.018  -1.021  -1.008
 -1.001  -0.998  -0.984  -0.967  -0.945  -0.931  -0.926  -0.915
 -0.775  -0.760  -0.732  -0.721  -0.718  -0.706  -0.681  -0.668
 -0.651  -0.605  -0.599  -0.575  -0.559  -0.550  -0.543  -0.535
 -0.520  -0.506  -0.485  -0.474  -0.467  -0.455  -0.453  -0.446
 -0.443  -0.431  -0.423  -0.416  -0.415  -0.408  -0.401  -0.398
 -0.385  -0.376  -0.370  -0.365  -0.363  -0.355  -0.353  -0.351
 -0.349  -0.341  -0.332  -0.329  -0.328  -0.323  -0.323  -0.317
 -0.312  -0.307  -0.304  -0.302  -0.290  -0.286  -0.281  -0.274
 -0.270  -0.262  -0.256  -0.250  -0.240  -0.231  -0.221  -0.187
 -0.176  -0.174  -0.163  -0.159  -0.151  -0.144  -0.141  -0.140
 -0.130

          Ground-State Mulliken Net Atomic Charges

     Atom                 Charge (a.u.)
  ----------------------------------------
      1 O                    -0.209353
      2 C                     0.226982
      3 C                    -0.079639
      4 C                    -0.085610
      5 C                     0.212991
      6 O                    -0.178574
      7 C                    -0.072253
      8 C                    -0.057955
      9 O                    -0.163285
     10 C                     0.211275
     11 C                    -0.079301
     12 C                    -0.079917
     13 C                     0.205321
     14 O                    -0.213639
     15 O                    -0.164071
     16 O                    -0.173809
     17 O                    -0.234489
     18 C                    -0.149702
     19 C                     0.025782
     20 C                    -0.144320
     21 C                    -0.143964
     22 C                     0.026034
     23 O                    -0.184827
     24 H                     0.081015
     25 H                     0.084659
     26 H                     0.089172
     27 H                     0.077609
     28 H                     0.071963
     29 H                     0.077589
     30 H                     0.073119
     31 H                     0.082698
     32 O                    -0.211300
     33 C                    -0.126777
     34 C                     0.028631
     35 C                    -0.143486
     36 C                    -0.143783
     37 C                     0.023231
     38 O                    -0.177532
     39 H                     0.089818
     40 H                     0.087761
     41 H                     0.091928
     42 H                     0.103092
     43 H                     0.081405
     44 H                     0.079020
     45 H                     0.081266
     46 H                     0.079782
     47 H                     0.093825
     48 H                     0.093974
     49 H                     0.091351
     50 H                     0.076132
     51 H                     0.076708
     52 H                     0.110637
     53 H                     0.087049
     54 H                     0.099122
     55 H                     0.084177
     56 H                     0.112467
  ----------------------------------------
  Sum of atomic charges =     0.000000

                    Cartesian Multipole Moments
 -----------------------------------------------------------------
    Charge (ESU x 10^10)
                 0.0000
    Dipole Moment (Debye)
         X      -0.9256      Y       1.9146      Z       4.6572
       Tot       5.1198
    Quadrupole Moments (Debye-Ang)
        XX    -161.2875     XY      10.9802     YY    -147.3204
        XZ       5.5270     YZ      -9.0143     ZZ    -167.1433

 Total job time:  134.25s(wall), 5789.95s(cpu)
        *  Thank you very much for using Q-Chem.  Have a nice day.  *
