 Q-Chem 5.0, Q-Chem, Inc., Pleasanton, CA (2017)
 Q-Chem 5.0.1 for Intel X86 EM64T Linux

User input:
--------------------------------------------------------------
$molecule
0  1
O -3.94934 -3.66094 2.70899
C -3.26408 -4.56952 2.26188
C -3.36658 -6.02376 2.66595
C -4.73745 -6.52338 3.15068
C -5.89497 -5.55994 3.00924
O -7.02365 -6.24016 2.65034
C -6.80957 -7.15716 1.57212
C -6.47214 -6.39625 0.29412
O -6.69036 -7.2382 -0.84884
C -5.6555 -8.0489 -1.18197
C -5.94604 -8.90772 -2.38972
C -5.38487 -10.33543 -2.3189
C -4.94261 -10.8043 -0.94731
O -4.53187 -10.08279 -0.04994
O -2.43681 -4.30578 1.21743
O -4.80132 -12.14857 -0.79279
O -4.49704 -7.75207 -0.9195
C -4.34165 -12.75685 0.35687
C -7.44535 -9.20003 -2.64548
C -7.65827 -9.55644 -4.11598
C -7.02097 -10.92581 -4.16798
C -6.66694 -11.11773 -2.68988
O -7.67549 -10.42381 -1.99985
H -5.54028 -8.35185 -3.2651
H -4.55867 -10.54745 -3.03228
H -8.13351 -8.37112 -2.37613
H -8.75533 -9.67099 -4.27146
H -7.261 -8.81865 -4.84587
H -7.79547 -11.66057 -4.48238
H -6.12637 -11.01173 -4.82207
H -6.59535 -12.20479 -2.46873
O -6.00152 -4.54111 3.67536
C -2.25529 -3.05529 0.66505
C -2.832 -7.21607 1.85022
C -2.06799 -8.1399 2.78681
C -3.20789 -8.59171 3.68965
C -4.43802 -8.0391 2.91766
O -3.97151 -8.00779 1.59619
H -2.72914 -5.94468 3.58043
H -4.71087 -6.49496 4.26552
H -1.85665 -2.35405 1.4291
H -2.23798 -6.93032 0.95654
H -1.7258 -8.99926 2.16562
H -1.19421 -7.70481 3.31814
H -3.19143 -9.70366 3.72645
H -3.18175 -8.18147 4.72221
H -5.26839 -8.71441 3.21406
H -3.21769 -2.66943 0.26598
H -1.52659 -3.1281 -0.16812
H -4.33163 -13.85599 0.20789
H -5.01208 -12.51691 1.20982
H -3.30861 -12.41692 0.58421
H -7.18448 -5.54683 0.21321
H -5.45609 -5.94375 0.3122
H -7.83503 -7.53823 1.37626
H -6.36418 -8.13074 1.66866
$end

$opt
CONSTRAINT
tors           1           2           3           4     +28.421
tors           3           4           5           6    +142.105
tors           4           5           6           7     -47.368
tors           5           6           7           8     -66.316
tors           6           7           8           9    -161.053
tors           7           8           9          10     -85.263
tors           8           9          10          11    -180.000
tors           9          10          11          12    -142.105
tors          11          12          13          14     -28.421
ENDCONSTRAINT
$end

$rem
JOBTYPE                   OPT
METHOD                    B3LYP
DFT_D                     d3_op
BASIS                     STO-3G
GEOM_OPT_MAX_CYCLES       100
GEOM_OPT_TOL_GRADIENT     300
GEOM_OPT_TOL_DISPLACEMENT 1200
GEOM_OPT_TOL_ENERGY       100
SYMMETRY                  False
THRESH                    12
SCF_CONVERGENCE           8
MAX_SUB_FILE_NUM          128
MEM_STATIC                400
MEM_TOTAL                 4000
$end
--------------------------------------------------------------

   16   -1510.0450230788      4.01E-09 Convergence criterion met
 Total energy in the final basis set = -1510.04502308
   14   -1510.1249574672      3.23E-09 Convergence criterion met
 Total energy in the final basis set = -1510.12495747
   14   -1510.1709549616      7.60E-09 Convergence criterion met
 Total energy in the final basis set = -1510.17095496
   15   -1510.1999197350      1.84E-09 Convergence criterion met
 Total energy in the final basis set = -1510.19991973
   14   -1510.2156791307      3.90E-09 Convergence criterion met
 Total energy in the final basis set = -1510.21567913
   14   -1510.2250410860      3.56E-09 Convergence criterion met
 Total energy in the final basis set = -1510.22504109
   13   -1510.2314437070      4.82E-09 Convergence criterion met
 Total energy in the final basis set = -1510.23144371
   14   -1510.2357563554      3.05E-09 Convergence criterion met
   11   -1510.2480619910      5.44E-09 Convergence criterion met
 Total energy in the final basis set = -1510.24806199
   11   -1510.2480815807      7.04E-09 Convergence criterion met
 Total energy in the final basis set = -1510.24808158
   11   -1510.2480898477      3.18E-09 Convergence criterion met
 Total energy in the final basis set = -1510.24808985
   11   -1510.2480971445      2.15E-09 Convergence criterion met
 Total energy in the final basis set = -1510.24809714
   10   -1510.2481006209      7.18E-09 Convergence criterion met
 Total energy in the final basis set = -1510.24810062
    9   -1510.2481027292      4.00E-09 Convergence criterion met
 Total energy in the final basis set = -1510.24810273

             Standard Nuclear Orientation (Angstroms)
    I     Atom           X                Y                Z
 ----------------------------------------------------------------
    1      O      -3.3381053316    -1.7664738647    -0.2613955224
    2      C      -3.6729494881    -0.7431569483    -0.8987103137
    3      C      -3.9943613514     0.6878602637    -0.3224864581
    4      C      -3.2044339484     0.9665757633     1.0235912082
    5      C      -3.1308554022    -0.3489238968     1.9413460625
    6      O      -1.9805544427    -0.7299270211     2.7268591997
    7      C      -0.6737046806    -0.6840327161     2.0460289928
    8      C      -0.5475716594    -1.7472972108     0.8894379366
    9      O       0.8849504249    -1.9579689456     0.5734948169
   10      C       1.3153758410    -0.9592576376    -0.3667092592
   11      C       2.8310860225    -1.1833357224    -0.7000659641
   12      C       3.7056324560     0.1247208505    -0.8815921068
   13      C       3.1809444892     1.3833205416    -0.0803655035
   14      O       2.0179118643     1.6772405625     0.2659534798
   15      O      -3.8794504755    -0.7351235823    -2.3133024405
   16      O       4.3013769032     2.2498738324     0.1509335240
   17      O       0.5365987542    -0.1579971635    -0.9261746723
   18      C       3.8588938975     3.4634406264     0.8737492899
   19      C       3.6996136338    -2.0056218185     0.3488739811
   20      C       4.7988400492    -2.7779075306    -0.4755995933
   21      C       5.6842939232    -1.5719613102    -0.9672305993
   22      C       5.0418978923    -0.3636990053    -0.1746924545
   23      O       4.4974680906    -0.9801838301     1.0611263686
   24      H       2.8312770245    -1.7277483628    -1.6640227011
   25      H       3.8387854083     0.3976172401    -1.9444027350
   26      H       3.1033498823    -2.6096748467     1.0592533616
   27      H       5.3694718508    -3.4502043656     0.1852226661
   28      H       4.3748541924    -3.3678833582    -1.3036541759
   29      H       6.7417464209    -1.7009142950    -0.6879265256
   30      H       5.6249592878    -1.4224563111    -2.0574783424
   31      H       5.7326059514     0.4634757847     0.0760591101
   32      O      -4.2076101774    -0.9062224340     2.2546136064
   33      C      -3.5866644148    -2.0736277768    -2.8760026367
   34      C      -3.3064092734     1.7415283498    -1.2823982252
   35      C      -3.6050429092     3.2128771842    -0.7961330014
   36      C      -2.5909807721     3.3543737490     0.3965521514
   37      C      -2.0131750298     1.8846529151     0.4738908497
   38      O      -1.8731026180     1.5209406711    -0.9539129140
   39      H      -5.0870277516     0.8134974809    -0.2140517464
   40      H      -3.8430115273     1.6208519842     1.6477940225
   41      H      -4.2292259697    -2.8566178373    -2.4241841045
   42      H      -3.4904233638     1.5450493304    -2.3554855211
   43      H      -3.3963354057     3.9379049756    -1.5983162454
   44      H      -4.6532307835     3.3321401272    -0.4775032104
   45      H      -1.7814202702     4.0603069519     0.1509124402
   46      H      -3.0686753305     3.6748556344     1.3360624433
   47      H      -1.0382646979     1.8185997633     0.9866959214
   48      H      -2.5251221850    -2.3551532388    -2.7205878977
   49      H      -3.7949530765    -1.9998130726    -3.9591735631
   50      H       4.7612005639     4.0899789269     0.9982630855
   51      H       3.4404956233     3.2145560957     1.8704446469
   52      H       3.0918443821     4.0241099912     0.3012640493
   53      H      -0.9386131586    -2.7243041876     1.2374233909
   54      H      -1.1177065416    -1.4169128759    -0.0032377799
   55      H       0.0585045406    -0.9450613699     2.8383669639
   56      H      -0.4087661651     0.3163613261     1.6566049999
 ----------------------------------------------------------------

    9   -1510.2481033592      4.51E-09 Convergence criterion met
 Total energy in the final basis set = -1510.24810336
 Final energy is   -1510.24810335921
 **  OPTIMIZATION CONVERGED  **

                    Orbital Energies (a.u.)
 --------------------------------------------------------------

 Alpha MOs
 -- Occupied --
-18.939 -18.933 -18.928 -18.918 -18.884 -18.883 -18.880 -18.877
-18.871 -18.862 -10.102 -10.099 -10.095 -10.092 -10.066 -10.065
-10.063 -10.059 -10.057 -10.056 -10.056 -10.054 -10.039 -10.037
-10.035 -10.030 -10.020 -10.018 -10.018 -10.016  -1.016  -1.013
 -1.006  -0.993  -0.969  -0.966  -0.939  -0.937  -0.930  -0.923
 -0.762  -0.758  -0.722  -0.720  -0.711  -0.699  -0.689  -0.663
 -0.661  -0.610  -0.594  -0.583  -0.543  -0.542  -0.536  -0.534
 -0.513  -0.510  -0.481  -0.474  -0.466  -0.456  -0.449  -0.447
 -0.435  -0.432  -0.420  -0.414  -0.413  -0.407  -0.406  -0.395
 -0.383  -0.378  -0.374  -0.372  -0.365  -0.357  -0.353  -0.340
 -0.338  -0.332  -0.328  -0.326  -0.323  -0.318  -0.312  -0.311
 -0.308  -0.306  -0.305  -0.302  -0.296  -0.290  -0.279  -0.274
 -0.268  -0.257  -0.255  -0.245  -0.233  -0.230  -0.223  -0.183
 -0.180  -0.178  -0.162  -0.156  -0.149  -0.144  -0.144  -0.139
 -0.133

          Ground-State Mulliken Net Atomic Charges

     Atom                 Charge (a.u.)
  ----------------------------------------
      1 O                    -0.211794
      2 C                     0.215383
      3 C                    -0.075706
      4 C                    -0.087422
      5 C                     0.211322
      6 O                    -0.173590
      7 C                    -0.051027
      8 C                    -0.055571
      9 O                    -0.175211
     10 C                     0.207454
     11 C                    -0.081435
     12 C                    -0.075141
     13 C                     0.212119
     14 O                    -0.210420
     15 O                    -0.168353
     16 O                    -0.172720
     17 O                    -0.202035
     18 C                    -0.127988
     19 C                     0.021616
     20 C                    -0.141840
     21 C                    -0.146111
     22 C                     0.022151
     23 O                    -0.194505
     24 H                     0.082988
     25 H                     0.086934
     26 H                     0.092821
     27 H                     0.077705
     28 H                     0.072972
     29 H                     0.077841
     30 H                     0.072762
     31 H                     0.091686
     32 O                    -0.202044
     33 C                    -0.127366
     34 C                     0.021097
     35 C                    -0.146074
     36 C                    -0.141594
     37 C                     0.021861
     38 O                    -0.184829
     39 H                     0.089468
     40 H                     0.082948
     41 H                     0.091423
     42 H                     0.091267
     43 H                     0.077799
     44 H                     0.073289
     45 H                     0.078304
     46 H                     0.072599
     47 H                     0.087478
     48 H                     0.090307
     49 H                     0.091540
     50 H                     0.090050
     51 H                     0.089120
     52 H                     0.089189
     53 H                     0.093237
     54 H                     0.099202
     55 H                     0.089757
     56 H                     0.087083
  ----------------------------------------
  Sum of atomic charges =     0.000000

                    Cartesian Multipole Moments
 -----------------------------------------------------------------
    Charge (ESU x 10^10)
                 0.0000
    Dipole Moment (Debye)
         X       1.8114      Y       1.5527      Z      -2.7283
       Tot       3.6243
    Quadrupole Moments (Debye-Ang)
        XX    -154.6613     XY      -6.6009     YY    -149.9001
        XZ       5.2041     YZ      11.2891     ZZ    -161.6033

 Total job time:  96.67s(wall), 4571.57s(cpu)
        *  Thank you very much for using Q-Chem.  Have a nice day.  *
