 Q-Chem 5.0, Q-Chem, Inc., Pleasanton, CA (2017)
 Q-Chem 5.0.1 for Intel X86 EM64T Linux

User input:
--------------------------------------------------------------
$molecule
0  1
O 4.6785991923 -1.9986147116 -0.0471804282
C 4.7415755044 -0.761941692 0.1302197586
C 4.0126708758 0.3390310626 -0.7249242256
C 2.4763611233 0.0421564808 -0.9885988892
C 1.9254523085 -0.9693059028 0.092992472
O 0.7090938635 -1.7247915126 -0.1143526707
C 0.3611304882 -2.031279319 -1.5154656305
C -0.8174010263 -1.1112592021 -2.0492799961
O -1.6671939446 -0.7264304558 -0.8966773441
C -1.8253645385 0.6769700179 -0.6920446346
C -3.2910041222 1.0129425314 -0.2268558166
C -4.3405279706 -0.1625961755 -0.2970073773
C -3.703435543 -1.5851397444 -0.0458423095
O -4.0143177224 -2.6475647345 -0.6297908792
O 5.5514258192 -0.1388435566 1.1309211127
O -2.8793151293 -1.5111234212 1.1264802725
O -0.9682995516 1.5402536146 -0.9891919081
C -2.0860069358 -2.7519220714 1.2856057694
C -3.5531584305 1.6011438178 1.2353191636
C -4.7561377937 2.6128407898 1.0813383369
C -5.9294035214 1.6111885488 0.7581860793
C -5.220690013 0.2119128174 0.976784572
O -4.1779585339 0.4956421797 1.9923159959
H -3.5941394701 1.7951544677 -0.9494922566
H -4.9111383823 -0.1761985505 -1.2412946024
H -2.657740195 1.9860339265 1.7607579291
H -4.9316988215 3.1410960612 2.0324676615
H -4.591665236 3.3565975704 0.2855994622
H -6.7718409813 1.7313630354 1.4571823259
H -6.3073680058 1.7216681689 -0.2711318161
H -5.8865062732 -0.6017921028 1.3243892246
O 2.4150581735 -1.0435816703 1.2425143336
C 6.220246036 -1.176127446 1.9489565146
C 3.9477045915 1.7967910545 -0.0929121669
C 3.8341001472 2.8125197112 -1.2934328446
C 2.3785531138 2.4921369746 -1.7979099707
C 1.8711466234 1.4790951492 -0.6927818645
O 2.6044501551 1.8749257823 0.5289091348
H 4.5438030031 0.378160482 -1.6947598637
H 2.2911594979 -0.2904328726 -2.0225716456
H 6.8715720197 -1.8279462579 1.3312328621
H 4.739984406 2.0025459336 0.6514829313
H 3.9141765926 3.8490058125 -0.9282283373
H 4.604820001 2.6460768577 -2.0626863507
H 1.7421932264 3.3908314982 -1.8091674543
H 2.3684103329 2.0436230905 -2.8044503789
H 0.7661959641 1.4875105236 -0.5614819899
H 5.4805009088 -1.8134076476 2.4749868469
H 6.8345591487 -0.6315266023 2.6892902224
H -1.0398471263 -2.5522746723 0.9633812863
H -2.5246339343 -3.567043457 0.6758876597
H -2.0979659205 -3.0286556232 2.3567289388
H -0.412518422 -0.2016727704 -2.5429857454
H -1.4520031458 -1.6779357497 -2.7635394593
H 0.0013663696 -3.0818693204 -1.4995317813
H 1.2264974917 -1.977345647 -2.2058132297
$end

$rem
JOBTYPE                   OPT
METHOD                    B3LYP
DFT_D                     d3_op
BASIS                     STO-3G
GEOM_OPT_MAX_CYCLES       100
GEOM_OPT_TOL_GRADIENT     300
GEOM_OPT_TOL_DISPLACEMENT 1200
GEOM_OPT_TOL_ENERGY       100
SYMMETRY                  False
THRESH                    12
SCF_CONVERGENCE           8
MAX_SUB_FILE_NUM          128
MEM_STATIC                400
MEM_TOTAL                 4000
$end
--------------------------------------------------------------

   16   -1510.2535170145      5.75E-09 Convergence criterion met
 Total energy in the final basis set = -1510.25351701
   14   -1510.2556214416      8.77E-09 Convergence criterion met
 Total energy in the final basis set = -1510.25562144
   13   -1510.2595383173      9.93E-09 Convergence criterion met
 Total energy in the final basis set = -1510.25953832
   14   -1510.2651797749      5.25E-09 Convergence criterion met
 Total energy in the final basis set = -1510.26517977
   13   -1510.2680725385      9.42E-09 Convergence criterion met
 Total energy in the final basis set = -1510.26807254
   13   -1510.2696501688      7.55E-09 Convergence criterion met
 Total energy in the final basis set = -1510.26965017
   13   -1510.2707416873      4.41E-09 Convergence criterion met
 Total energy in the final basis set = -1510.27074169
   13   -1510.2730854348      5.40E-09 Convergence criterion met
   10   -1510.2821230651      5.53E-09 Convergence criterion met
 Total energy in the final basis set = -1510.28212307
    9   -1510.2821246050      8.01E-09 Convergence criterion met
 Total energy in the final basis set = -1510.28212461
   10   -1510.2821277709      2.65E-09 Convergence criterion met
 Total energy in the final basis set = -1510.28212777
    9   -1510.2821305968      8.47E-09 Convergence criterion met
 Total energy in the final basis set = -1510.28213060
    9   -1510.2821326159      8.20E-09 Convergence criterion met
 Total energy in the final basis set = -1510.28213262
    9   -1510.2821346685      4.68E-09 Convergence criterion met
 Total energy in the final basis set = -1510.28213467

             Standard Nuclear Orientation (Angstroms)
    I     Atom           X                Y                Z
 ----------------------------------------------------------------
    1      O       5.1026277152    -2.0105908701    -0.0771564646
    2      C       4.7130286050    -0.8804585900     0.2923264231
    3      C       4.1612379207     0.2576263737    -0.6494797996
    4      C       2.6243008410     0.0975400710    -1.0158600722
    5      C       1.9566220178    -1.1247116342    -0.2939771897
    6      O       0.7395258754    -1.7027686190    -0.8126112056
    7      C       0.3456556062    -1.3946219158    -2.1992861844
    8      C      -0.4303917811    -0.0385782826    -2.4082191388
    9      O      -1.7985746415    -0.0561364738    -1.8436351121
   10      C      -1.8927260890     0.7239200968    -0.6411388985
   11      C      -3.4158838427     0.9703836902    -0.3483311290
   12      C      -4.2941409072    -0.3363519039    -0.1722686374
   13      C      -3.4471312636    -1.6514309798    -0.1389808363
   14      O      -3.7005230198    -2.7329712800    -0.7147147376
   15      O       4.7986344157    -0.3964725886     1.6354082571
   16      O      -2.3289714613    -1.4168321244     0.7141410276
   17      O      -0.9207128090     1.2307900831    -0.0384291204
   18      C      -1.4702097486    -2.6240802101     0.8179260459
   19      C      -3.6509748512     1.6970503191     1.0410480060
   20      C      -5.0765454066     2.3725490285     0.9961194124
   21      C      -6.0090032784     1.1082797742     1.1023186044
   22      C      -4.9424620760    -0.0496738256     1.2532430469
   23      O      -3.8342725351     0.5843501987     2.0002448534
   24      H      -3.8061070538     1.5803871360    -1.1844867700
   25      H      -5.0573803615    -0.4318403938    -0.9639795648
   26      H      -2.8114751781     2.3469848416     1.3559868697
   27      H      -5.2101587964     3.0435213352     1.8595916606
   28      H      -5.2395121399     2.9489825175     0.0713427871
   29      H      -6.6552975904     1.1553715331     1.9929899751
   30      H      -6.6438258799     0.9715552523     0.2121323800
   31      H      -5.3013790125    -0.9539005475     1.7821915674
   32      O       2.3693689816    -1.6138074753     0.7809684756
   33      C       5.2306313670    -1.4920951198     2.5312102076
   34      C       4.1574730320     1.6895050797     0.0296547012
   35      C       3.9700766287     2.7823389886    -1.0966711420
   36      C       2.4398871214     2.6233974635    -1.4251179016
   37      C       2.0319082977     1.4643727344    -0.4315457572
   38      O       2.8678171809     1.7153177932     0.7583973020
   39      H       4.7700400134     0.2447236799    -1.5714754185
   40      H       2.4905531039     0.0334641364    -2.1075733071
   41      H       6.2014372007    -1.9240672787     2.2126616847
   42      H       4.9996798840     1.8647465176     0.7252656990
   43      H       4.1955861330     3.7849726805    -0.7001650675
   44      H       4.6155461872     2.5951331698    -1.9697463412
   45      H       1.8778387702     3.5414670315    -1.1904404959
   46      H       2.2563758071     2.3590666720    -2.4789827026
   47      H       0.9500644732     1.4177904182    -0.1632956519
   48      H       4.4735856960    -2.3023167428     2.5606836529
   49      H       5.3327935810    -1.0431037053     3.5361447688
   50      H      -0.5192677789    -2.4171941503     0.2732450435
   51      H      -1.9940514411    -3.4918393290     0.3715045477
   52      H      -1.2701469186    -2.8034420386     1.8908423377
   53      H       0.1440175054     0.8120717135    -1.9963635996
   54      H      -0.5521460334     0.1015339895    -3.5036821315
   55      H      -0.3320516778    -2.2270708846    -2.4839154100
   56      H       1.2173748618    -1.4112258710    -2.8876398908
 ----------------------------------------------------------------

    9   -1510.2821335573      3.13E-09 Convergence criterion met
 Total energy in the final basis set = -1510.28213356
 Final energy is   -1510.28213355735
 **  OPTIMIZATION CONVERGED  **

                    Orbital Energies (a.u.)
 --------------------------------------------------------------

 Alpha MOs
 -- Occupied --
-18.950 -18.945 -18.924 -18.921 -18.893 -18.891 -18.888 -18.884
-18.867 -18.855 -10.116 -10.112 -10.093 -10.093 -10.089 -10.087
-10.061 -10.059 -10.055 -10.051 -10.048 -10.042 -10.041 -10.037
-10.033 -10.029 -10.021 -10.020 -10.019 -10.018  -1.025  -1.017
 -1.002  -0.997  -0.970  -0.966  -0.953  -0.946  -0.927  -0.922
 -0.766  -0.761  -0.733  -0.721  -0.719  -0.705  -0.704  -0.649
 -0.644  -0.625  -0.602  -0.591  -0.549  -0.545  -0.539  -0.535
 -0.513  -0.511  -0.489  -0.488  -0.468  -0.463  -0.454  -0.442
 -0.434  -0.433  -0.427  -0.421  -0.408  -0.407  -0.403  -0.400
 -0.395  -0.393  -0.383  -0.363  -0.362  -0.361  -0.357  -0.353
 -0.339  -0.338  -0.331  -0.330  -0.327  -0.320  -0.319  -0.312
 -0.311  -0.307  -0.303  -0.301  -0.299  -0.290  -0.279  -0.277
 -0.273  -0.260  -0.249  -0.241  -0.237  -0.234  -0.228  -0.200
 -0.176  -0.170  -0.165  -0.162  -0.156  -0.148  -0.143  -0.142
 -0.136

          Ground-State Mulliken Net Atomic Charges

     Atom                 Charge (a.u.)
  ----------------------------------------
      1 O                    -0.224261
      2 C                     0.212878
      3 C                    -0.079534
      4 C                    -0.086211
      5 C                     0.218503
      6 O                    -0.170261
      7 C                    -0.046656
      8 C                    -0.055933
      9 O                    -0.173887
     10 C                     0.227934
     11 C                    -0.076326
     12 C                    -0.078235
     13 C                     0.209634
     14 O                    -0.218364
     15 O                    -0.166057
     16 O                    -0.170377
     17 O                    -0.212061
     18 C                    -0.154164
     19 C                     0.025261
     20 C                    -0.143608
     21 C                    -0.144316
     22 C                     0.026364
     23 O                    -0.183698
     24 H                     0.083801
     25 H                     0.084778
     26 H                     0.090928
     27 H                     0.078757
     28 H                     0.072130
     29 H                     0.078589
     30 H                     0.073550
     31 H                     0.083988
     32 O                    -0.187181
     33 C                    -0.126629
     34 C                     0.026210
     35 C                    -0.144903
     36 C                    -0.146091
     37 C                     0.006722
     38 O                    -0.184374
     39 H                     0.080508
     40 H                     0.074147
     41 H                     0.086054
     42 H                     0.089688
     43 H                     0.077631
     44 H                     0.071264
     45 H                     0.077679
     46 H                     0.065944
     47 H                     0.109217
     48 H                     0.094149
     49 H                     0.088475
     50 H                     0.111337
     51 H                     0.089871
     52 H                     0.083087
     53 H                     0.096068
     54 H                     0.089401
     55 H                     0.101509
     56 H                     0.087072
  ----------------------------------------
  Sum of atomic charges =    -0.000000

                    Cartesian Multipole Moments
 -----------------------------------------------------------------
    Charge (ESU x 10^10)
                -0.0000
    Dipole Moment (Debye)
         X      -1.0150      Y       2.8015      Z      -3.8754
       Tot       4.8885
    Quadrupole Moments (Debye-Ang)
        XX    -151.6493     XY      -2.1371     YY    -164.5484
        XZ      -2.9411     YZ      -6.0744     ZZ    -153.9883

 Total job time:  126.19s(wall), 5118.69s(cpu)
        *  Thank you very much for using Q-Chem.  Have a nice day.  *
