 Q-Chem 5.0, Q-Chem, Inc., Pleasanton, CA (2017)
 Q-Chem 5.0.1 for Intel X86 EM64T Linux

User input:
--------------------------------------------------------------
$molecule
0  1
O -3.94934 -3.66094 2.70899
C -3.26408 -4.56952 2.26188
C -3.36658 -6.02376 2.66595
C -4.77372 -6.64113 2.71769
C -5.90468 -5.78727 2.1886
O -7.098 -6.2511 2.66429
C -6.98332 -6.90206 3.93408
C -7.07161 -8.41459 3.75923
O -7.86446 -8.72819 2.6034
C -7.25077 -9.49071 1.66474
C -8.17729 -10.49917 1.02816
C -9.54977 -10.63401 1.70372
C -9.9264 -9.52244 2.6625
O -10.5314 -9.66865 3.71471
O -2.41941 -4.25707 1.23915
O -10.09106 -8.29038 2.07019
O -6.11749 -9.91308 1.79794
C -10.60503 -7.14916 2.66037
C -8.59817 -10.1434 -0.41157
C -8.99587 -11.41841 -1.15512
C -10.29328 -11.765 -0.44825
C -10.45028 -10.53411 0.45411
O -9.83892 -9.49756 -0.27785
H -7.65535 -11.48605 0.99908
H -9.66817 -11.59745 2.24726
H -7.81441 -9.59099 -0.97458
H -9.23018 -11.11762 -2.20169
H -8.23544 -12.22853 -1.17292
H -11.10418 -11.81255 -1.20838
H -10.27304 -12.70136 0.15051
H -11.51788 -10.37603 0.72409
O -5.84824 -5.13434 1.15701
C -2.2506 -2.99101 0.71779
C -2.56122 -6.90193 1.71348
C -2.30705 -8.27486 2.32215
C -3.65554 -8.89215 2.11188
C -4.45371 -7.68503 1.57804
O -3.5075 -7.10123 0.71743
H -2.91751 -6.02708 3.68613
H -4.74886 -7.2041 3.6642
H -1.88194 -2.29921 1.50503
H -1.58947 -6.46311 1.39962
H -1.55219 -8.85362 1.74436
H -1.98768 -8.1843 3.38341
H -3.57201 -9.60781 1.26141
H -4.03588 -9.43617 2.99947
H -5.3527 -7.96036 1.00878
H -3.21182 -2.61537 0.30636
H -1.5034 -3.03177 -0.10102
H -9.8554 -6.33542 2.59059
H -10.861 -7.29596 3.73083
H -11.51765 -6.83681 2.11271
H -6.06318 -8.85238 3.75779
H -7.54056 -8.85624 4.66502
H -7.96449 -6.6586 4.39586
H -6.33713 -6.44244 4.71897
$end

$opt
CONSTRAINT
tors           1           2           3           4     +47.368
tors           3           4           5           6    -161.053
tors           4           5           6           7     +28.421
tors           5           6           7           8    -104.211
tors           6           7           8           9     -28.421
tors           7           8           9          10    +123.158
tors           8           9          10          11    +142.105
tors           9          10          11          12      -9.474
tors          11          12          13          14    -142.105
ENDCONSTRAINT
$end

$rem
JOBTYPE                   OPT
METHOD                    B3LYP
DFT_D                     d3_op
BASIS                     STO-3G
GEOM_OPT_MAX_CYCLES       100
GEOM_OPT_TOL_GRADIENT     300
GEOM_OPT_TOL_DISPLACEMENT 1200
GEOM_OPT_TOL_ENERGY       100
SYMMETRY                  False
THRESH                    12
SCF_CONVERGENCE           8
MAX_SUB_FILE_NUM          128
MEM_STATIC                400
MEM_TOTAL                 4000
$end
--------------------------------------------------------------

   16   -1510.0486537840      2.90E-09 Convergence criterion met
 Total energy in the final basis set = -1510.04865378
   14   -1510.1310617898      3.08E-09 Convergence criterion met
 Total energy in the final basis set = -1510.13106179
   14   -1510.1812687166      3.29E-09 Convergence criterion met
 Total energy in the final basis set = -1510.18126872
   14   -1510.2102827475      2.09E-09 Convergence criterion met
 Total energy in the final basis set = -1510.21028275
   14   -1510.2264248431      5.13E-09 Convergence criterion met
 Total energy in the final basis set = -1510.22642484
   13   -1510.2356965534      7.92E-09 Convergence criterion met
 Total energy in the final basis set = -1510.23569655
   13   -1510.2412847566      5.31E-09 Convergence criterion met
 Total energy in the final basis set = -1510.24128476
   13   -1510.2451939879      4.41E-09 Convergence criterion met
   11   -1510.2535839441      6.44E-09 Convergence criterion met
 Total energy in the final basis set = -1510.25358394
   11   -1510.2536137560      5.53E-09 Convergence criterion met
 Total energy in the final basis set = -1510.25361376
   11   -1510.2536149575      2.56E-09 Convergence criterion met
 Total energy in the final basis set = -1510.25361496
    9   -1510.2536180954      6.11E-09 Convergence criterion met
 Total energy in the final basis set = -1510.25361810
    9   -1510.2536262536      8.32E-09 Convergence criterion met
 Total energy in the final basis set = -1510.25362625
    9   -1510.2536273044      5.52E-09 Convergence criterion met
 Total energy in the final basis set = -1510.25362730

             Standard Nuclear Orientation (Angstroms)
    I     Atom           X                Y                Z
 ----------------------------------------------------------------
    1      O       4.6785991923    -1.9986147116    -0.0471804282
    2      C       4.7415755044    -0.7619416920     0.1302197586
    3      C       4.0126708758     0.3390310626    -0.7249242256
    4      C       2.4763611233     0.0421564808    -0.9885988892
    5      C       1.9254523085    -0.9693059028     0.0929924720
    6      O       0.7090938635    -1.7247915126    -0.1143526707
    7      C       0.3611304882    -2.0312793190    -1.5154656305
    8      C      -0.8174010263    -1.1112592021    -2.0492799961
    9      O      -1.6671939446    -0.7264304558    -0.8966773441
   10      C      -1.8253645385     0.6769700179    -0.6920446346
   11      C      -3.2910041222     1.0129425314    -0.2268558166
   12      C      -4.3405279706    -0.1625961755    -0.2970073773
   13      C      -3.7034355430    -1.5851397444    -0.0458423095
   14      O      -4.0143177224    -2.6475647345    -0.6297908792
   15      O       5.5514258192    -0.1388435566     1.1309211127
   16      O      -2.8793151293    -1.5111234212     1.1264802725
   17      O      -0.9682995516     1.5402536146    -0.9891919081
   18      C      -2.0860069358    -2.7519220714     1.2856057694
   19      C      -3.5531584305     1.6011438178     1.2353191636
   20      C      -4.7561377937     2.6128407898     1.0813383369
   21      C      -5.9294035214     1.6111885488     0.7581860793
   22      C      -5.2206900130     0.2119128174     0.9767845720
   23      O      -4.1779585339     0.4956421797     1.9923159959
   24      H      -3.5941394701     1.7951544677    -0.9494922566
   25      H      -4.9111383823    -0.1761985505    -1.2412946024
   26      H      -2.6577401950     1.9860339265     1.7607579291
   27      H      -4.9316988215     3.1410960612     2.0324676615
   28      H      -4.5916652360     3.3565975704     0.2855994622
   29      H      -6.7718409813     1.7313630354     1.4571823259
   30      H      -6.3073680058     1.7216681689    -0.2711318161
   31      H      -5.8865062732    -0.6017921028     1.3243892246
   32      O       2.4150581735    -1.0435816703     1.2425143336
   33      C       6.2202460360    -1.1761274460     1.9489565146
   34      C       3.9477045915     1.7967910545    -0.0929121669
   35      C       3.8341001472     2.8125197112    -1.2934328446
   36      C       2.3785531138     2.4921369746    -1.7979099707
   37      C       1.8711466234     1.4790951492    -0.6927818645
   38      O       2.6044501551     1.8749257823     0.5289091348
   39      H       4.5438030031     0.3781604820    -1.6947598637
   40      H       2.2911594979    -0.2904328726    -2.0225716456
   41      H       6.8715720197    -1.8279462579     1.3312328621
   42      H       4.7399844060     2.0025459336     0.6514829313
   43      H       3.9141765926     3.8490058125    -0.9282283373
   44      H       4.6048200010     2.6460768577    -2.0626863507
   45      H       1.7421932264     3.3908314982    -1.8091674543
   46      H       2.3684103329     2.0436230905    -2.8044503789
   47      H       0.7661959641     1.4875105236    -0.5614819899
   48      H       5.4805009088    -1.8134076476     2.4749868469
   49      H       6.8345591487    -0.6315266023     2.6892902224
   50      H      -1.0398471263    -2.5522746723     0.9633812863
   51      H      -2.5246339343    -3.5670434570     0.6758876597
   52      H      -2.0979659205    -3.0286556232     2.3567289388
   53      H      -0.4125184220    -0.2016727704    -2.5429857454
   54      H      -1.4520031458    -1.6779357497    -2.7635394593
   55      H       0.0013663696    -3.0818693204    -1.4995317813
   56      H       1.2264974917    -1.9773456470    -2.2058132297
 ----------------------------------------------------------------

    9   -1510.2536278913      2.47E-09 Convergence criterion met
 Total energy in the final basis set = -1510.25362789
 Final energy is   -1510.25362789129
 **  OPTIMIZATION CONVERGED  **

                    Orbital Energies (a.u.)
 --------------------------------------------------------------

 Alpha MOs
 -- Occupied --
-18.951 -18.936 -18.927 -18.911 -18.903 -18.891 -18.879 -18.878
-18.860 -18.855 -10.126 -10.100 -10.092 -10.092 -10.089 -10.086
-10.064 -10.061 -10.057 -10.050 -10.044 -10.042 -10.037 -10.036
-10.036 -10.031 -10.022 -10.021 -10.014 -10.013  -1.032  -1.008
 -1.000  -0.993  -0.971  -0.963  -0.958  -0.937  -0.926  -0.918
 -0.767  -0.758  -0.731  -0.717  -0.716  -0.703  -0.699  -0.653
 -0.643  -0.619  -0.599  -0.591  -0.551  -0.541  -0.538  -0.532
 -0.518  -0.509  -0.492  -0.476  -0.471  -0.459  -0.455  -0.447
 -0.434  -0.429  -0.426  -0.415  -0.408  -0.406  -0.404  -0.400
 -0.394  -0.389  -0.382  -0.367  -0.365  -0.357  -0.354  -0.342
 -0.339  -0.339  -0.333  -0.331  -0.327  -0.320  -0.319  -0.311
 -0.308  -0.303  -0.301  -0.300  -0.296  -0.289  -0.284  -0.278
 -0.272  -0.252  -0.243  -0.236  -0.235  -0.230  -0.224  -0.193
 -0.175  -0.174  -0.166  -0.154  -0.150  -0.144  -0.143  -0.138
 -0.135

          Ground-State Mulliken Net Atomic Charges

     Atom                 Charge (a.u.)
  ----------------------------------------
      1 O                    -0.223380
      2 C                     0.213800
      3 C                    -0.078998
      4 C                    -0.083137
      5 C                     0.213150
      6 O                    -0.168721
      7 C                    -0.047020
      8 C                    -0.048678
      9 O                    -0.167143
     10 C                     0.228379
     11 C                    -0.078079
     12 C                    -0.078938
     13 C                     0.217764
     14 O                    -0.230340
     15 O                    -0.169181
     16 O                    -0.168490
     17 O                    -0.208618
     18 C                    -0.138984
     19 C                     0.028699
     20 C                    -0.141287
     21 C                    -0.145701
     22 C                     0.025387
     23 O                    -0.179545
     24 H                     0.084739
     25 H                     0.082596
     26 H                     0.089498
     27 H                     0.079344
     28 H                     0.073335
     29 H                     0.078985
     30 H                     0.072843
     31 H                     0.084520
     32 O                    -0.190480
     33 C                    -0.127048
     34 C                     0.023766
     35 C                    -0.143374
     36 C                    -0.145281
     37 C                     0.007005
     38 O                    -0.189919
     39 H                     0.079394
     40 H                     0.072850
     41 H                     0.086746
     42 H                     0.092984
     43 H                     0.076567
     44 H                     0.070360
     45 H                     0.077942
     46 H                     0.066944
     47 H                     0.105892
     48 H                     0.094047
     49 H                     0.089080
     50 H                     0.095745
     51 H                     0.090429
     52 H                     0.083739
     53 H                     0.089743
     54 H                     0.094689
     55 H                     0.093465
     56 H                     0.087914
  ----------------------------------------
  Sum of atomic charges =     0.000000

                    Cartesian Multipole Moments
 -----------------------------------------------------------------
    Charge (ESU x 10^10)
                 0.0000
    Dipole Moment (Debye)
         X      -0.5418      Y       1.6548      Z      -4.1396
       Tot       4.4909
    Quadrupole Moments (Debye-Ang)
        XX    -147.8876     XY      -7.1631     YY    -163.6151
        XZ      -0.6955     YZ      -0.7031     ZZ    -155.8367

 Total job time:  72.43s(wall), 3447.27s(cpu)
        *  Thank you very much for using Q-Chem.  Have a nice day.  *
