 Q-Chem 5.0, Q-Chem, Inc., Pleasanton, CA (2017)
 Q-Chem 5.0.1 for Intel X86 EM64T Linux

User input:
--------------------------------------------------------------
$molecule
0  1
O -3.94934 -3.66094 2.70899
C -3.26408 -4.56952 2.26188
C -3.36658 -6.02376 2.66595
C -4.66266 -6.76517 2.29943
C -5.63801 -6.02118 1.41441
O -5.50887 -4.67566 1.61014
C -6.56567 -4.11722 2.39791
C -7.12055 -5.16823 3.35374
O -8.53184 -5.32777 3.13994
C -8.88427 -5.85086 1.93939
C -10.2856 -6.41376 1.93141
C -10.49391 -7.64453 2.82589
C -9.40624 -7.91098 3.847
O -8.37384 -8.5313 3.63741
O -2.32338 -4.25017 1.33132
O -9.63182 -7.49361 5.1246
O -8.26253 -5.7291 0.90116
C -8.75004 -7.66367 6.17163
C -11.35963 -5.45064 2.4678
C -12.71872 -5.82333 1.8798
C -12.98326 -7.13259 2.59473
C -11.7816 -7.17227 3.54861
O -11.51216 -5.81663 3.8149
H -10.52378 -6.65951 0.87048
H -10.6811 -8.59338 2.27686
H -11.12849 -4.38091 2.27095
H -13.44708 -5.06369 2.24444
H -12.76654 -5.87169 0.77062
H -13.9369 -7.03521 3.15962
H -13.01433 -8.03297 1.94373
H -12.02351 -7.80443 4.43151
O -5.92339 -6.4382 0.3
C -2.10366 -2.97775 0.84645
C -2.30889 -6.91563 1.97812
C -2.09464 -8.19963 2.78043
C -3.35415 -8.95388 2.43341
C -4.03547 -7.94613 1.50238
O -2.95875 -7.35921 0.81688
H -3.18799 -6.02844 3.76418
H -5.14201 -7.26082 3.16035
H -1.81037 -2.29775 1.67457
H -1.32766 -6.41355 1.83423
H -1.22516 -8.74863 2.35342
H -1.92768 -8.02399 3.86507
H -3.07113 -9.85155 1.83843
H -3.9797 -9.26546 3.2974
H -4.77215 -8.49385 0.87418
H -3.02135 -2.59392 0.35146
H -1.28226 -3.00928 0.10167
H -9.18962 -7.22683 7.09153
H -7.79205 -7.14553 5.95182
H -8.56241 -8.74513 6.34295
H -6.66238 -6.10076 3.65276
H -7.0717 -4.67746 4.35016
H -7.32913 -3.62262 1.76049
H -6.17661 -3.26834 2.99757
$end

$opt
CONSTRAINT
tors           1           2           3           4     +66.316
tors           3           4           5           6     -28.421
tors           4           5           6           7    -104.211
tors           5           6           7           8     +28.421
tors           6           7           8           9    -123.158
tors           7           8           9          10     +66.316
tors           8           9          10          11    +161.053
tors           9          10          11          12     -66.316
tors          11          12          13          14     -85.263
ENDCONSTRAINT
$end

$rem
JOBTYPE                   OPT
METHOD                    B3LYP
DFT_D                     d3_op
BASIS                     STO-3G
GEOM_OPT_MAX_CYCLES       100
GEOM_OPT_TOL_GRADIENT     300
GEOM_OPT_TOL_DISPLACEMENT 1200
GEOM_OPT_TOL_ENERGY       100
SYMMETRY                  False
THRESH                    12
SCF_CONVERGENCE           8
MAX_SUB_FILE_NUM          128
MEM_STATIC                400
MEM_TOTAL                 4000
$end
--------------------------------------------------------------

   15   -1510.0614206602      6.90E-09 Convergence criterion met
 Total energy in the final basis set = -1510.06142066
   15   -1510.1423396898      1.83E-09 Convergence criterion met
 Total energy in the final basis set = -1510.14233969
   14   -1510.1920611016      6.46E-09 Convergence criterion met
 Total energy in the final basis set = -1510.19206110
   14   -1510.2181179203      9.49E-09 Convergence criterion met
 Total energy in the final basis set = -1510.21811792
   14   -1510.2317628514      6.83E-09 Convergence criterion met
 Total energy in the final basis set = -1510.23176285
   13   -1510.2384059896      7.82E-09 Convergence criterion met
 Total energy in the final basis set = -1510.23840599
   13   -1510.2416198065      3.70E-09 Convergence criterion met
 Total energy in the final basis set = -1510.24161981
   13   -1510.2432202669      5.91E-09 Convergence criterion met
   11   -1510.2468047910      7.57E-09 Convergence criterion met
 Total energy in the final basis set = -1510.24680479
   11   -1510.2468422091      3.39E-09 Convergence criterion met
 Total energy in the final basis set = -1510.24684221
   11   -1510.2468772422      4.01E-09 Convergence criterion met
 Total energy in the final basis set = -1510.24687724
   11   -1510.2468898229      3.33E-09 Convergence criterion met
 Total energy in the final basis set = -1510.24688982
   10   -1510.2468956110      8.84E-09 Convergence criterion met
 Total energy in the final basis set = -1510.24689561
    9   -1510.2468966967      9.69E-09 Convergence criterion met
 Total energy in the final basis set = -1510.24689670

             Standard Nuclear Orientation (Angstroms)
    I     Atom           X                Y                Z
 ----------------------------------------------------------------
    1      O      -2.8549944497    -0.8820867989     2.1713708206
    2      C      -3.6437350685    -0.5606092177     1.2536201277
    3      C      -3.6663240202     0.8094092661     0.4804510430
    4      C      -2.4073481153     1.1125513777    -0.4275126192
    5      C      -1.7300699588    -0.1700920662    -1.0805021012
    6      O      -1.8978347379    -1.3786725154    -0.3014949992
    7      C      -0.7435187786    -1.8737031568     0.4727785368
    8      C       0.3328644347    -0.8198226818     0.9883593651
    9      O       1.7357098146    -1.0406281791     0.5722376813
   10      C       1.9529011497    -0.8888794646    -0.8348718250
   11      C       3.4818566001    -0.6630674078    -1.0752076808
   12      C       4.0110484635     0.7139047325    -0.4765546650
   13      C       2.9448228338     1.4409499303     0.4254907338
   14      O       2.0372336596     2.2071950423     0.0308294704
   15      O      -4.7068628816    -1.3939721994     0.7785092358
   16      O       3.1967568614     1.1574099943     1.8044643687
   17      O       1.0595935508    -0.9038377444    -1.7055582327
   18      C       2.2270973541     1.8829753397     2.6566087239
   19      C       4.4411867780    -1.7019140732    -0.3469529393
   20      C       5.8250476308    -1.6729055186    -1.1061117230
   21      C       6.3830056894    -0.2741633349    -0.6473675162
   22      C       5.2558151406     0.1973673302     0.3583434017
   23      O       4.7549802642    -1.0652876320     0.9501305940
   24      H       3.6355993330    -0.6889710773    -2.1684819680
   25      H       4.2972136892     1.4080152067    -1.2871080255
   26      H       4.0031567232    -2.7067906959    -0.1919141467
   27      H       6.4693515839    -2.4965718931    -0.7592804520
   28      H       5.7064135993    -1.7509252707    -2.1985985698
   29      H       7.3486427593    -0.3729276762    -0.1267512347
   30      H       6.5046274015     0.4303286639    -1.4856294492
   31      H       5.5914168460     0.8894818921     1.1539074122
   32      O      -1.2717112333    -0.1791435730    -2.2404918165
   33      C      -4.6639598073    -2.7060165682     1.4613508540
   34      C      -4.8579734544     1.1008343672    -0.5321628770
   35      C      -5.1254808197     2.6549094462    -0.4729208287
   36      C      -3.8078195885     3.1973599402    -1.1441386519
   37      C      -3.1260246798     1.8576664076    -1.6292124402
   38      O      -4.2625405801     0.9335258787    -1.8783229969
   39      H      -3.6861526665     1.5767371436     1.2781856250
   40      H      -1.6454896926     1.7189268756     0.0960603671
   41      H      -4.7135979287    -2.5977189277     2.5641848412
   42      H      -5.7416981273     0.4462266609    -0.4092008350
   43      H      -6.0144479212     2.9123788377    -1.0711458979
   44      H      -5.2688034203     3.0235454268     0.5553251866
   45      H      -4.0263912048     3.8544766024    -2.0004783626
   46      H      -3.1674298968     3.7466706268    -0.4351120790
   47      H      -2.4912895544     1.9393592214    -2.5329318963
   48      H      -3.7414101175    -3.2647182147     1.2022791333
   49      H      -5.5460977849    -3.2674562465     1.1024551582
   50      H       2.4711910723     1.6038574987     3.6979124456
   51      H       1.1816655839     1.5920816197     2.4314663332
   52      H       2.3191048527     2.9818678096     2.5346974464
   53      H       0.0165579120     0.2052147514     0.6946386580
   54      H       0.3716174432    -0.8616957895     2.0946003407
   55      H      -0.2093190955    -2.6566994869    -0.1145567303
   56      H      -1.2047645612    -2.3595200506     1.3590750209
 ----------------------------------------------------------------

    9   -1510.2468976260      4.13E-09 Convergence criterion met
 Total energy in the final basis set = -1510.24689763
 Final energy is   -1510.24689762596
 **  OPTIMIZATION CONVERGED  **

                    Orbital Energies (a.u.)
 --------------------------------------------------------------

 Alpha MOs
 -- Occupied --
-18.937 -18.934 -18.927 -18.903 -18.902 -18.888 -18.882 -18.880
-18.871 -18.857 -10.104 -10.102 -10.100 -10.095 -10.076 -10.072
-10.066 -10.061 -10.059 -10.059 -10.053 -10.053 -10.039 -10.037
-10.034 -10.031 -10.021 -10.020 -10.017 -10.016  -1.017  -1.010
 -1.005  -0.998  -0.970  -0.964  -0.943  -0.936  -0.934  -0.925
 -0.764  -0.758  -0.726  -0.719  -0.711  -0.700  -0.696  -0.663
 -0.656  -0.619  -0.597  -0.586  -0.548  -0.539  -0.537  -0.533
 -0.516  -0.506  -0.482  -0.477  -0.472  -0.461  -0.448  -0.433
 -0.433  -0.430  -0.425  -0.416  -0.408  -0.406  -0.404  -0.402
 -0.391  -0.377  -0.372  -0.369  -0.364  -0.358  -0.354  -0.347
 -0.345  -0.336  -0.332  -0.331  -0.325  -0.325  -0.317  -0.309
 -0.307  -0.306  -0.305  -0.300  -0.295  -0.290  -0.281  -0.278
 -0.271  -0.260  -0.251  -0.247  -0.234  -0.229  -0.224  -0.183
 -0.176  -0.170  -0.160  -0.155  -0.152  -0.146  -0.145  -0.142
 -0.137

          Ground-State Mulliken Net Atomic Charges

     Atom                 Charge (a.u.)
  ----------------------------------------
      1 O                    -0.233429
      2 C                     0.216480
      3 C                    -0.082828
      4 C                    -0.079295
      5 C                     0.227021
      6 O                    -0.197528
      7 C                    -0.043402
      8 C                    -0.051421
      9 O                    -0.172531
     10 C                     0.206534
     11 C                    -0.079731
     12 C                    -0.077668
     13 C                     0.206684
     14 O                    -0.222262
     15 O                    -0.169214
     16 O                    -0.161060
     17 O                    -0.199807
     18 C                    -0.127458
     19 C                     0.026404
     20 C                    -0.142954
     21 C                    -0.145123
     22 C                     0.026336
     23 O                    -0.183659
     24 H                     0.085824
     25 H                     0.085924
     26 H                     0.084160
     27 H                     0.077971
     28 H                     0.074318
     29 H                     0.077728
     30 H                     0.073257
     31 H                     0.087354
     32 O                    -0.161678
     33 C                    -0.126972
     34 C                     0.022647
     35 C                    -0.141852
     36 C                    -0.146111
     37 C                     0.023051
     38 O                    -0.191115
     39 H                     0.079139
     40 H                     0.082469
     41 H                     0.086762
     42 H                     0.091350
     43 H                     0.077236
     44 H                     0.071765
     45 H                     0.078338
     46 H                     0.072826
     47 H                     0.091314
     48 H                     0.088114
     49 H                     0.089548
     50 H                     0.092356
     51 H                     0.086149
     52 H                     0.087300
     53 H                     0.083108
     54 H                     0.096881
     55 H                     0.085299
     56 H                     0.095450
  ----------------------------------------
  Sum of atomic charges =     0.000000

                    Cartesian Multipole Moments
 -----------------------------------------------------------------
    Charge (ESU x 10^10)
                -0.0000
    Dipole Moment (Debye)
         X       1.3092      Y       1.1054      Z       2.1666
       Tot       2.7623
    Quadrupole Moments (Debye-Ang)
        XX    -146.7228     XY      -0.7653     YY    -151.1652
        XZ     -12.8394     YZ       1.4569     ZZ    -166.1899

 Total job time:  72.86s(wall), 3180.62s(cpu)
        *  Thank you very much for using Q-Chem.  Have a nice day.  *
