 Q-Chem 5.0, Q-Chem, Inc., Pleasanton, CA (2017)
 Q-Chem 5.0.1 for Intel X86 EM64T Linux

User input:
--------------------------------------------------------------
$molecule
0  1
O -2.8549944497 -0.8820867989 2.1713708206
C -3.6437350685 -0.5606092177 1.2536201277
C -3.6663240202 0.8094092661 0.480451043
C -2.4073481153 1.1125513777 -0.4275126192
C -1.7300699588 -0.1700920662 -1.0805021012
O -1.8978347379 -1.3786725154 -0.3014949992
C -0.7435187786 -1.8737031568 0.4727785368
C 0.3328644347 -0.8198226818 0.9883593651
O 1.7357098146 -1.0406281791 0.5722376813
C 1.9529011497 -0.8888794646 -0.834871825
C 3.4818566001 -0.6630674078 -1.0752076808
C 4.0110484635 0.7139047325 -0.476554665
C 2.9448228338 1.4409499303 0.4254907338
O 2.0372336596 2.2071950423 0.0308294704
O -4.7068628816 -1.3939721994 0.7785092358
O 3.1967568614 1.1574099943 1.8044643687
O 1.0595935508 -0.9038377444 -1.7055582327
C 2.2270973541 1.8829753397 2.6566087239
C 4.441186778 -1.7019140732 -0.3469529393
C 5.8250476308 -1.6729055186 -1.106111723
C 6.3830056894 -0.2741633349 -0.6473675162
C 5.2558151406 0.1973673302 0.3583434017
O 4.7549802642 -1.065287632 0.950130594
H 3.635599333 -0.6889710773 -2.168481968
H 4.2972136892 1.4080152067 -1.2871080255
H 4.0031567232 -2.7067906959 -0.1919141467
H 6.4693515839 -2.4965718931 -0.759280452
H 5.7064135993 -1.7509252707 -2.1985985698
H 7.3486427593 -0.3729276762 -0.1267512347
H 6.5046274015 0.4303286639 -1.4856294492
H 5.591416846 0.8894818921 1.1539074122
O -1.2717112333 -0.179143573 -2.2404918165
C -4.6639598073 -2.7060165682 1.461350854
C -4.8579734544 1.1008343672 -0.532162877
C -5.1254808197 2.6549094462 -0.4729208287
C -3.8078195885 3.1973599402 -1.1441386519
C -3.1260246798 1.8576664076 -1.6292124402
O -4.2625405801 0.9335258787 -1.8783229969
H -3.6861526665 1.5767371436 1.278185625
H -1.6454896926 1.7189268756 0.0960603671
H -4.7135979287 -2.5977189277 2.5641848412
H -5.7416981273 0.4462266609 -0.409200835
H -6.0144479212 2.9123788377 -1.0711458979
H -5.2688034203 3.0235454268 0.5553251866
H -4.0263912048 3.8544766024 -2.0004783626
H -3.1674298968 3.7466706268 -0.435112079
H -2.4912895544 1.9393592214 -2.5329318963
H -3.7414101175 -3.2647182147 1.2022791333
H -5.5460977849 -3.2674562465 1.1024551582
H 2.4711910723 1.6038574987 3.6979124456
H 1.1816655839 1.5920816197 2.4314663332
H 2.3191048527 2.9818678096 2.5346974464
H 0.016557912 0.2052147514 0.694638658
H 0.3716174432 -0.8616957895 2.0946003407
H -0.2093190955 -2.6566994869 -0.1145567303
H -1.2047645612 -2.3595200506 1.3590750209
$end

$rem
JOBTYPE                   OPT
METHOD                    B3LYP
DFT_D                     d3_op
BASIS                     STO-3G
GEOM_OPT_MAX_CYCLES       100
GEOM_OPT_TOL_GRADIENT     300
GEOM_OPT_TOL_DISPLACEMENT 1200
GEOM_OPT_TOL_ENERGY       100
SYMMETRY                  False
THRESH                    12
SCF_CONVERGENCE           8
MAX_SUB_FILE_NUM          128
MEM_STATIC                400
MEM_TOTAL                 4000
$end
--------------------------------------------------------------

   16   -1510.2465191661      5.44E-09 Convergence criterion met
 Total energy in the final basis set = -1510.24651917
   14   -1510.2497519665      6.41E-09 Convergence criterion met
 Total energy in the final basis set = -1510.24975197
   14   -1510.2529971852      7.31E-09 Convergence criterion met
 Total energy in the final basis set = -1510.25299719
   14   -1510.2562363089      7.30E-09 Convergence criterion met
 Total energy in the final basis set = -1510.25623631
   14   -1510.2593487068      3.19E-09 Convergence criterion met
 Total energy in the final basis set = -1510.25934871
   14   -1510.2615413445      7.82E-09 Convergence criterion met
 Total energy in the final basis set = -1510.26154134
   14   -1510.2640133919      6.60E-09 Convergence criterion met
 Total energy in the final basis set = -1510.26401339
   13   -1510.2662839608      3.01E-09 Convergence criterion met
   13   -1510.2898011902      8.55E-09 Convergence criterion met
 Total energy in the final basis set = -1510.28980119
   11   -1510.2898212001      7.48E-09 Convergence criterion met
 Total energy in the final basis set = -1510.28982120
   13   -1510.2898340536      9.88E-09 Convergence criterion met
 Total energy in the final basis set = -1510.28983405
   12   -1510.2898498587      9.16E-09 Convergence criterion met
 Total energy in the final basis set = -1510.28984986
   10   -1510.2898588025      6.31E-09 Convergence criterion met
 Total energy in the final basis set = -1510.28985880
   11   -1510.2898656710      9.90E-09 Convergence criterion met
 Total energy in the final basis set = -1510.28986567

             Standard Nuclear Orientation (Angstroms)
    I     Atom           X                Y                Z
 ----------------------------------------------------------------
    1      O      -2.1931839190     0.2697277245     2.1488991686
    2      C      -2.9852373602     0.1754268045     1.1830143208
    3      C      -3.1151992183     1.1590555321    -0.0415979922
    4      C      -2.1930142330     0.8263119684    -1.2945330276
    5      C      -1.1529050572    -0.3295257378    -1.1271156856
    6      O      -1.6294806529    -1.2886837595    -0.1794695569
    7      C      -0.5290667646    -2.1524353035     0.3116523746
    8      C       0.1656713165    -1.4826346428     1.5649778688
    9      O       1.4221406126    -0.8031925826     1.1737821805
   10      C       1.1963169144     0.5613831970     0.8007731968
   11      C       2.5288577223     1.1299758252     0.2200428638
   12      C       3.8465638126     0.7362946084     1.0115031815
   13      C       3.5513595235    -0.0500999257     2.3421728505
   14      O       2.9883795981     0.4104684182     3.3594768276
   15      O      -4.0202983000    -0.8123797993     1.1041804636
   16      O       4.0708000141    -1.3818136167     2.2528561182
   17      O       0.0885161470     1.1385272766     0.8443707902
   18      C       3.7541148539    -2.1248195534     3.4924068604
   19      C       2.8038691994     0.4336709615    -1.1893619102
   20      C       3.8865374072     1.2851544376    -1.9586116975
   21      C       5.1925929421     0.8980451468    -1.1686497818
   22      C       4.6153000712    -0.1050010645    -0.0918222188
   23      O       3.5281530392    -0.8009030488    -0.8168027319
   24      H       2.4182311396     2.2238599458     0.1215814854
   25      H       4.4079296216     1.6480108034     1.2869808980
   26      H       1.8734135490     0.1852346634    -1.7447106523
   27      H       3.9444434264     0.9722271489    -3.0134062587
   28      H       3.6699602405     2.3647414293    -1.9223567749
   29      H       5.9198679440     0.3858791073    -1.8184788074
   30      H       5.6848172703     1.7688094476    -0.7065758269
   31      H       5.3391631638    -0.8356067021     0.3163157496
   32      O      -0.0742575530    -0.4431887882    -1.7529520803
   33      C      -3.8971860770    -1.7640465519     2.2294355787
   34      C      -4.5501191632     1.0819774097    -0.7147265445
   35      C      -4.7363257108     2.3259829447    -1.6728981150
   36      C      -3.8695308630     1.8946943364    -2.9127643457
   37      C      -3.2948187997     0.5140801659    -2.4076935208
   38      O      -4.4193522436    -0.0654857293    -1.6449541786
   39      H      -2.8810416168     2.1716429520     0.3331421337
   40      H      -1.6071399314     1.7176111233    -1.5818153405
   41      H      -3.8608725024    -1.2427664688     3.2077168479
   42      H      -5.3785646062     0.9073960865    -0.0026208630
   43      H      -5.7968226516     2.4505662220    -1.9431478084
   44      H      -4.3777456545     3.2589258089    -1.2096047504
   45      H      -4.4934165273     1.7434603764    -3.8083316992
   46      H      -3.0737569461     2.6171990399    -3.1538477190
   47      H      -2.9617439828    -0.1799480145    -3.2039253776
   48      H      -2.9864147497    -2.3889625010     2.1301099956
   49      H      -4.7918372722    -2.4116829890     2.1826956103
   50      H       4.1399363193    -3.1497612704     3.3410148766
   51      H       2.6611172385    -2.1620943679     3.6756435834
   52      H       4.2425722990    -1.6718336092     4.3797373437
   53      H      -0.5618194715    -0.7690734239     2.0257380124
   54      H       0.4581702072    -2.2653327737     2.2927903722
   55      H       0.2193980012    -2.3202478365    -0.4929848173
   56      H      -0.9988496923    -3.1145056132     0.5982193395
 ----------------------------------------------------------------

   10   -1510.2898665679      6.58E-09 Convergence criterion met
 Total energy in the final basis set = -1510.28986657
 Final energy is   -1510.28986656795
 **  OPTIMIZATION CONVERGED  **

                    Orbital Energies (a.u.)
 --------------------------------------------------------------

 Alpha MOs
 -- Occupied --
-18.940 -18.929 -18.928 -18.926 -18.887 -18.880 -18.878 -18.870
-18.863 -18.859 -10.108 -10.097 -10.095 -10.091 -10.072 -10.060
-10.060 -10.060 -10.058 -10.056 -10.050 -10.046 -10.038 -10.034
-10.030 -10.029 -10.019 -10.018 -10.013 -10.012  -1.021  -1.007
 -1.002  -0.999  -0.969  -0.961  -0.944  -0.932  -0.927  -0.925
 -0.761  -0.755  -0.725  -0.717  -0.707  -0.702  -0.692  -0.657
 -0.654  -0.614  -0.594  -0.580  -0.543  -0.537  -0.535  -0.529
 -0.513  -0.507  -0.487  -0.475  -0.466  -0.461  -0.442  -0.432
 -0.431  -0.426  -0.421  -0.412  -0.407  -0.406  -0.404  -0.399
 -0.391  -0.379  -0.368  -0.365  -0.361  -0.356  -0.348  -0.347
 -0.339  -0.337  -0.332  -0.330  -0.321  -0.320  -0.314  -0.310
 -0.305  -0.301  -0.298  -0.295  -0.292  -0.292  -0.283  -0.276
 -0.268  -0.253  -0.246  -0.244  -0.233  -0.231  -0.224  -0.185
 -0.173  -0.168  -0.163  -0.158  -0.152  -0.144  -0.142  -0.138
 -0.134

          Ground-State Mulliken Net Atomic Charges

     Atom                 Charge (a.u.)
  ----------------------------------------
      1 O                    -0.223501
      2 C                     0.224652
      3 C                    -0.076091
      4 C                    -0.076785
      5 C                     0.220080
      6 O                    -0.169648
      7 C                    -0.054143
      8 C                    -0.063719
      9 O                    -0.170627
     10 C                     0.213174
     11 C                    -0.079849
     12 C                    -0.078617
     13 C                     0.213993
     14 O                    -0.222573
     15 O                    -0.164864
     16 O                    -0.167096
     17 O                    -0.214594
     18 C                    -0.126364
     19 C                     0.017017
     20 C                    -0.144247
     21 C                    -0.144580
     22 C                     0.024961
     23 O                    -0.188185
     24 H                     0.083160
     25 H                     0.082088
     26 H                     0.100258
     27 H                     0.076871
     28 H                     0.071879
     29 H                     0.076062
     30 H                     0.071259
     31 H                     0.089116
     32 O                    -0.218936
     33 C                    -0.126960
     34 C                     0.025882
     35 C                    -0.145165
     36 C                    -0.142868
     37 C                     0.025481
     38 O                    -0.185824
     39 H                     0.088319
     40 H                     0.089079
     41 H                     0.089120
     42 H                     0.087972
     43 H                     0.077417
     44 H                     0.073919
     45 H                     0.077717
     46 H                     0.074140
     47 H                     0.083068
     48 H                     0.082628
     49 H                     0.089728
     50 H                     0.088477
     51 H                     0.087020
     52 H                     0.086630
     53 H                     0.118250
     54 H                     0.083530
     55 H                     0.104065
     56 H                     0.088227
  ----------------------------------------
  Sum of atomic charges =    -0.000000

                    Cartesian Multipole Moments
 -----------------------------------------------------------------
    Charge (ESU x 10^10)
                -0.0000
    Dipole Moment (Debye)
         X      -0.1527      Y       0.1794      Z      -0.3527
       Tot       0.4242
    Quadrupole Moments (Debye-Ang)
        XX    -152.0568     XY      -0.5219     YY    -150.7010
        XZ      -0.8175     YZ     -12.9718     ZZ    -159.9846

 Total job time:  133.32s(wall), 6359.20s(cpu)
        *  Thank you very much for using Q-Chem.  Have a nice day.  *
