 Q-Chem 5.0, Q-Chem, Inc., Pleasanton, CA (2017)
 Q-Chem 5.0.1 for Intel X86 EM64T Linux

User input:
--------------------------------------------------------------
$molecule
0  1
O 4.1803073843 -2.8021098207 0.4221107117
C 4.3659520016 -1.5685845678 0.4866836935
C 4.8008401102 -0.6031551875 -0.6666105181
C 3.7721416815 0.5835012649 -0.8911099183
C 2.5399726645 0.5617041503 0.0883708183
O 1.9671350911 -0.7724625422 0.1503394292
C 0.5328360497 -0.7399752984 -0.2193214576
C -0.3560557457 -0.3859123214 1.0440092383
O -1.7343150722 0.1094934935 0.8176599164
C -2.3470611841 -0.3664247675 -0.4061004734
C -3.7015869892 -1.106502422 -0.0634447451
C -4.8294030131 -0.1648405739 0.5241486244
C -4.3669479216 1.3271428604 0.5634431208
O -3.5385078703 1.861849345 -0.2088615751
O 4.1806623261 -0.7778831583 1.6706627254
O -5.0706872471 2.0135444804 1.5982950559
O -1.8358760228 -0.2873702458 -1.5430631109
C -4.6569862307 3.4366616825 1.6329953968
C -4.407355222 -1.6507279558 -1.3735216315
C -5.4768315308 -2.7312319739 -0.9519152448
C -6.6012843178 -1.8175415338 -0.3358672291
C -5.9818604519 -0.379781604 -0.5536976867
O -5.233118977 -0.5042906161 -1.8228188664
H -3.4623632372 -1.9205310335 0.6450919795
H -5.1538710259 -0.4720627413 1.5338709652
H -3.701758451 -1.9510595333 -2.1723564744
H -5.8414309366 -3.2784273173 -1.8356872345
H -5.0723575731 -3.4564962217 -0.2278690486
H -7.5505411323 -1.9156118183 -0.8863727668
H -6.7873912818 -2.0298103319 0.7291116289
H -6.7175995615 0.4460487167 -0.6119850184
O 2.0532357702 1.5521284951 0.6722824389
C 3.5899746509 -1.6080736123 2.7433654315
C 6.1161287248 0.2197077136 -0.3141404954
C 6.6746783814 0.8558680867 -1.6490001794
C 5.647391575 2.02525178 -1.8830511429
C 4.6934568556 1.8452563474 -0.6387539983
O 5.6041483847 1.3872312195 0.4369609645
H 4.9300368304 -1.2079891071 -1.5812036064
H 3.3663623504 0.5649896652 -1.9205311339
H 4.2056179798 -2.5054649956 2.9565390268
H 6.8587126713 -0.3367716215 0.2898268032
H 7.6948653011 1.240731386 -1.4918004529
H 6.6954046496 0.1316093369 -2.4790827812
H 6.1413110722 3.0094172221 -1.8522539871
H 5.1061171103 1.9315080063 -2.8380917589
H 4.1360495708 2.7469206686 -0.3180725354
H 2.5665150432 -1.9351090083 2.4657076561
H 3.5438176912 -0.9641242792 3.6406035076
H -5.2127521117 3.895086544 2.4715198289
H -4.9121335279 3.9585148332 0.6880716601
H -3.5665111791 3.5372408945 1.8082890751
H -0.4042801975 -1.2795554369 1.7075565268
H 0.1657187265 0.4267248393 1.5946776232
H 0.2961966726 -1.7596802548 -0.5853890559
H 0.3221713757 -0.0196110425 -1.0371517059
$end

$rem
JOBTYPE                   OPT
METHOD                    B3LYP
DFT_D                     d3_op
BASIS                     STO-3G
GEOM_OPT_MAX_CYCLES       100
GEOM_OPT_TOL_GRADIENT     300
GEOM_OPT_TOL_DISPLACEMENT 1200
GEOM_OPT_TOL_ENERGY       100
SYMMETRY                  False
THRESH                    12
SCF_CONVERGENCE           8
MAX_SUB_FILE_NUM          128
MEM_STATIC                400
MEM_TOTAL                 4000
$end
--------------------------------------------------------------

   16   -1510.2552602997      5.10E-09 Convergence criterion met
 Total energy in the final basis set = -1510.25526030
   14   -1510.2597108066      4.11E-09 Convergence criterion met
 Total energy in the final basis set = -1510.25971081
   14   -1510.2646103467      2.67E-09 Convergence criterion met
 Total energy in the final basis set = -1510.26461035
   13   -1510.2631636350      8.71E-09 Convergence criterion met
 Total energy in the final basis set = -1510.26316363
   14   -1510.2698885175      1.94E-09 Convergence criterion met
 Total energy in the final basis set = -1510.26988852
   14   -1510.2742123362      1.89E-09 Convergence criterion met
 Total energy in the final basis set = -1510.27421234
   14   -1510.2794155560      2.10E-09 Convergence criterion met
 Total energy in the final basis set = -1510.27941556
   14   -1510.2838754099      4.07E-09 Convergence criterion met
   12   -1510.2954007085      5.41E-09 Convergence criterion met
 Total energy in the final basis set = -1510.29540071
   12   -1510.2954312618      3.49E-09 Convergence criterion met
 Total energy in the final basis set = -1510.29543126
   12   -1510.2954336260      5.12E-09 Convergence criterion met
 Total energy in the final basis set = -1510.29543363
   11   -1510.2954442161      4.98E-09 Convergence criterion met
 Total energy in the final basis set = -1510.29544422
   11   -1510.2954435285      4.81E-09 Convergence criterion met
 Total energy in the final basis set = -1510.29544353
   10   -1510.2954453423      6.58E-09 Convergence criterion met
 Total energy in the final basis set = -1510.29544534

             Standard Nuclear Orientation (Angstroms)
    I     Atom           X                Y                Z
 ----------------------------------------------------------------
    1      O       4.0593076022    -2.5668213950    -0.1234866473
    2      C       3.8811578398    -1.3519730782     0.1100118969
    3      C       4.4187654415    -0.1449669831    -0.7290607888
    4      C       3.3403500186     0.9548845113    -1.1038447069
    5      C       1.8773386777     0.6396921528    -0.6333082623
    6      O       1.5032224806    -0.6366866261    -1.1486303239
    7      C       0.0801082811    -0.9435780004    -0.8645429806
    8      C      -0.1763720409    -1.3133204217     0.6501450193
    9      O      -1.5775545016    -1.0254959963     1.0423746781
   10      C      -2.4826857423    -1.9098870554     0.3705425180
   11      C      -3.9475250399    -1.4636743256     0.7134090264
   12      C      -4.2424050618     0.0698676864     0.4178450661
   13      C      -3.0030610930     0.8628386846    -0.1283281143
   14      O      -2.3806620675     0.6673477435    -1.1992787015
   15      O       3.1933842409    -0.8503874277     1.2650277019
   16      O      -2.7049835217     1.9055648908     0.7949343328
   17      O      -2.1307062337    -2.8698814827    -0.3468087105
   18      C      -1.5447183128     2.7014657259     0.3197808990
   19      C      -4.9818526644    -2.1698403624    -0.2553182200
   20      C      -6.4304877772    -2.0148073469     0.3505965719
   21      C      -6.7233472110    -0.4979173791     0.0505172491
   22      C      -5.3893900498    -0.0657866209    -0.6768984937
   23      O      -4.9992044690    -1.2746678752    -1.4365356105
   24      H      -4.1445907219    -1.7002998487     1.7754834181
   25      H      -4.6004314921     0.5874054354     1.3246073309
   26      H      -4.6851507591    -3.1946703100    -0.5523983516
   27      H      -7.1401417870    -2.6745699317    -0.1733724040
   28      H      -6.4588330313    -2.2490850231     1.4268928413
   29      H      -7.5840507249    -0.3797283848    -0.6268380644
   30      H      -6.9100473306     0.0887949456     0.9642524814
   31      H      -5.4825507727     0.8040322452    -1.3557226026
   32      O       1.1339495185     1.3937203509     0.0339064234
   33      C       2.8381111180    -1.9747289777     2.1613547078
   34      C       5.4334703139     0.7335899393     0.1285068352
   35      C       6.2349846289     1.6777215706    -0.8543845606
   36      C       5.1490102432     2.7690967101    -1.1836109553
   37      C       3.9179905801     2.2273560248    -0.3586818357
   38      O       4.5419728723     1.6607460941     0.8597123259
   39      H       4.8998643614    -0.5593682677    -1.6322018091
   40      H       3.3132073336     1.1043001010    -2.1992641852
   41      H       3.7439063444    -2.4284187592     2.6133638334
   42      H       6.0566701836     0.1538048530     0.8368123724
   43      H       7.1074011416     2.1145777783    -0.3428603735
   44      H       6.5825444864     1.1400258616    -1.7508864383
   45      H       5.4516121884     3.7633354708    -0.8179968224
   46      H       4.9299451380     2.8402350300    -2.2610568451
   47      H       3.1449599773     2.9726169083    -0.0880148648
   48      H       2.2805283164    -2.7690305037     1.6258930158
   49      H       2.2060875779    -1.5451316581     2.9599916455
   50      H      -1.4130834280     3.5076583624     1.0638672977
   51      H      -1.7514563611     3.1485106513    -0.6735223257
   52      H      -0.6125971284     2.0920441921     0.2565657569
   53      H       0.0756000392    -2.3781918805     0.8369598814
   54      H       0.4419075712    -0.6660422659     1.3023422318
   55      H      -0.1622786273    -1.8136343446    -1.5049694659
   56      H      -0.5995175862    -0.0984231192    -1.1361361352
 ----------------------------------------------------------------

    9   -1510.2954461324      4.13E-09 Convergence criterion met
 Total energy in the final basis set = -1510.29544613
 Final energy is   -1510.29544613241
 **  OPTIMIZATION CONVERGED  **

                    Orbital Energies (a.u.)
 --------------------------------------------------------------

 Alpha MOs
 -- Occupied --
-18.940 -18.936 -18.934 -18.930 -18.889 -18.886 -18.884 -18.880
-18.875 -18.866 -10.110 -10.102 -10.099 -10.096 -10.070 -10.065
-10.062 -10.059 -10.059 -10.059 -10.057 -10.042 -10.041 -10.039
-10.038 -10.035 -10.022 -10.021 -10.020 -10.019  -1.020  -1.015
 -1.009  -1.004  -0.971  -0.969  -0.944  -0.940  -0.935  -0.929
 -0.766  -0.762  -0.728  -0.723  -0.709  -0.705  -0.695  -0.662
 -0.653  -0.618  -0.598  -0.587  -0.547  -0.543  -0.539  -0.536
 -0.515  -0.509  -0.483  -0.475  -0.469  -0.455  -0.452  -0.443
 -0.436  -0.432  -0.428  -0.415  -0.412  -0.411  -0.404  -0.395
 -0.391  -0.380  -0.372  -0.364  -0.362  -0.358  -0.356  -0.351
 -0.344  -0.339  -0.336  -0.333  -0.330  -0.327  -0.322  -0.311
 -0.308  -0.307  -0.304  -0.301  -0.295  -0.290  -0.286  -0.278
 -0.271  -0.265  -0.252  -0.248  -0.237  -0.235  -0.233  -0.192
 -0.178  -0.177  -0.165  -0.160  -0.158  -0.151  -0.147  -0.145
 -0.143

          Ground-State Mulliken Net Atomic Charges

     Atom                 Charge (a.u.)
  ----------------------------------------
      1 O                    -0.211971
      2 C                     0.210626
      3 C                    -0.078593
      4 C                    -0.078051
      5 C                     0.222754
      6 O                    -0.170600
      7 C                    -0.064487
      8 C                    -0.052810
      9 O                    -0.171870
     10 C                     0.212446
     11 C                    -0.078528
     12 C                    -0.079314
     13 C                     0.215216
     14 O                    -0.226042
     15 O                    -0.170184
     16 O                    -0.167449
     17 O                    -0.209641
     18 C                    -0.144371
     19 C                     0.024033
     20 C                    -0.144118
     21 C                    -0.143793
     22 C                     0.025487
     23 O                    -0.187036
     24 H                     0.085311
     25 H                     0.086729
     26 H                     0.090373
     27 H                     0.078325
     28 H                     0.072977
     29 H                     0.078011
     30 H                     0.073753
     31 H                     0.083402
     32 O                    -0.215665
     33 C                    -0.129062
     34 C                     0.026016
     35 C                    -0.143963
     36 C                    -0.143788
     37 C                     0.024449
     38 O                    -0.186192
     39 H                     0.086639
     40 H                     0.086631
     41 H                     0.087110
     42 H                     0.082408
     43 H                     0.078354
     44 H                     0.074355
     45 H                     0.078425
     46 H                     0.073586
     47 H                     0.090235
     48 H                     0.090073
     49 H                     0.090720
     50 H                     0.084414
     51 H                     0.080278
     52 H                     0.112603
     53 H                     0.085835
     54 H                     0.097157
     55 H                     0.098445
     56 H                     0.110354
  ----------------------------------------
  Sum of atomic charges =     0.000000

                    Cartesian Multipole Moments
 -----------------------------------------------------------------
    Charge (ESU x 10^10)
                 0.0000
    Dipole Moment (Debye)
         X       0.0925      Y       1.1837      Z       1.1998
       Tot       1.6879
    Quadrupole Moments (Debye-Ang)
        XX    -140.8038     XY       4.5776     YY    -162.4923
        XZ     -11.1172     YZ     -11.5191     ZZ    -160.7503

 Total job time:  104.30s(wall), 4915.51s(cpu)
        *  Thank you very much for using Q-Chem.  Have a nice day.  *
