 Q-Chem 5.0, Q-Chem, Inc., Pleasanton, CA (2017)
 Q-Chem 5.0.1 for Intel X86 EM64T Linux

User input:
--------------------------------------------------------------
$molecule
0  1
O -3.94934 -3.66094 2.70899
C -3.26408 -4.56952 2.26188
C -3.36658 -6.02376 2.66595
C -3.63629 -7.04588 1.54953
C -3.59671 -6.52161 0.1312
O -4.3266 -5.37069 0.0414
C -5.36747 -5.43902 -0.93899
C -4.8172 -5.08109 -2.31566
O -5.70383 -5.56317 -3.3376
C -7.00926 -5.65418 -2.9816
C -7.92223 -4.85986 -3.88503
C -8.00755 -5.37127 -5.33053
C -7.4731 -6.76911 -5.56952
O -7.44906 -7.66967 -4.7431
O -2.2736 -4.25769 1.38124
O -6.85149 -6.96498 -6.76185
O -7.46274 -6.51613 -2.23922
C -6.25472 -8.14878 -7.14214
C -9.40971 -4.92914 -3.47268
C -10.16279 -3.72927 -4.04607
C -10.18984 -4.09196 -5.51521
C -9.53966 -5.4788 -5.46554
O -9.93206 -5.9969 -4.21878
H -7.5977 -3.79753 -3.81148
H -7.58403 -4.68078 -6.09343
H -9.55981 -4.97908 -2.37188
H -11.20281 -3.77504 -3.65017
H -9.72481 -2.73564 -3.80997
H -11.25203 -4.17048 -5.83747
H -9.63715 -3.40048 -6.18745
H -9.84231 -6.07662 -6.35453
O -2.89003 -6.95463 -0.7681
C -2.02068 -2.98651 0.91048
C -2.03669 -6.57014 3.22078
C -2.30396 -7.77326 4.12346
C -2.69919 -8.81467 3.09677
C -2.47728 -8.0274 1.80033
O -1.41014 -7.16293 2.10764
H -4.14676 -6.07663 3.45916
H -4.63842 -7.51344 1.67186
H -1.76536 -2.30948 1.75345
H -1.44427 -5.80309 3.76655
H -1.32823 -8.07026 4.57072
H -3.04235 -7.60213 4.93606
H -1.9825 -9.66325 3.16426
H -3.74208 -9.19065 3.17813
H -2.3156 -8.7279 0.95208
H -2.90913 -2.59627 0.36927
H -1.16274 -3.02324 0.2084
H -5.82872 -8.03108 -8.15956
H -7.00637 -8.96678 -7.16121
H -5.4348 -8.40789 -6.43859
H -4.62972 -3.99093 -2.41515
H -3.85513 -5.59707 -2.49143
H -6.20171 -4.76276 -0.65117
H -5.72732 -6.4897 -0.89655
$end

$opt
CONSTRAINT
tors           1           2           3           4    +123.158
tors           3           4           5           6     -47.368
tors           4           5           6           7    -123.158
tors           5           6           7           8     -85.263
tors           6           7           8           9    +161.053
tors           7           8           9          10     +28.421
tors           8           9          10          11    +123.158
tors           9          10          11          12     +66.316
tors          11          12          13          14     +28.421
ENDCONSTRAINT
$end

$rem
JOBTYPE                   OPT
METHOD                    B3LYP
DFT_D                     d3_op
BASIS                     STO-3G
GEOM_OPT_MAX_CYCLES       100
GEOM_OPT_TOL_GRADIENT     300
GEOM_OPT_TOL_DISPLACEMENT 1200
GEOM_OPT_TOL_ENERGY       100
SYMMETRY                  False
THRESH                    12
SCF_CONVERGENCE           8
MAX_SUB_FILE_NUM          128
MEM_STATIC                400
MEM_TOTAL                 4000
$end
--------------------------------------------------------------

   15   -1510.1125373150      5.35E-09 Convergence criterion met
 Total energy in the final basis set = -1510.11253731
   13   -1510.1852286311      9.43E-09 Convergence criterion met
 Total energy in the final basis set = -1510.18522863
   14   -1510.2236683781      2.26E-09 Convergence criterion met
 Total energy in the final basis set = -1510.22366838
   14   -1510.2422062228      8.84E-09 Convergence criterion met
 Total energy in the final basis set = -1510.24220622
   13   -1510.2494929086      6.55E-09 Convergence criterion met
 Total energy in the final basis set = -1510.24949291
   13   -1510.2526657876      2.48E-09 Convergence criterion met
 Total energy in the final basis set = -1510.25266579
   13   -1510.2542130712      2.23E-09 Convergence criterion met
 Total energy in the final basis set = -1510.25421307
   12   -1510.2545952475      5.89E-09 Convergence criterion met
   11   -1510.2551036849      5.43E-09 Convergence criterion met
 Total energy in the final basis set = -1510.25510368
   11   -1510.2551169746      3.23E-09 Convergence criterion met
 Total energy in the final basis set = -1510.25511697
   10   -1510.2551297248      6.94E-09 Convergence criterion met
 Total energy in the final basis set = -1510.25512972
   10   -1510.2551340875      8.28E-09 Convergence criterion met
 Total energy in the final basis set = -1510.25513409
    9   -1510.2551369748      7.75E-09 Convergence criterion met
 Total energy in the final basis set = -1510.25513697
    9   -1510.2551387044      3.83E-09 Convergence criterion met
 Total energy in the final basis set = -1510.25513870

             Standard Nuclear Orientation (Angstroms)
    I     Atom           X                Y                Z
 ----------------------------------------------------------------
    1      O       4.1803073843    -2.8021098207     0.4221107117
    2      C       4.3659520016    -1.5685845678     0.4866836935
    3      C       4.8008401102    -0.6031551875    -0.6666105181
    4      C       3.7721416815     0.5835012649    -0.8911099183
    5      C       2.5399726645     0.5617041503     0.0883708183
    6      O       1.9671350911    -0.7724625422     0.1503394292
    7      C       0.5328360497    -0.7399752984    -0.2193214576
    8      C      -0.3560557457    -0.3859123214     1.0440092383
    9      O      -1.7343150722     0.1094934935     0.8176599164
   10      C      -2.3470611841    -0.3664247675    -0.4061004734
   11      C      -3.7015869892    -1.1065024220    -0.0634447451
   12      C      -4.8294030131    -0.1648405739     0.5241486244
   13      C      -4.3669479216     1.3271428604     0.5634431208
   14      O      -3.5385078703     1.8618493450    -0.2088615751
   15      O       4.1806623261    -0.7778831583     1.6706627254
   16      O      -5.0706872471     2.0135444804     1.5982950559
   17      O      -1.8358760228    -0.2873702458    -1.5430631109
   18      C      -4.6569862307     3.4366616825     1.6329953968
   19      C      -4.4073552220    -1.6507279558    -1.3735216315
   20      C      -5.4768315308    -2.7312319739    -0.9519152448
   21      C      -6.6012843178    -1.8175415338    -0.3358672291
   22      C      -5.9818604519    -0.3797816040    -0.5536976867
   23      O      -5.2331189770    -0.5042906161    -1.8228188664
   24      H      -3.4623632372    -1.9205310335     0.6450919795
   25      H      -5.1538710259    -0.4720627413     1.5338709652
   26      H      -3.7017584510    -1.9510595333    -2.1723564744
   27      H      -5.8414309366    -3.2784273173    -1.8356872345
   28      H      -5.0723575731    -3.4564962217    -0.2278690486
   29      H      -7.5505411323    -1.9156118183    -0.8863727668
   30      H      -6.7873912818    -2.0298103319     0.7291116289
   31      H      -6.7175995615     0.4460487167    -0.6119850184
   32      O       2.0532357702     1.5521284951     0.6722824389
   33      C       3.5899746509    -1.6080736123     2.7433654315
   34      C       6.1161287248     0.2197077136    -0.3141404954
   35      C       6.6746783814     0.8558680867    -1.6490001794
   36      C       5.6473915750     2.0252517800    -1.8830511429
   37      C       4.6934568556     1.8452563474    -0.6387539983
   38      O       5.6041483847     1.3872312195     0.4369609645
   39      H       4.9300368304    -1.2079891071    -1.5812036064
   40      H       3.3663623504     0.5649896652    -1.9205311339
   41      H       4.2056179798    -2.5054649956     2.9565390268
   42      H       6.8587126713    -0.3367716215     0.2898268032
   43      H       7.6948653011     1.2407313860    -1.4918004529
   44      H       6.6954046496     0.1316093369    -2.4790827812
   45      H       6.1413110722     3.0094172221    -1.8522539871
   46      H       5.1061171103     1.9315080063    -2.8380917589
   47      H       4.1360495708     2.7469206686    -0.3180725354
   48      H       2.5665150432    -1.9351090083     2.4657076561
   49      H       3.5438176912    -0.9641242792     3.6406035076
   50      H      -5.2127521117     3.8950865440     2.4715198289
   51      H      -4.9121335279     3.9585148332     0.6880716601
   52      H      -3.5665111791     3.5372408945     1.8082890751
   53      H      -0.4042801975    -1.2795554369     1.7075565268
   54      H       0.1657187265     0.4267248393     1.5946776232
   55      H       0.2961966726    -1.7596802548    -0.5853890559
   56      H       0.3221713757    -0.0196110425    -1.0371517059
 ----------------------------------------------------------------

    9   -1510.2551399416      2.91E-09 Convergence criterion met
 Total energy in the final basis set = -1510.25513994
 Final energy is   -1510.25513994165
 **  OPTIMIZATION CONVERGED  **

                    Orbital Energies (a.u.)
 --------------------------------------------------------------

 Alpha MOs
 -- Occupied --
-18.940 -18.928 -18.912 -18.905 -18.893 -18.888 -18.886 -18.883
-18.880 -18.869 -10.106 -10.102 -10.101 -10.095 -10.068 -10.066
-10.063 -10.062 -10.059 -10.058 -10.058 -10.056 -10.039 -10.037
-10.035 -10.035 -10.022 -10.021 -10.019 -10.018  -1.015  -1.012
 -1.001  -0.998  -0.971  -0.968  -0.939  -0.939  -0.930  -0.930
 -0.763  -0.762  -0.725  -0.722  -0.708  -0.704  -0.693  -0.664
 -0.655  -0.611  -0.597  -0.589  -0.546  -0.545  -0.538  -0.536
 -0.511  -0.510  -0.479  -0.474  -0.465  -0.456  -0.452  -0.445
 -0.432  -0.432  -0.424  -0.413  -0.411  -0.410  -0.406  -0.394
 -0.391  -0.377  -0.372  -0.367  -0.364  -0.359  -0.355  -0.344
 -0.341  -0.340  -0.335  -0.333  -0.329  -0.326  -0.323  -0.312
 -0.310  -0.305  -0.304  -0.297  -0.295  -0.291  -0.287  -0.278
 -0.273  -0.256  -0.249  -0.247  -0.235  -0.232  -0.229  -0.181
 -0.175  -0.170  -0.160  -0.157  -0.155  -0.147  -0.146  -0.143
 -0.141

          Ground-State Mulliken Net Atomic Charges

     Atom                 Charge (a.u.)
  ----------------------------------------
      1 O                    -0.213410
      2 C                     0.214852
      3 C                    -0.079632
      4 C                    -0.077752
      5 C                     0.223620
      6 O                    -0.193412
      7 C                    -0.054423
      8 C                    -0.055096
      9 O                    -0.191325
     10 C                     0.222242
     11 C                    -0.080053
     12 C                    -0.078584
     13 C                     0.214263
     14 O                    -0.203992
     15 O                    -0.168444
     16 O                    -0.167752
     17 O                    -0.199611
     18 C                    -0.128341
     19 C                     0.023833
     20 C                    -0.144126
     21 C                    -0.143603
     22 C                     0.025677
     23 O                    -0.187502
     24 H                     0.080584
     25 H                     0.086592
     26 H                     0.089108
     27 H                     0.078425
     28 H                     0.072810
     29 H                     0.078337
     30 H                     0.073892
     31 H                     0.083264
     32 O                    -0.193207
     33 C                    -0.127614
     34 C                     0.026126
     35 C                    -0.143732
     36 C                    -0.144200
     37 C                     0.023945
     38 O                    -0.186130
     39 H                     0.084264
     40 H                     0.084330
     41 H                     0.088595
     42 H                     0.082939
     43 H                     0.077814
     44 H                     0.073612
     45 H                     0.078252
     46 H                     0.073252
     47 H                     0.090266
     48 H                     0.088747
     49 H                     0.090433
     50 H                     0.091222
     51 H                     0.090173
     52 H                     0.093747
     53 H                     0.073119
     54 H                     0.097811
     55 H                     0.086489
     56 H                     0.099308
  ----------------------------------------
  Sum of atomic charges =     0.000000

                    Cartesian Multipole Moments
 -----------------------------------------------------------------
    Charge (ESU x 10^10)
                 0.0000
    Dipole Moment (Debye)
         X      -1.2359      Y      -1.0828      Z       0.7279
       Tot       1.7972
    Quadrupole Moments (Debye-Ang)
        XX    -144.8392     XY       4.2541     YY    -158.0660
        XZ     -15.1883     YZ      -2.1290     ZZ    -158.8926

 Total job time:  51.96s(wall), 2469.19s(cpu)
        *  Thank you very much for using Q-Chem.  Have a nice day.  *
