 Q-Chem 5.0, Q-Chem, Inc., Pleasanton, CA (2017)
 Q-Chem 5.0.1 for Intel X86 EM64T Linux

User input:
--------------------------------------------------------------
$molecule
0  1
O 4.73479109 -2.185885404 0.2699565331
C 3.8890216214 -1.3183555333 -0.0248031929
C 2.3896127857 -1.5277191355 -0.387779082
C 1.4852792908 -0.3677780631 0.2222416014
C 2.3596137466 0.9302784826 0.7104388998
O 2.2633008844 2.0841164494 -0.2116321323
C 1.367779969 3.108271186 0.4064516938
C -0.0629089956 2.8558988324 1.0839945193
O -1.2108049326 2.3924382539 0.2264011432
C -1.9508741974 1.4220460682 1.1447830177
C -1.2989832631 0.0329578508 1.0553387208
C -2.665331844 -0.8276798066 -0.1057466719
C -3.1188117154 0.046017108 -1.2848138825
O -4.036794099 -0.9281840386 -2.0299081694
O 4.1720492103 0.0839351631 -0.2532581635
O -2.9722039242 1.3873862641 -1.2863742604
O -2.9532221471 1.7682613301 1.7902303352
C -3.902662359 1.9682620431 -2.2827208525
C -1.5368162719 -1.2202403151 2.0904033263
C -2.9996800985 -1.322767363 2.6546991212
C -3.7176945239 -2.1881883235 1.539683591
C -2.5887328135 -2.2657316 0.4202596752
O -1.3530383267 -2.4455434978 1.234925083
H -0.2786910458 0.2989729616 1.3081151675
H -3.2993771531 -0.2778210929 0.6278178032
H -0.7057768892 -1.2343137531 2.821789846
H -3.4132167071 -0.3027684758 2.7690237271
H -3.009815042 -1.8210253125 3.6350224046
H -3.9375420958 -3.1919807343 1.9087560656
H -4.6481079444 -1.7239003726 1.1666285417
H -2.6899818665 -3.0190371269 -0.3647023387
O 2.7786247941 1.0476257455 1.8817098056
C 5.6047042234 0.3505205771 0.0389904026
C 2.1567911152 -1.3968013604 -1.9233809142
C 0.7546198962 -2.0021247333 -2.3205670454
C -0.1160429799 -0.7291647529 -2.160281847
C 0.7602197078 0.1895128799 -1.224431564
O 2.044520899 0.1038520087 -2.0242154552
H 2.0780882061 -2.507899563 0.0216868234
H 1.0338747095 -0.737536031 1.1825537401
H 6.2602665736 -0.2478681289 -0.6263116935
H 2.9964870291 -1.8046570043 -2.5076001146
H 0.7573466317 -2.3677789264 -3.357110015
H 0.4674919499 -2.8237540051 -1.6493533081
H -0.0251848743 -0.1942058798 -3.1169500441
H -1.1724430103 -0.8494076529 -1.8934582957
H 0.3196623753 1.2136785046 -1.1790946299
H 5.8584772069 0.1199683016 1.0936850397
H 5.7482434453 1.4269402848 -0.1568128673
H -3.6411659231 3.0313206149 -2.2302158654
H -4.9624387657 1.8096112255 -2.0011145506
H -3.7354973963 1.5660889449 -3.3005734874
H 0.1434981681 2.1605249418 1.93598717
H -0.3146387489 3.8431982063 1.5430628969
H 1.2393738662 3.8686430539 -0.3957765828
H 1.944915621 3.6086618104 1.2260112885
$end

$rem
JOBTYPE                   OPT
METHOD                    B3LYP
DFT_D                     d3_op
BASIS                     STO-3G
GEOM_OPT_MAX_CYCLES       100
GEOM_OPT_TOL_GRADIENT     300
GEOM_OPT_TOL_DISPLACEMENT 1200
GEOM_OPT_TOL_ENERGY       100
SYMMETRY                  False
THRESH                    12
SCF_CONVERGENCE           8
MAX_SUB_FILE_NUM          128
MEM_STATIC                400
MEM_TOTAL                 4000
$end
--------------------------------------------------------------

   19   -1509.9355110737      6.30E-09 Convergence criterion met
 Total energy in the final basis set = -1509.93551107
   16   -1509.9764746086      4.84E-09 Convergence criterion met
 Total energy in the final basis set = -1509.97647461
   15   -1510.0346408376      8.49E-09 Convergence criterion met
 Total energy in the final basis set = -1510.03464084
   15   -1510.0816329873      5.03E-09 Convergence criterion met
 Total energy in the final basis set = -1510.08163299
   14   -1510.1168034085      9.58E-09 Convergence criterion met
 Total energy in the final basis set = -1510.11680341
   14   -1510.1431776975      5.46E-09 Convergence criterion met
 Total energy in the final basis set = -1510.14317770
   14   -1510.1646212602      5.65E-09 Convergence criterion met
 Total energy in the final basis set = -1510.16462126
   14   -1510.1830380451      4.97E-09 Convergence criterion met
   11   -1510.2946828515      5.47E-09 Convergence criterion met
 Total energy in the final basis set = -1510.29468285
   11   -1510.2946845176      5.03E-09 Convergence criterion met
 Total energy in the final basis set = -1510.29468452
   10   -1510.2946900006      7.59E-09 Convergence criterion met
 Total energy in the final basis set = -1510.29469000
   10   -1510.2946914828      4.39E-09 Convergence criterion met
 Total energy in the final basis set = -1510.29469148
   10   -1510.2946944910      6.73E-09 Convergence criterion met
 Total energy in the final basis set = -1510.29469449
    9   -1510.2946960653      4.15E-09 Convergence criterion met
 Total energy in the final basis set = -1510.29469607

             Standard Nuclear Orientation (Angstroms)
    I     Atom           X                Y                Z
 ----------------------------------------------------------------
    1      O       3.7985335354    -1.3137013528     1.5260231188
    2      C       3.4348812660    -1.0070716410     0.3695352468
    3      C       2.1649474147    -1.5442793851    -0.3838167517
    4      C       0.9839772639    -0.4970414885    -0.5139942742
    5      C       1.2861112667     0.8731979185     0.1661200674
    6      O       0.2430389538     1.8046173622    -0.2185611879
    7      C       0.3068863308     3.0483301351     0.5859917014
    8      C      -0.2937264815     2.8885620278     2.0440818096
    9      O      -1.7567425080     3.0757402715     2.1660162619
   10      C      -2.5833725108     1.9271757773     1.8877766819
   11      C      -1.9401624403     0.7010364151     1.1558757802
   12      C      -3.0014313637    -0.1420344963     0.3500646218
   13      C      -2.8491699198     0.0116242066    -1.2009492488
   14      O      -2.8224979312    -0.9108053822    -2.0460867656
   15      O       4.1807195032    -0.1583166496    -0.5124785642
   16      O      -2.7251617018     1.3980177795    -1.5221564641
   17      O      -3.7919223228     2.0118014918     2.2010515124
   18      C      -2.5642225256     1.5680665815    -2.9851406879
   19      C      -1.3092382967    -0.4293624358     2.0727415410
   20      C      -2.3642706114    -0.9412242693     3.1254407734
   21      C      -3.2819746698    -1.8562991136     2.2312592201
   22      C      -2.6556207343    -1.6147422054     0.8094541030
   23      O      -1.1960421135    -1.5528671210     1.1045512954
   24      H      -1.1573477978     1.0813755377     0.4636089870
   25      H      -4.0280882302     0.1487183690     0.6476261340
   26      H      -0.3098341618    -0.1907182886     2.4853329692
   27      H      -2.9237844097    -0.1040765644     3.5725754445
   28      H      -1.8722096183    -1.5135664271     3.9273145226
   29      H      -3.1927599773    -2.9169822294     2.5160348837
   30      H      -4.3431006302    -1.5632622329     2.2735903172
   31      H      -2.8602360944    -2.3870474253     0.0421374540
   32      O       2.2079083870     1.1779262487     0.9516243920
   33      C       5.3435824438     0.4062980740     0.2060963497
   34      C       2.4391458715    -1.8552485014    -1.9167559132
   35      C       1.2436383649    -2.7358734746    -2.4644166838
   36      C       0.1168345817    -1.6516797265    -2.6393227323
   37      C       0.8507301044    -0.3688815346    -2.0922406703
   38      O       2.2407058046    -0.5418199644    -2.5732951969
   39      H       1.8209762313    -2.4418466756     0.1598128585
   40      H       0.0519514726    -0.9133104492    -0.0440539290
   41      H       5.9850663036    -0.3876584718     0.6400691966
   42      H       3.4517580263    -2.2458531465    -2.1344194886
   43      H       1.5125935522    -3.1996660716    -3.4266356435
   44      H       0.9598153224    -3.5306659768    -1.7561483111
   45      H      -0.1411681194    -1.5122850337    -3.7013628069
   46      H      -0.8104896798    -1.8743220238    -2.0853463311
   47      H       0.4352314011     0.5996007502    -2.4310641521
   48      H       5.0178933982     1.0823163795     1.0234322924
   49      H       5.9180905521     0.9812198759    -0.5432532834
   50      H      -2.3624414058     2.6426705648    -3.1475455548
   51      H      -3.4848367681     1.2772701791    -3.5314668743
   52      H      -1.7193567793     0.9650393803    -3.3745760312
   53      H       0.0485271453     1.9277674987     2.4801581549
   54      H       0.1325857838     3.7077683998     2.6601117152
   55      H      -0.2732051050     3.8053192497     0.0206238719
   56      H       1.3623116630     3.3803585645     0.6831887671
 ----------------------------------------------------------------

    8   -1510.2946962720      9.96E-09 Convergence criterion met
 Total energy in the final basis set = -1510.29469627
 Final energy is   -1510.29469627199
 **  OPTIMIZATION CONVERGED  **

                    Orbital Energies (a.u.)
 --------------------------------------------------------------

 Alpha MOs
 -- Occupied --
-18.955 -18.943 -18.936 -18.920 -18.912 -18.900 -18.881 -18.881
-18.880 -18.857 -10.114 -10.105 -10.104 -10.088 -10.087 -10.086
-10.072 -10.070 -10.069 -10.054 -10.053 -10.053 -10.040 -10.027
-10.027 -10.026 -10.024 -10.024 -10.013 -10.010  -1.031  -1.018
 -1.009  -0.997  -0.987  -0.964  -0.957  -0.943  -0.941  -0.922
 -0.770  -0.757  -0.730  -0.726  -0.714  -0.713  -0.698  -0.668
 -0.651  -0.624  -0.605  -0.586  -0.556  -0.549  -0.541  -0.531
 -0.517  -0.514  -0.498  -0.481  -0.471  -0.465  -0.460  -0.446
 -0.432  -0.430  -0.424  -0.418  -0.417  -0.414  -0.405  -0.401
 -0.396  -0.388  -0.383  -0.375  -0.369  -0.363  -0.355  -0.353
 -0.348  -0.339  -0.337  -0.334  -0.328  -0.323  -0.322  -0.320
 -0.314  -0.313  -0.305  -0.300  -0.296  -0.289  -0.281  -0.281
 -0.274  -0.264  -0.260  -0.252  -0.246  -0.240  -0.228  -0.199
 -0.184  -0.175  -0.170  -0.166  -0.163  -0.159  -0.151  -0.140
 -0.137

          Ground-State Mulliken Net Atomic Charges

     Atom                 Charge (a.u.)
  ----------------------------------------
      1 O                    -0.220855
      2 C                     0.210185
      3 C                    -0.082099
      4 C                    -0.098002
      5 C                     0.212590
      6 O                    -0.171958
      7 C                    -0.053709
      8 C                    -0.051689
      9 O                    -0.171123
     10 C                     0.207185
     11 C                    -0.112003
     12 C                    -0.083145
     13 C                     0.209394
     14 O                    -0.216994
     15 O                    -0.169852
     16 O                    -0.167682
     17 O                    -0.203618
     18 C                    -0.128006
     19 C                     0.020687
     20 C                    -0.145477
     21 C                    -0.141052
     22 C                     0.023519
     23 O                    -0.188859
     24 H                     0.111322
     25 H                     0.095807
     26 H                     0.079801
     27 H                     0.083032
     28 H                     0.080208
     29 H                     0.079967
     30 H                     0.080907
     31 H                     0.092272
     32 O                    -0.204887
     33 C                    -0.127983
     34 C                     0.026149
     35 C                    -0.144362
     36 C                    -0.146978
     37 C                     0.021744
     38 O                    -0.189312
     39 H                     0.084471
     40 H                     0.112600
     41 H                     0.086833
     42 H                     0.083123
     43 H                     0.075688
     44 H                     0.073885
     45 H                     0.074799
     46 H                     0.084056
     47 H                     0.080167
     48 H                     0.088983
     49 H                     0.087117
     50 H                     0.091955
     51 H                     0.089396
     52 H                     0.090997
     53 H                     0.086322
     54 H                     0.096144
     55 H                     0.098970
     56 H                     0.099368
  ----------------------------------------
  Sum of atomic charges =    -0.000000

                    Cartesian Multipole Moments
 -----------------------------------------------------------------
    Charge (ESU x 10^10)
                -0.0000
    Dipole Moment (Debye)
         X      -0.2460      Y       0.4229      Z      -0.5148
       Tot       0.7102
    Quadrupole Moments (Debye-Ang)
        XX    -168.2258     XY       9.2043     YY    -156.8059
        XZ       3.1177     YZ      -3.5697     ZZ    -162.1613

 Total job time:  210.09s(wall), 9694.81s(cpu)
        *  Thank you very much for using Q-Chem.  Have a nice day.  *
