 Q-Chem 5.0, Q-Chem, Inc., Pleasanton, CA (2017)
 Q-Chem 5.0.1 for Intel X86 EM64T Linux

User input:
--------------------------------------------------------------
$molecule
0  1
O -5.6814983291 -0.836640892 1.899636445
C -4.7436380929 -0.6885799132 1.0844959279
C -3.7547721138 0.5281724428 1.0538578338
C -2.3737472979 0.3764649956 0.2901556354
C -2.2939712278 -0.7961590552 -0.7764129568
O -1.5361847475 -1.9642975015 -0.3322012837
C -0.1101863414 -1.6001802095 -0.1715049008
C 0.7803574252 -2.5529956288 -1.0766233908
O 1.6396381014 -1.8416498204 -2.0478772698
C 2.3682519981 -0.7358627553 -1.4466624517
C 3.7511652918 -1.0395393922 -0.728884725
C 4.370670182 0.2974719173 -0.1477779825
C 4.0158989736 1.6011047136 -0.9560895904
O 4.0829999966 1.75350353 -2.1949195016
O -4.4078838152 -1.6483095119 0.0849394281
O 3.6235801375 2.6309347908 -0.0408233808
O 1.8639163146 0.4109735516 -1.4768806868
C 3.2497680084 3.8505602638 -0.7919428834
C 3.4533416472 -1.7762576067 0.6501859944
C 4.7962652775 -2.0308101942 1.4495283624
C 5.042931728 -0.6251775302 2.1127901127
C 3.9364010318 0.2229805497 1.3800848081
O 2.7710834424 -0.6952818901 1.4027327601
H 4.4341261293 -1.5968457585 -1.3947364513
H 5.4724982332 0.2110433631 -0.2045200567
H 2.8090427499 -2.6685784619 0.5773913164
H 4.6488200061 -2.8199881825 2.2033082711
H 5.6182177806 -2.3338449729 0.7808926437
H 4.8522685836 -0.6540986868 3.1977974561
H 6.0596862669 -0.2391466507 1.9381531491
H 3.6790322973 1.1992099654 1.832829678
O -2.8019942958 -0.7638045672 -1.9141101151
C -5.3163057539 -2.8145228011 0.147853357
C -4.351609979 1.8400618859 0.364049534
C -3.667134499 3.0807614425 1.0596627082
C -2.2023493486 2.9595607493 0.4957816688
C -2.3551291745 1.7501676884 -0.5108587579
O -3.7550846869 1.8483972354 -0.9876544617
H -3.5503065539 0.7525718466 2.1171414328
H -1.5413314366 0.2830827085 1.0074195171
H -6.3620782513 -2.5256258486 -0.0829785038
H -5.4569684334 1.8734029439 0.307633224
H -4.1476806032 4.0157189582 0.7295668022
H -3.7124438808 3.026390944 2.1589762215
H -1.8949915778 3.8719912023 -0.0389692966
H -1.4600710541 2.7451149914 1.2813782578
H -1.6564058876 1.7622410402 -1.3698088207
H -5.2930320424 -3.2948227299 1.1473380113
H -4.9489930564 -3.5232081118 -0.6170557852
H 2.9536631367 4.5984482274 -0.0334299212
H 2.3991370559 3.656759767 -1.4768903699
H 4.0991657533 4.2421781617 -1.3882355658
H 1.3674019879 -3.2530510657 -0.4435914082
H 0.0979018304 -3.1641448781 -1.7052064814
H 0.1879042107 -1.7210130069 0.8938211585
H 0.1036326741 -0.5499999031 -0.4630764238
$end

$rem
JOBTYPE                   OPT
METHOD                    B3LYP
DFT_D                     d3_op
BASIS                     STO-3G
GEOM_OPT_MAX_CYCLES       100
GEOM_OPT_TOL_GRADIENT     300
GEOM_OPT_TOL_DISPLACEMENT 1200
GEOM_OPT_TOL_ENERGY       100
SYMMETRY                  False
THRESH                    12
SCF_CONVERGENCE           8
MAX_SUB_FILE_NUM          128
MEM_STATIC                400
MEM_TOTAL                 4000
$end
--------------------------------------------------------------

   16   -1510.2264424126      3.93E-09 Convergence criterion met
 Total energy in the final basis set = -1510.22644241
   13   -1510.2299514355      5.97E-09 Convergence criterion met
 Total energy in the final basis set = -1510.22995144
   14   -1510.2328677849      6.63E-09 Convergence criterion met
 Total energy in the final basis set = -1510.23286778
   14   -1510.2361361803      6.64E-09 Convergence criterion met
 Total energy in the final basis set = -1510.23613618
   14   -1510.2392457021      4.30E-09 Convergence criterion met
 Total energy in the final basis set = -1510.23924570
   14   -1510.2422110849      3.13E-09 Convergence criterion met
 Total energy in the final basis set = -1510.24221108
   14   -1510.2448938926      6.60E-09 Convergence criterion met
 Total energy in the final basis set = -1510.24489389
   14   -1510.2483638664      4.49E-09 Convergence criterion met
   11   -1510.2893219557      6.35E-09 Convergence criterion met
 Total energy in the final basis set = -1510.28932196
   12   -1510.2893362360      4.64E-09 Convergence criterion met
 Total energy in the final basis set = -1510.28933624
   12   -1510.2893333572      2.69E-09 Convergence criterion met
 Total energy in the final basis set = -1510.28933336
   10   -1510.2893482982      7.48E-09 Convergence criterion met
 Total energy in the final basis set = -1510.28934830
   10   -1510.2893512791      5.68E-09 Convergence criterion met
 Total energy in the final basis set = -1510.28935128
    9   -1510.2893537140      7.19E-09 Convergence criterion met
 Total energy in the final basis set = -1510.28935371

             Standard Nuclear Orientation (Angstroms)
    I     Atom           X                Y                Z
 ----------------------------------------------------------------
    1      O      -3.1969477222     0.3559071693     2.1633997476
    2      C      -3.0904805297     0.4345076766     0.9193890558
    3      C      -1.8127724667     0.7857835357     0.0925909072
    4      C      -1.5384006821    -0.2010641392    -1.1221034013
    5      C      -2.6280908159    -1.3248881953    -1.3425732476
    6      O      -2.7512617721    -2.3870077858    -0.3651651367
    7      C      -1.6770598561    -2.4865839165     0.6396683795
    8      C      -0.3427403479    -3.1364492514     0.0893920433
    9      O       0.6094854518    -2.1436245235    -0.4727846818
   10      C       1.3529550451    -1.5095030341     0.5800238887
   11      C       2.3371893193    -0.4810258315    -0.0603377293
   12      C       2.4968434749     0.8422633506     0.8023591660
   13      C       1.5760937916     0.8430946440     2.0772095620
   14      O       0.3418192669     1.0714745972     2.0976538536
   15      O      -4.1706958998     0.1972770225     0.0090062786
   16      O       2.3435224900     0.5706167517     3.2418855345
   17      O       1.2045934908    -1.7687250927     1.7941811323
   18      C       1.4487403377     0.4544436377     4.4182702879
   19      C       3.8348291596    -1.0255509704    -0.0478884650
   20      C       4.6891488686    -0.1288291061    -1.0276096166
   21      C       4.8414537726     1.1863583368    -0.1765386886
   22      C       4.0465832646     0.7994040349     1.1323636747
   23      O       4.3234755517    -0.6474844667     1.2947302122
   24      H       1.9975949730    -0.2646097854    -1.0879757420
   25      H       2.2308730212     1.7270852090     0.1962112871
   26      H       3.9266869862    -2.1180114502    -0.2046005190
   27      H       5.6651573942    -0.6002104810    -1.2241115342
   28      H       4.1773118792     0.0396694663    -1.9887250709
   29      H       5.8968977215     1.3921431663     0.0621316225
   30      H       4.4136678421     2.0696375381    -0.6772768181
   31      H       4.3338205526     1.3526591156     2.0463927826
   32      O      -3.3811997401    -1.3991849621    -2.3359976735
   33      C      -5.3799902590    -0.2402545151     0.7404315556
   34      C      -1.9802327747     2.1640240370    -0.6856698219
   35      C      -0.5405686601     2.6453143061    -1.1262536974
   36      C      -0.2500284785     1.6651135633    -2.3229824717
   37      C      -1.5756315110     0.8063625214    -2.3426109238
   38      O      -2.6235080134     1.7805578216    -1.9599660228
   39      H      -0.9533335488     0.8397895149     0.8004991991
   40      H      -0.5563015592    -0.7044756508    -1.0231088727
   41      H      -5.6929509692     0.5065175322     1.4984560514
   42      H      -2.5866510827     2.9232220605    -0.1548052884
   43      H      -0.5662087323     3.6951171613    -1.4591042240
   44      H       0.1881460749     2.5491274045    -0.3059297424
   45      H      -0.1275735152     2.2107137091    -3.2721854051
   46      H       0.6438375026     1.0434544760    -2.1559864405
   47      H      -1.8295633102     0.3308204123    -3.3096448050
   48      H      -5.2140795108    -1.2130402699     1.2472344640
   49      H      -6.1720069210    -0.3527892823    -0.0224253716
   50      H       2.1091972750     0.2572921160     5.2822674357
   51      H       0.7366408248    -0.3858781883     4.2900373101
   52      H       0.8740825947     1.3877630098     4.5876613799
   53      H       0.1463587460    -3.6958217652     0.9146428444
   54      H      -0.5807434533    -3.8305492888    -0.7420635186
   55      H      -2.0865452190    -3.1715896722     1.4106353191
   56      H      -1.4431230441    -1.5234044805     1.1371084038
 ----------------------------------------------------------------

    9   -1510.2893544043      3.73E-09 Convergence criterion met
 Total energy in the final basis set = -1510.28935440
 Final energy is   -1510.28935440426
 **  OPTIMIZATION CONVERGED  **

                    Orbital Energies (a.u.)
 --------------------------------------------------------------

 Alpha MOs
 -- Occupied --
-18.957 -18.950 -18.927 -18.918 -18.900 -18.899 -18.886 -18.878
-18.864 -18.862 -10.119 -10.114 -10.088 -10.087 -10.083 -10.075
-10.074 -10.070 -10.068 -10.055 -10.053 -10.051 -10.050 -10.048
-10.031 -10.029 -10.017 -10.016 -10.014 -10.014  -1.034  -1.022
 -1.004  -0.992  -0.982  -0.960  -0.958  -0.946  -0.927  -0.925
 -0.777  -0.752  -0.736  -0.724  -0.715  -0.708  -0.695  -0.667
 -0.651  -0.626  -0.596  -0.589  -0.558  -0.548  -0.542  -0.531
 -0.525  -0.501  -0.496  -0.479  -0.475  -0.463  -0.456  -0.445
 -0.438  -0.428  -0.424  -0.419  -0.417  -0.408  -0.405  -0.402
 -0.396  -0.393  -0.382  -0.377  -0.368  -0.363  -0.360  -0.356
 -0.344  -0.342  -0.336  -0.333  -0.327  -0.323  -0.320  -0.316
 -0.312  -0.309  -0.303  -0.297  -0.294  -0.291  -0.287  -0.282
 -0.274  -0.264  -0.260  -0.245  -0.244  -0.230  -0.225  -0.198
 -0.187  -0.175  -0.167  -0.164  -0.159  -0.155  -0.145  -0.135
 -0.133

          Ground-State Mulliken Net Atomic Charges

     Atom                 Charge (a.u.)
  ----------------------------------------
      1 O                    -0.217292
      2 C                     0.201116
      3 C                    -0.101862
      4 C                    -0.099907
      5 C                     0.212358
      6 O                    -0.179203
      7 C                    -0.053968
      8 C                    -0.055206
      9 O                    -0.170292
     10 C                     0.209597
     11 C                    -0.080020
     12 C                    -0.079953
     13 C                     0.218087
     14 O                    -0.218326
     15 O                    -0.164234
     16 O                    -0.158658
     17 O                    -0.206323
     18 C                    -0.126021
     19 C                     0.026673
     20 C                    -0.143418
     21 C                    -0.144299
     22 C                     0.026309
     23 O                    -0.184203
     24 H                     0.086633
     25 H                     0.085207
     26 H                     0.084848
     27 H                     0.080663
     28 H                     0.075330
     29 H                     0.080288
     30 H                     0.074739
     31 H                     0.092171
     32 O                    -0.202660
     33 C                    -0.126793
     34 C                     0.026524
     35 C                    -0.144430
     36 C                    -0.144403
     37 C                     0.025457
     38 O                    -0.187108
     39 H                     0.105742
     40 H                     0.088324
     41 H                     0.087773
     42 H                     0.080335
     43 H                     0.074948
     44 H                     0.070659
     45 H                     0.075691
     46 H                     0.063893
     47 H                     0.088662
     48 H                     0.088067
     49 H                     0.094033
     50 H                     0.093585
     51 H                     0.098170
     52 H                     0.092083
     53 H                     0.096240
     54 H                     0.097752
     55 H                     0.093393
     56 H                     0.093229
  ----------------------------------------
  Sum of atomic charges =     0.000000

                    Cartesian Multipole Moments
 -----------------------------------------------------------------
    Charge (ESU x 10^10)
                -0.0000
    Dipole Moment (Debye)
         X       4.2265      Y       0.3869      Z       0.8617
       Tot       4.3307
    Quadrupole Moments (Debye-Ang)
        XX    -165.9363     XY       3.3429     YY    -154.3584
        XZ     -13.1692     YZ       0.0248     ZZ    -164.5352

 Total job time:  176.09s(wall), 8124.98s(cpu)
        *  Thank you very much for using Q-Chem.  Have a nice day.  *
