 Q-Chem 5.0, Q-Chem, Inc., Pleasanton, CA (2017)
 Q-Chem 5.0.1 for Intel X86 EM64T Linux

User input:
--------------------------------------------------------------
$molecule
0  1
O -3.94934 -3.66094 2.70899
C -3.26408 -4.56952 2.26188
C -3.36658 -6.02376 2.66595
C -2.76261 -7.06348 1.7078
C -1.9673 -6.5228 0.54022
O -2.7036 -6.61734 -0.60623
C -2.95272 -7.96925 -1.00562
C -2.43677 -8.20253 -2.42178
O -1.49527 -9.28716 -2.42718
C -1.8857 -10.40154 -1.76021
C -2.72917 -11.32719 -2.60424
C -3.19701 -12.60537 -1.89314
C -3.06788 -12.60648 -0.38316
O -2.07621 -12.2626 0.24367
O -2.11628 -4.15573 1.66783
O -4.18803 -12.89808 0.33403
O -0.92457 -10.88951 -1.19281
C -4.26441 -12.87446 1.71134
C -4.12522 -10.8542 -3.12374
C -4.47997 -11.61685 -4.4012
C -4.75346 -12.99435 -3.84418
C -4.65972 -12.70084 -2.34367
O -5.0697 -11.36704 -2.21522
H -2.10061 -11.58014 -3.48957
H -2.57967 -13.46994 -2.22325
H -4.25307 -9.79635 -3.34741
H -5.4433 -11.19379 -4.7693
H -3.73332 -11.57246 -5.22297
H -5.78392 -13.29536 -4.13676
H -4.02615 -13.78002 -4.14375
H -5.24425 -13.45613 -1.77526
O -0.87167 -5.98179 0.58427
C -1.80946 -2.84965 1.33944
C -2.51636 -6.30867 3.92304
C -3.03794 -7.55712 4.63454
C -2.57902 -8.63894 3.67907
C -1.80466 -7.7975 2.65893
O -1.27423 -6.74334 3.42398
H -4.4364 -6.2155 2.90933
H -3.5938 -7.71999 1.3738
H -1.78252 -2.2185 2.25317
H -2.48508 -5.45099 4.63081
H -2.46535 -7.65949 5.58424
H -4.12576 -7.55199 4.86128
H -1.88572 -9.3181 4.22342
H -3.39096 -9.23006 3.20255
H -1.06928 -8.4292 2.11273
H -2.56166 -2.44966 0.62629
H -0.81076 -2.82158 0.85756
H -5.29149 -13.15395 2.02339
H -4.04114 -11.8536 2.08942
H -3.54695 -13.60225 2.14697
H -3.14361 -8.11913 -3.26285
H -1.79831 -7.32637 -2.6663
H -4.04287 -8.18113 -0.98964
H -2.4911 -8.67815 -0.28303
$end

$opt
CONSTRAINT
tors           1           2           3           4    +161.053
tors           3           4           5           6    -104.211
tors           4           5           6           7     -66.316
tors           5           6           7           8    -123.158
tors           6           7           8           9    +123.158
tors           7           8           9          10     +47.368
tors           8           9          10          11     +85.263
tors           9          10          11          12    -180.000
tors          11          12          13          14     -47.368
ENDCONSTRAINT
$end

$rem
JOBTYPE                   OPT
METHOD                    B3LYP
DFT_D                     d3_op
BASIS                     STO-3G
GEOM_OPT_MAX_CYCLES       100
GEOM_OPT_TOL_GRADIENT     300
GEOM_OPT_TOL_DISPLACEMENT 1200
GEOM_OPT_TOL_ENERGY       100
SYMMETRY                  False
THRESH                    12
SCF_CONVERGENCE           8
MAX_SUB_FILE_NUM          128
MEM_STATIC                400
MEM_TOTAL                 4000
$end
--------------------------------------------------------------

   16   -1510.0397282057      3.05E-09 Convergence criterion met
 Total energy in the final basis set = -1510.03972821
   14   -1510.1213157247      7.82E-09 Convergence criterion met
 Total energy in the final basis set = -1510.12131572
   14   -1510.1665839192      8.32E-09 Convergence criterion met
 Total energy in the final basis set = -1510.16658392
   14   -1510.1902666310      9.94E-09 Convergence criterion met
 Total energy in the final basis set = -1510.19026663
   14   -1510.2028752502      5.07E-09 Convergence criterion met
 Total energy in the final basis set = -1510.20287525
   14   -1510.2091631852      4.37E-09 Convergence criterion met
 Total energy in the final basis set = -1510.20916319
   13   -1510.2129168501      6.76E-09 Convergence criterion met
 Total energy in the final basis set = -1510.21291685
   13   -1510.2150029204      7.97E-09 Convergence criterion met
   12   -1510.2264539101      2.98E-09 Convergence criterion met
 Total energy in the final basis set = -1510.22645391
   11   -1510.2265323359      7.03E-09 Convergence criterion met
 Total energy in the final basis set = -1510.22653234
   11   -1510.2265709353      8.20E-09 Convergence criterion met
 Total energy in the final basis set = -1510.22657094
   11   -1510.2265894973      4.43E-09 Convergence criterion met
 Total energy in the final basis set = -1510.22658950
   10   -1510.2265944783      5.15E-09 Convergence criterion met
 Total energy in the final basis set = -1510.22659448
   10   -1510.2265958495      7.49E-09 Convergence criterion met
 Total energy in the final basis set = -1510.22659585

             Standard Nuclear Orientation (Angstroms)
    I     Atom           X                Y                Z
 ----------------------------------------------------------------
    1      O      -5.6814983291    -0.8366408920     1.8996364450
    2      C      -4.7436380929    -0.6885799132     1.0844959279
    3      C      -3.7547721138     0.5281724428     1.0538578338
    4      C      -2.3737472979     0.3764649956     0.2901556354
    5      C      -2.2939712278    -0.7961590552    -0.7764129568
    6      O      -1.5361847475    -1.9642975015    -0.3322012837
    7      C      -0.1101863414    -1.6001802095    -0.1715049008
    8      C       0.7803574252    -2.5529956288    -1.0766233908
    9      O       1.6396381014    -1.8416498204    -2.0478772698
   10      C       2.3682519981    -0.7358627553    -1.4466624517
   11      C       3.7511652918    -1.0395393922    -0.7288847250
   12      C       4.3706701820     0.2974719173    -0.1477779825
   13      C       4.0158989736     1.6011047136    -0.9560895904
   14      O       4.0829999966     1.7535035300    -2.1949195016
   15      O      -4.4078838152    -1.6483095119     0.0849394281
   16      O       3.6235801375     2.6309347908    -0.0408233808
   17      O       1.8639163146     0.4109735516    -1.4768806868
   18      C       3.2497680084     3.8505602638    -0.7919428834
   19      C       3.4533416472    -1.7762576067     0.6501859944
   20      C       4.7962652775    -2.0308101942     1.4495283624
   21      C       5.0429317280    -0.6251775302     2.1127901127
   22      C       3.9364010318     0.2229805497     1.3800848081
   23      O       2.7710834424    -0.6952818901     1.4027327601
   24      H       4.4341261293    -1.5968457585    -1.3947364513
   25      H       5.4724982332     0.2110433631    -0.2045200567
   26      H       2.8090427499    -2.6685784619     0.5773913164
   27      H       4.6488200061    -2.8199881825     2.2033082711
   28      H       5.6182177806    -2.3338449729     0.7808926437
   29      H       4.8522685836    -0.6540986868     3.1977974561
   30      H       6.0596862669    -0.2391466507     1.9381531491
   31      H       3.6790322973     1.1992099654     1.8328296780
   32      O      -2.8019942958    -0.7638045672    -1.9141101151
   33      C      -5.3163057539    -2.8145228011     0.1478533570
   34      C      -4.3516099790     1.8400618859     0.3640495340
   35      C      -3.6671344990     3.0807614425     1.0596627082
   36      C      -2.2023493486     2.9595607493     0.4957816688
   37      C      -2.3551291745     1.7501676884    -0.5108587579
   38      O      -3.7550846869     1.8483972354    -0.9876544617
   39      H      -3.5503065539     0.7525718466     2.1171414328
   40      H      -1.5413314366     0.2830827085     1.0074195171
   41      H      -6.3620782513    -2.5256258486    -0.0829785038
   42      H      -5.4569684334     1.8734029439     0.3076332240
   43      H      -4.1476806032     4.0157189582     0.7295668022
   44      H      -3.7124438808     3.0263909440     2.1589762215
   45      H      -1.8949915778     3.8719912023    -0.0389692966
   46      H      -1.4600710541     2.7451149914     1.2813782578
   47      H      -1.6564058876     1.7622410402    -1.3698088207
   48      H      -5.2930320424    -3.2948227299     1.1473380113
   49      H      -4.9489930564    -3.5232081118    -0.6170557852
   50      H       2.9536631367     4.5984482274    -0.0334299212
   51      H       2.3991370559     3.6567597670    -1.4768903699
   52      H       4.0991657533     4.2421781617    -1.3882355658
   53      H       1.3674019879    -3.2530510657    -0.4435914082
   54      H       0.0979018304    -3.1641448781    -1.7052064814
   55      H       0.1879042107    -1.7210130069     0.8938211585
   56      H       0.1036326741    -0.5499999031    -0.4630764238
 ----------------------------------------------------------------

    9   -1510.2265961951      6.29E-09 Convergence criterion met
 Total energy in the final basis set = -1510.22659620
 Final energy is   -1510.22659619505
 **  OPTIMIZATION CONVERGED  **

                    Orbital Energies (a.u.)
 --------------------------------------------------------------

 Alpha MOs
 -- Occupied --
-18.940 -18.931 -18.912 -18.908 -18.895 -18.894 -18.887 -18.885
-18.872 -18.866 -10.116 -10.100 -10.099 -10.098 -10.071 -10.071
-10.065 -10.065 -10.064 -10.062 -10.059 -10.057 -10.048 -10.039
-10.038 -10.033 -10.029 -10.027 -10.019 -10.018  -1.017  -1.013
 -1.005  -0.993  -0.980  -0.969  -0.942  -0.936  -0.931  -0.926
 -0.770  -0.760  -0.729  -0.720  -0.713  -0.703  -0.698  -0.661
 -0.661  -0.611  -0.599  -0.590  -0.552  -0.545  -0.544  -0.537
 -0.520  -0.512  -0.480  -0.477  -0.468  -0.460  -0.454  -0.444
 -0.441  -0.433  -0.428  -0.412  -0.411  -0.409  -0.408  -0.402
 -0.397  -0.383  -0.376  -0.372  -0.366  -0.364  -0.352  -0.350
 -0.345  -0.343  -0.335  -0.331  -0.329  -0.326  -0.319  -0.317
 -0.309  -0.309  -0.305  -0.304  -0.297  -0.294  -0.291  -0.282
 -0.273  -0.254  -0.252  -0.245  -0.242  -0.232  -0.221  -0.179
 -0.176  -0.172  -0.163  -0.157  -0.154  -0.146  -0.146  -0.143
 -0.139

          Ground-State Mulliken Net Atomic Charges

     Atom                 Charge (a.u.)
  ----------------------------------------
      1 O                    -0.216161
      2 C                     0.208476
      3 C                    -0.080268
      4 C                    -0.084065
      5 C                     0.228967
      6 O                    -0.195053
      7 C                    -0.059305
      8 C                    -0.047185
      9 O                    -0.193922
     10 C                     0.226033
     11 C                    -0.078467
     12 C                    -0.081725
     13 C                     0.214956
     14 O                    -0.218623
     15 O                    -0.163835
     16 O                    -0.173410
     17 O                    -0.177065
     18 C                    -0.127690
     19 C                     0.020317
     20 C                    -0.145232
     21 C                    -0.141327
     22 C                     0.021884
     23 O                    -0.197381
     24 H                     0.090346
     25 H                     0.082438
     26 H                     0.080143
     27 H                     0.078946
     28 H                     0.075416
     29 H                     0.078472
     30 H                     0.075217
     31 H                     0.094886
     32 O                    -0.179959
     33 C                    -0.124507
     34 C                     0.026153
     35 C                    -0.142234
     36 C                    -0.145559
     37 C                     0.025234
     38 O                    -0.183998
     39 H                     0.084659
     40 H                     0.079565
     41 H                     0.090820
     42 H                     0.085161
     43 H                     0.078220
     44 H                     0.073920
     45 H                     0.078158
     46 H                     0.073375
     47 H                     0.086466
     48 H                     0.090426
     49 H                     0.096644
     50 H                     0.088166
     51 H                     0.092763
     52 H                     0.088192
     53 H                     0.072454
     54 H                     0.100416
     55 H                     0.079691
     56 H                     0.089992
  ----------------------------------------
  Sum of atomic charges =     0.000000

                    Cartesian Multipole Moments
 -----------------------------------------------------------------
    Charge (ESU x 10^10)
                 0.0000
    Dipole Moment (Debye)
         X       3.3941      Y      -0.3054      Z       3.5650
       Tot       4.9318
    Quadrupole Moments (Debye-Ang)
        XX    -155.0781     XY      -3.4296     YY    -146.8315
        XZ       3.6238     YZ       1.7432     ZZ    -173.3593

 Total job time:  98.53s(wall), 4696.50s(cpu)
        *  Thank you very much for using Q-Chem.  Have a nice day.  *
