 Q-Chem 5.0, Q-Chem, Inc., Pleasanton, CA (2017)
 Q-Chem 5.0.1 for Intel X86 EM64T Linux

User input:
--------------------------------------------------------------
$molecule
0  1
O 5.0842728135 -2.3398062617 -0.4295136341
C 4.2371253564 -1.438461665 -0.6132259109
C 4.4947006841 0.1054195723 -0.5531576807
C 3.2753553644 1.062787915 -0.8183722425
C 1.8674701267 0.5992612994 -0.2630008402
O 2.0584600513 -0.2262824465 0.8982386356
C 1.2131313596 -1.40772649 1.1701760981
C -0.3034398067 -1.608269968 0.7072748586
O -0.6415639232 -0.8878887481 -0.5291715803
C -1.9538993471 -0.2891342167 -0.6105560255
C -3.1378044918 -0.9454507125 0.2067954908
C -4.188995516 0.0448555289 0.8739545177
C -4.0168578769 1.5817552968 0.6006120665
O -3.8848057973 2.4717902095 1.4714281386
O 2.9506114253 -1.6851200315 -1.2038789239
O -4.2223173586 1.8423403457 -0.7861380183
O -2.0863644135 0.6052904333 -1.4712741693
C -4.0677631685 3.2887038385 -1.0616556476
C -4.090276979 -1.7795602106 -0.7694131471
C -4.8816235034 -2.8243645172 0.1135896685
C -5.9078183503 -1.8805541838 0.8427845055
C -5.5388994167 -0.479111552 0.2112110513
O -5.1304375894 -0.8117975744 -1.1711039054
H -2.7401796071 -1.618051712 0.9807731535
H -4.19702017 -0.0864647463 1.9705045212
H -3.5844450559 -2.1987771906 -1.6609540214
H -5.3932561212 -3.5589615011 -0.5285545629
H -4.223342517 -3.3626829339 0.8138682649
H -6.9484146004 -2.1506618859 0.6024700245
H -5.7860102917 -1.8859943483 1.9377867051
H -6.3604120574 0.2629345771 0.2028843975
O 0.7828742224 1.0571506231 -0.6736049511
C 2.8057929033 -3.1213786131 -1.5348983056
C 5.1390536192 0.7379695617 0.7612878823
C 6.1236778072 1.8642972349 0.2611619609
C 5.0907726521 2.8929237991 -0.3374266606
C 3.7136269549 2.2691228679 0.1317441989
O 4.0534621624 1.5348506476 1.3767128517
H 5.2166797335 0.265177313 -1.3780909537
H 3.1642177193 1.3478663531 -1.8785842196
H 2.9993320619 -3.7715849734 -0.6576121849
H 5.556683243 0.0089825735 1.4824077902
H 6.6715301691 2.2980815361 1.1133569104
H 6.850508014 1.4985887012 -0.4819015902
H 5.2244580056 3.9003845349 0.0867856299
H 5.1528816522 2.9627625689 -1.4354889819
H 2.9093255597 3.005653792 0.3242971048
H 3.49794228 -3.4199483181 -2.3489751396
H 1.7611805327 -3.2503668468 -1.8734181145
H -4.3163633412 3.4208353345 -2.1304208313
H -3.0256797065 3.6227183335 -0.8814992498
H -4.7508997816 3.9004267964 -0.4372499415
H -0.4514676794 -2.7040128671 0.5721806281
H -0.9460000219 -1.2790592172 1.5481639461
H 1.2150928583 -1.4985786121 2.2776617537
H 1.779038409 -2.2760048123 0.769904547
$end

$rem
JOBTYPE                   OPT
METHOD                    B3LYP
DFT_D                     d3_op
BASIS                     STO-3G
GEOM_OPT_MAX_CYCLES       100
GEOM_OPT_TOL_GRADIENT     300
GEOM_OPT_TOL_DISPLACEMENT 1200
GEOM_OPT_TOL_ENERGY       100
SYMMETRY                  False
THRESH                    12
SCF_CONVERGENCE           8
MAX_SUB_FILE_NUM          128
MEM_STATIC                400
MEM_TOTAL                 4000
$end
--------------------------------------------------------------

   16   -1510.2232620998      5.54E-09 Convergence criterion met
 Total energy in the final basis set = -1510.22326210
   14   -1510.2275759441      4.75E-09 Convergence criterion met
 Total energy in the final basis set = -1510.22757594
   14   -1510.2324426375      4.81E-09 Convergence criterion met
 Total energy in the final basis set = -1510.23244264
   14   -1510.2377260529      4.42E-09 Convergence criterion met
 Total energy in the final basis set = -1510.23772605
   14   -1510.2280043670      7.62E-09 Convergence criterion met
 Total energy in the final basis set = -1510.22800437
   14   -1510.2358401471      4.70E-09 Convergence criterion met
 Total energy in the final basis set = -1510.23584015
   15   -1510.2255139606      5.47E-09 Convergence criterion met
 Total energy in the final basis set = -1510.22551396
   14   -1510.2442801623      5.31E-09 Convergence criterion met
   11   -1510.2904564441      3.22E-09 Convergence criterion met
 Total energy in the final basis set = -1510.29045644
   10   -1510.2904629732      8.04E-09 Convergence criterion met
 Total energy in the final basis set = -1510.29046297
   11   -1510.2904650030      8.20E-09 Convergence criterion met
 Total energy in the final basis set = -1510.29046500
   11   -1510.2904682280      3.71E-09 Convergence criterion met
 Total energy in the final basis set = -1510.29046823
   10   -1510.2904675998      4.72E-09 Convergence criterion met
 Total energy in the final basis set = -1510.29046760
    9   -1510.2904686049      4.45E-09 Convergence criterion met
 Total energy in the final basis set = -1510.29046860

             Standard Nuclear Orientation (Angstroms)
    I     Atom           X                Y                Z
 ----------------------------------------------------------------
    1      O       3.4708186558    -1.5564102664    -1.3428664891
    2      C       2.6708205113    -0.6036320457    -1.2361877754
    3      C       2.9923643851     0.8497001277    -0.7299036594
    4      C       2.5434659742     1.2477062048     0.7389148329
    5      C       1.9050408060     0.1503564231     1.6597031489
    6      O       1.8973446863    -1.1292843516     1.0193330456
    7      C       1.1927881074    -2.1237213026     1.8613575253
    8      C      -0.3513061785    -2.0399896504     1.6084463697
    9      O      -0.5409512085    -2.4981681817     0.2119909684
   10      C      -1.7841552890    -2.1590919382    -0.4030485936
   11      C      -2.9936282664    -1.6636644793     0.4805990977
   12      C      -3.0065319154    -0.0863904621     0.7108094908
   13      C      -1.7232612502     0.6083439548     0.1355408054
   14      O      -0.6474623159     0.7566198573     0.7675815205
   15      O       1.3184816330    -0.6329729382    -1.7190432320
   16      O      -1.9288214542     1.0047321144    -1.2071500751
   17      O      -1.8497124329    -2.3143285973    -1.6485892744
   18      C      -0.6563169039     1.5088234639    -1.7897720591
   19      C      -4.3529376814    -1.8493720177    -0.3195073947
   20      C      -5.5539386738    -1.6711494864     0.6908865687
   21      C      -5.5627509939    -0.1091617258     0.8830134171
   22      C      -4.3481746403     0.3150894028    -0.0341534926
   23      O      -4.4202728223    -0.6368375278    -1.1650368936
   24      H      -3.0066587628    -2.2079746823     1.4407522505
   25      H      -3.0535628864     0.1446912260     1.7901251475
   26      H      -4.3871305107    -2.7595737360    -0.9486190041
   27      H      -6.4922049417    -2.0283554156     0.2378377211
   28      H      -5.3879722768    -2.2154133324     1.6344296208
   29      H      -6.4982943468     0.3382381813     0.5113468103
   30      H      -5.4189748765     0.1932689115     1.9328129839
   31      H      -4.3704617099     1.3583657786    -0.4031479764
   32      O       1.4947601816     0.3413368240     2.8255765982
   33      C       1.0003028485    -1.9345176657    -2.3556716385
   34      C       4.5632499229     1.0775444478    -0.6355677034
   35      C       4.8415395614     2.6293399315    -0.7110746044
   36      C       4.3510663470     3.0898669012     0.7113035704
   37      C       3.9370624638     1.7077395120     1.3557646389
   38      O       4.8895160672     0.7402480364     0.7687142537
   39      H       2.5363947431     1.5521182082    -1.4503800123
   40      H       1.8243152562     2.0864428165     0.7110135817
   41      H       1.5888386891    -2.7433200650    -1.8823601801
   42      H       5.1511144133     0.4451068234    -1.3286786318
   43      H       5.9177076028     2.8210611712    -0.8484372726
   44      H       4.2879755938     3.1135216633    -1.5313200159
   45      H       5.1635590839     3.5576527406     1.2895712039
   46      H       3.5030663629     3.7914559484     0.6616542111
   47      H       3.9716873569     1.6727787754     2.4622113283
   48      H       1.2534651523    -1.8945354927    -3.4349831841
   49      H      -0.0927920831    -2.1158197012    -2.2176903086
   50      H      -0.9018830692     1.7903349161    -2.8294906831
   51      H       0.1316067584     0.7110031058    -1.7732935109
   52      H      -0.2972154476     2.4020032625    -1.2399535675
   53      H      -0.8965717245    -2.6899413548     2.3282533906
   54      H      -0.6621188924    -0.9753988194     1.7202078267
   55      H       1.3998263151    -1.9354953653     2.9370761254
   56      H       1.5834521821    -3.1164641058     1.5601893443
 ----------------------------------------------------------------

    9   -1510.2904688606      3.20E-09 Convergence criterion met
 Total energy in the final basis set = -1510.29046886
 Final energy is   -1510.29046886055
 **  OPTIMIZATION CONVERGED  **

                    Orbital Energies (a.u.)
 --------------------------------------------------------------

 Alpha MOs
 -- Occupied --
-18.943 -18.940 -18.937 -18.923 -18.892 -18.886 -18.884 -18.877
-18.869 -18.862 -10.109 -10.106 -10.100 -10.093 -10.077 -10.073
-10.065 -10.064 -10.057 -10.054 -10.047 -10.045 -10.043 -10.036
-10.032 -10.030 -10.025 -10.024 -10.018 -10.017  -1.020  -1.014
 -1.010  -0.996  -0.974  -0.967  -0.945  -0.940  -0.933  -0.924
 -0.769  -0.759  -0.728  -0.724  -0.711  -0.709  -0.699  -0.655
 -0.643  -0.609  -0.605  -0.585  -0.556  -0.543  -0.539  -0.534
 -0.517  -0.507  -0.494  -0.479  -0.468  -0.456  -0.456  -0.441
 -0.438  -0.434  -0.428  -0.416  -0.412  -0.408  -0.403  -0.396
 -0.390  -0.387  -0.375  -0.369  -0.360  -0.359  -0.352  -0.348
 -0.340  -0.336  -0.335  -0.330  -0.329  -0.323  -0.318  -0.313
 -0.311  -0.307  -0.305  -0.303  -0.295  -0.292  -0.288  -0.282
 -0.267  -0.260  -0.247  -0.238  -0.237  -0.232  -0.231  -0.182
 -0.178  -0.177  -0.166  -0.158  -0.153  -0.152  -0.147  -0.141
 -0.141

          Ground-State Mulliken Net Atomic Charges

     Atom                 Charge (a.u.)
  ----------------------------------------
      1 O                    -0.214855
      2 C                     0.224817
      3 C                    -0.080980
      4 C                    -0.076008
      5 C                     0.220727
      6 O                    -0.165374
      7 C                    -0.043994
      8 C                    -0.057383
      9 O                    -0.169621
     10 C                     0.210958
     11 C                    -0.083661
     12 C                    -0.081449
     13 C                     0.206561
     14 O                    -0.224358
     15 O                    -0.179346
     16 O                    -0.160278
     17 O                    -0.198420
     18 C                    -0.148271
     19 C                     0.027295
     20 C                    -0.144587
     21 C                    -0.144038
     22 C                     0.026725
     23 O                    -0.181842
     24 H                     0.080076
     25 H                     0.083632
     26 H                     0.089330
     27 H                     0.079652
     28 H                     0.072399
     29 H                     0.079273
     30 H                     0.073097
     31 H                     0.088675
     32 O                    -0.219278
     33 C                    -0.144995
     34 C                     0.025037
     35 C                    -0.143959
     36 C                    -0.144211
     37 C                     0.024759
     38 O                    -0.189561
     39 H                     0.081344
     40 H                     0.089805
     41 H                     0.091429
     42 H                     0.088729
     43 H                     0.077615
     44 H                     0.072289
     45 H                     0.077718
     46 H                     0.073001
     47 H                     0.085143
     48 H                     0.073331
     49 H                     0.112865
     50 H                     0.085267
     51 H                     0.119757
     52 H                     0.075848
     53 H                     0.078035
     54 H                     0.106438
     55 H                     0.098062
     56 H                     0.096784
  ----------------------------------------
  Sum of atomic charges =     0.000000

                    Cartesian Multipole Moments
 -----------------------------------------------------------------
    Charge (ESU x 10^10)
                -0.0000
    Dipole Moment (Debye)
         X      -2.5679      Y       1.3386      Z       1.9206
       Tot       3.4749
    Quadrupole Moments (Debye-Ang)
        XX    -161.2591     XY      10.5596     YY    -152.4051
        XZ     -12.3947     YZ      -9.9583     ZZ    -162.5798

 Total job time:  171.14s(wall), 8168.54s(cpu)
        *  Thank you very much for using Q-Chem.  Have a nice day.  *
