 Q-Chem 5.0, Q-Chem, Inc., Pleasanton, CA (2017)
 Q-Chem 5.0.1 for Intel X86 EM64T Linux

User input:
--------------------------------------------------------------
$molecule
0  1
O -3.94934 -3.66094 2.70899
C -3.26408 -4.56952 2.26188
C -3.36658 -6.02376 2.66595
C -2.40867 -7.01244 1.98128
C -1.33566 -6.41165 1.10049
O -1.01713 -5.1602 1.54529
C -0.7597 -4.2341 0.48448
C -0.2283 -4.97193 -0.74
O -0.73438 -6.31595 -0.75937
C 0.13737 -7.26112 -1.19046
C 1.15624 -6.72088 -2.16551
C 2.56986 -7.30096 -2.01234
C 2.68023 -8.56082 -1.17731
O 3.38592 -8.69606 -0.18823
O -3.41697 -4.6013 0.90068
O 2.00461 -9.66216 -1.61044
O -0.15826 -8.44324 -1.1129
C 2.00948 -10.88688 -0.97511
C 0.86114 -7.178 -3.62845
C 1.48888 -6.20531 -4.63304
C 2.9637 -6.47373 -4.39263
C 2.86789 -7.69829 -3.47095
O 1.65947 -8.31473 -3.84272
H 1.28928 -5.63722 -2.30757
H 3.27811 -6.55739 -1.58321
H -0.22319 -7.29982 -3.84337
H 1.21506 -6.58363 -5.64475
H 1.18531 -5.13884 -4.55778
H 3.43812 -6.71702 -5.36868
H 3.51872 -5.65385 -3.88699
H 3.78097 -8.32924 -3.54997
O -0.37664 -7.18624 1.25496
C -4.13167 -3.69915 0.12164
C -3.0494 -6.22642 4.15557
C -3.74982 -7.48186 4.66386
C -2.93788 -8.54893 3.96846
C -1.8631 -7.68589 3.29291
O -1.69765 -6.60019 4.16863
H -4.42612 -6.31224 2.47093
H -2.9394 -7.76605 1.35772
H -3.7328 -2.66913 0.25048
H -3.32155 -5.35391 4.78953
H -3.55794 -7.54341 5.75891
H -4.84517 -7.52361 4.4799
H -2.48521 -9.2023 4.74749
H -3.49299 -9.16747 3.23017
H -0.96601 -8.32587 3.15099
H -5.20581 -3.7158 0.40463
H -4.04037 -3.98825 -0.94528
H 1.37449 -11.59462 -1.54617
H 1.5966 -10.78517 0.05149
H 3.04326 -11.29052 -0.92724
H -0.40265 -4.39677 -1.67696
H 0.84739 -4.98914 -0.43287
H -0.04169 -3.45308 0.82041
H -1.61179 -3.62961 0.1823
$end

$opt
CONSTRAINT
tors           1           2           3           4    -180.000
tors           3           4           5           6     +28.421
tors           4           5           6           7    -142.105
tors           5           6           7           8     -28.421
tors           6           7           8           9     +28.421
tors           7           8           9          10    -142.105
tors           8           9          10          11     -28.421
tors           9          10          11          12    +142.105
tors          11          12          13          14    -123.158
ENDCONSTRAINT
$end

$rem
JOBTYPE                   OPT
METHOD                    B3LYP
DFT_D                     d3_op
BASIS                     STO-3G
GEOM_OPT_MAX_CYCLES       100
GEOM_OPT_TOL_GRADIENT     300
GEOM_OPT_TOL_DISPLACEMENT 1200
GEOM_OPT_TOL_ENERGY       100
SYMMETRY                  False
THRESH                    12
SCF_CONVERGENCE           8
MAX_SUB_FILE_NUM          128
MEM_STATIC                400
MEM_TOTAL                 4000
$end
--------------------------------------------------------------

   17   -1509.9472951271      3.79E-09 Convergence criterion met
 Total energy in the final basis set = -1509.94729513
   16   -1510.0322677186      2.34E-09 Convergence criterion met
 Total energy in the final basis set = -1510.03226772
   15   -1510.1008633886      2.92E-09 Convergence criterion met
 Total energy in the final basis set = -1510.10086339
   15   -1510.1412060820      1.87E-09 Convergence criterion met
 Total energy in the final basis set = -1510.14120608
   14   -1510.1665583558      9.07E-09 Convergence criterion met
 Total energy in the final basis set = -1510.16655836
   14   -1510.1835290841      6.56E-09 Convergence criterion met
 Total energy in the final basis set = -1510.18352908
   14   -1510.1955717496      5.17E-09 Convergence criterion met
 Total energy in the final basis set = -1510.19557175
   13   -1510.2046247680      6.34E-09 Convergence criterion met
   11   -1510.2232022971      3.79E-09 Convergence criterion met
 Total energy in the final basis set = -1510.22320230
   10   -1510.2232110185      9.84E-09 Convergence criterion met
 Total energy in the final basis set = -1510.22321102
    9   -1510.2232191222      9.97E-09 Convergence criterion met
 Total energy in the final basis set = -1510.22321912
    9   -1510.2232254535      9.72E-09 Convergence criterion met
 Total energy in the final basis set = -1510.22322545
    9   -1510.2232288721      8.36E-09 Convergence criterion met
 Total energy in the final basis set = -1510.22322887
    9   -1510.2232301522      5.00E-09 Convergence criterion met
 Total energy in the final basis set = -1510.22323015

             Standard Nuclear Orientation (Angstroms)
    I     Atom           X                Y                Z
 ----------------------------------------------------------------
    1      O       5.0842728135    -2.3398062617    -0.4295136341
    2      C       4.2371253564    -1.4384616650    -0.6132259109
    3      C       4.4947006841     0.1054195723    -0.5531576807
    4      C       3.2753553644     1.0627879150    -0.8183722425
    5      C       1.8674701267     0.5992612994    -0.2630008402
    6      O       2.0584600513    -0.2262824465     0.8982386356
    7      C       1.2131313596    -1.4077264900     1.1701760981
    8      C      -0.3034398067    -1.6082699680     0.7072748586
    9      O      -0.6415639232    -0.8878887481    -0.5291715803
   10      C      -1.9538993471    -0.2891342167    -0.6105560255
   11      C      -3.1378044918    -0.9454507125     0.2067954908
   12      C      -4.1889955160     0.0448555289     0.8739545177
   13      C      -4.0168578769     1.5817552968     0.6006120665
   14      O      -3.8848057973     2.4717902095     1.4714281386
   15      O       2.9506114253    -1.6851200315    -1.2038789239
   16      O      -4.2223173586     1.8423403457    -0.7861380183
   17      O      -2.0863644135     0.6052904333    -1.4712741693
   18      C      -4.0677631685     3.2887038385    -1.0616556476
   19      C      -4.0902769790    -1.7795602106    -0.7694131471
   20      C      -4.8816235034    -2.8243645172     0.1135896685
   21      C      -5.9078183503    -1.8805541838     0.8427845055
   22      C      -5.5388994167    -0.4791115520     0.2112110513
   23      O      -5.1304375894    -0.8117975744    -1.1711039054
   24      H      -2.7401796071    -1.6180517120     0.9807731535
   25      H      -4.1970201700    -0.0864647463     1.9705045212
   26      H      -3.5844450559    -2.1987771906    -1.6609540214
   27      H      -5.3932561212    -3.5589615011    -0.5285545629
   28      H      -4.2233425170    -3.3626829339     0.8138682649
   29      H      -6.9484146004    -2.1506618859     0.6024700245
   30      H      -5.7860102917    -1.8859943483     1.9377867051
   31      H      -6.3604120574     0.2629345771     0.2028843975
   32      O       0.7828742224     1.0571506231    -0.6736049511
   33      C       2.8057929033    -3.1213786131    -1.5348983056
   34      C       5.1390536192     0.7379695617     0.7612878823
   35      C       6.1236778072     1.8642972349     0.2611619609
   36      C       5.0907726521     2.8929237991    -0.3374266606
   37      C       3.7136269549     2.2691228679     0.1317441989
   38      O       4.0534621624     1.5348506476     1.3767128517
   39      H       5.2166797335     0.2651773130    -1.3780909537
   40      H       3.1642177193     1.3478663531    -1.8785842196
   41      H       2.9993320619    -3.7715849734    -0.6576121849
   42      H       5.5566832430     0.0089825735     1.4824077902
   43      H       6.6715301691     2.2980815361     1.1133569104
   44      H       6.8505080140     1.4985887012    -0.4819015902
   45      H       5.2244580056     3.9003845349     0.0867856299
   46      H       5.1528816522     2.9627625689    -1.4354889819
   47      H       2.9093255597     3.0056537920     0.3242971048
   48      H       3.4979422800    -3.4199483181    -2.3489751396
   49      H       1.7611805327    -3.2503668468    -1.8734181145
   50      H      -4.3163633412     3.4208353345    -2.1304208313
   51      H      -3.0256797065     3.6227183335    -0.8814992498
   52      H      -4.7508997816     3.9004267964    -0.4372499415
   53      H      -0.4514676794    -2.7040128671     0.5721806281
   54      H      -0.9460000219    -1.2790592172     1.5481639461
   55      H       1.2150928583    -1.4985786121     2.2776617537
   56      H       1.7790384090    -2.2760048123     0.7699045470
 ----------------------------------------------------------------

    9   -1510.2232305940      4.13E-09 Convergence criterion met
 Total energy in the final basis set = -1510.22323059
 Final energy is   -1510.22323059397
 **  OPTIMIZATION CONVERGED  **

                    Orbital Energies (a.u.)
 --------------------------------------------------------------

 Alpha MOs
 -- Occupied --
-18.936 -18.927 -18.923 -18.911 -18.891 -18.884 -18.874 -18.874
-18.874 -18.863 -10.101 -10.095 -10.095 -10.090 -10.079 -10.073
-10.068 -10.063 -10.061 -10.058 -10.056 -10.052 -10.038 -10.036
-10.036 -10.032 -10.023 -10.022 -10.018 -10.017  -1.013  -1.004
 -0.999  -0.989  -0.972  -0.966  -0.937  -0.931  -0.927  -0.924
 -0.762  -0.761  -0.724  -0.722  -0.710  -0.706  -0.699  -0.664
 -0.651  -0.612  -0.600  -0.588  -0.547  -0.544  -0.540  -0.534
 -0.514  -0.507  -0.482  -0.479  -0.464  -0.463  -0.442  -0.438
 -0.435  -0.431  -0.426  -0.414  -0.409  -0.407  -0.401  -0.400
 -0.399  -0.382  -0.373  -0.368  -0.356  -0.352  -0.347  -0.345
 -0.340  -0.335  -0.332  -0.329  -0.327  -0.321  -0.316  -0.312
 -0.309  -0.308  -0.304  -0.296  -0.292  -0.288  -0.280  -0.275
 -0.273  -0.252  -0.242  -0.238  -0.235  -0.230  -0.221  -0.179
 -0.174  -0.167  -0.157  -0.154  -0.145  -0.143  -0.141  -0.137
 -0.128

          Ground-State Mulliken Net Atomic Charges

     Atom                 Charge (a.u.)
  ----------------------------------------
      1 O                    -0.216602
      2 C                     0.210206
      3 C                    -0.078789
      4 C                    -0.075198
      5 C                     0.225699
      6 O                    -0.181667
      7 C                    -0.042994
      8 C                    -0.047657
      9 O                    -0.169930
     10 C                     0.210541
     11 C                    -0.085036
     12 C                    -0.079181
     13 C                     0.206176
     14 O                    -0.218210
     15 O                    -0.169244
     16 O                    -0.154651
     17 O                    -0.182693
     18 C                    -0.125392
     19 C                     0.026798
     20 C                    -0.143806
     21 C                    -0.144764
     22 C                     0.027764
     23 O                    -0.180691
     24 H                     0.075423
     25 H                     0.081830
     26 H                     0.084018
     27 H                     0.078423
     28 H                     0.070695
     29 H                     0.078533
     30 H                     0.073336
     31 H                     0.084694
     32 O                    -0.189285
     33 C                    -0.129409
     34 C                     0.026810
     35 C                    -0.140985
     36 C                    -0.146041
     37 C                     0.023340
     38 O                    -0.187467
     39 H                     0.083607
     40 H                     0.087455
     41 H                     0.087894
     42 H                     0.086672
     43 H                     0.077520
     44 H                     0.073278
     45 H                     0.078190
     46 H                     0.073462
     47 H                     0.083902
     48 H                     0.088407
     49 H                     0.092130
     50 H                     0.092457
     51 H                     0.091450
     52 H                     0.086218
     53 H                     0.076956
     54 H                     0.080565
     55 H                     0.086380
     56 H                     0.078866
  ----------------------------------------
  Sum of atomic charges =     0.000000

                    Cartesian Multipole Moments
 -----------------------------------------------------------------
    Charge (ESU x 10^10)
                 0.0000
    Dipole Moment (Debye)
         X       0.2057      Y      -2.7958      Z       0.7166
       Tot       2.8935
    Quadrupole Moments (Debye-Ang)
        XX    -154.3250     XY      12.4187     YY    -149.3604
        XZ     -11.6683     YZ      -5.5975     ZZ    -163.1953

 Total job time:  81.93s(wall), 3901.66s(cpu)
        *  Thank you very much for using Q-Chem.  Have a nice day.  *
