 Q-Chem 5.0, Q-Chem, Inc., Pleasanton, CA (2017)
 Q-Chem 5.0.1 for Intel X86 EM64T Linux

User input:
--------------------------------------------------------------
$molecule
0  1
O -3.94934 -3.66094 2.70899
C -3.26408 -4.56952 2.26188
C -3.36658 -6.02376 2.66595
C -4.01198 -6.33097 4.02717
C -4.64322 -5.16363 4.75308
O -4.43078 -4.01121 4.05149
C -5.45183 -3.02948 4.25863
C -6.7473 -3.70329 4.69894
O -7.54883 -2.77865 5.45091
C -8.86491 -3.09156 5.54659
C -9.53371 -3.24011 4.20074
C -10.83323 -4.0583 4.21046
C -11.45393 -4.29649 5.57233
O -12.27516 -5.16311 5.83522
O -2.455 -4.31092 1.20123
O -11.5646 -3.17956 6.35467
O -9.22285 -3.56108 6.61247
C -12.28029 -3.09692 7.53296
C -10.06064 -1.89168 3.65037
C -10.1871 -1.95907 2.12701
C -11.3433 -2.93159 1.98542
C -11.75665 -3.0787 3.45637
O -11.41182 -1.84243 4.0336
H -8.93541 -3.66128 3.3917
H -10.73283 -5.04925 3.7139
H -9.43706 -1.02005 3.94717
H -10.52503 -0.95114 1.79398
H -9.2667 -2.23331 1.56781
H -12.1397 -2.44226 1.38233
H -11.08187 -3.91989 1.54866
H -12.82728 -3.37062 3.53752
O -4.67183 -5.16077 5.9793
C -2.28444 -3.06222 0.64111
C -4.30779 -6.78867 1.72184
C -4.017 -8.2878 1.79179
C -4.60246 -8.62464 3.14695
C -5.15108 -7.25692 3.56207
O -5.56322 -6.68202 2.34536
H -2.33427 -6.43812 2.61935
H -3.32513 -6.85284 4.73129
H -1.87337 -2.35781 1.39564
H -4.25092 -6.43367 0.66916
H -4.62632 -8.79265 1.00844
H -2.94609 -8.55205 1.65654
H -5.4484 -9.33244 2.99759
H -3.88578 -9.04366 3.88586
H -5.94236 -7.37968 4.33513
H -3.25424 -2.67851 0.25809
H -1.5707 -3.13719 -0.2047
H -12.17735 -2.07388 7.94901
H -11.88363 -3.82607 8.27153
H -13.35667 -3.29813 7.3449
H -7.11368 -4.15617 3.77122
H -6.75787 -4.55776 5.39819
H -5.65193 -2.343 3.4013
H -5.09392 -2.39335 5.09768
$end

$opt
CONSTRAINT
tors           1           2           3           4     -21.488
tors           3           4           5           6      -3.658
tors           4           5           6           7    +151.889
tors           5           6           7           8     -23.948
tors           6           7           8           9    +154.695
tors           7           8           9          10    +160.493
tors           8           9          10          11     -57.212
tors           9          10          11          12    +159.131
tors          11          12          13          14    -161.340
ENDCONSTRAINT
$end

$rem
JOBTYPE                   OPT
METHOD                    B3LYP
DFT_D                     d3_op
BASIS                     STO-3G
GEOM_OPT_MAX_CYCLES       100
GEOM_OPT_TOL_GRADIENT     300
GEOM_OPT_TOL_DISPLACEMENT 1200
GEOM_OPT_TOL_ENERGY       100
SYMMETRY                  False
THRESH                    12
SCF_CONVERGENCE           8
MAX_SUB_FILE_NUM          128
MEM_STATIC                400
MEM_TOTAL                 4000
$end
--------------------------------------------------------------

   19   -1509.8004483850      7.26E-09 Convergence criterion met
 Total energy in the final basis set = -1509.80044839
   15   -1509.9370865897      8.73E-09 Convergence criterion met
 Total energy in the final basis set = -1509.93708659
   15   -1510.0361193396      4.20E-09 Convergence criterion met
 Total energy in the final basis set = -1510.03611934
   15   -1510.1038884287      2.97E-09 Convergence criterion met
 Total energy in the final basis set = -1510.10388843
   13   -1510.1483066568      8.13E-09 Convergence criterion met
 Total energy in the final basis set = -1510.14830666
   14   -1510.1769573975      5.67E-09 Convergence criterion met
 Total energy in the final basis set = -1510.17695740
   14   -1510.1950293937      4.08E-09 Convergence criterion met
 Total energy in the final basis set = -1510.19502939
   13   -1510.2075124081      9.47E-09 Convergence criterion met
   12   -1510.2321667541      8.92E-09 Convergence criterion met
 Total energy in the final basis set = -1510.23216675
   12   -1510.2324528702      6.28E-09 Convergence criterion met
 Total energy in the final basis set = -1510.23245287
   12   -1510.2326369606      4.39E-09 Convergence criterion met
 Total energy in the final basis set = -1510.23263696
   11   -1510.2326932958      7.93E-09 Convergence criterion met
 Total energy in the final basis set = -1510.23269330
   11   -1510.2327362107      6.18E-09 Convergence criterion met
 Total energy in the final basis set = -1510.23273621
   11   -1510.2327495415      4.66E-09 Convergence criterion met
 Total energy in the final basis set = -1510.23274954

             Standard Nuclear Orientation (Angstroms)
    I     Atom           X                Y                Z
 ----------------------------------------------------------------
    1      O      -2.6920486224    -1.2614992524    -0.6507791454
    2      C      -3.9021291426    -1.1145836873    -0.3812844869
    3      C      -4.7192975030     0.2082888739    -0.1357271050
    4      C      -3.8766918374     1.4740806367     0.2793143771
    5      C      -2.5892280117     1.3206245523     1.1703216460
    6      O      -2.3989577289    -0.0313759712     1.5682983503
    7      C      -1.0001602291    -0.4663392500     1.8279611769
    8      C       0.1616163601     0.3332062520     1.1289375068
    9      O       1.3446959311     0.1341625736     1.9924619638
   10      C       2.6251576454     0.3927810996     1.3494719642
   11      C       2.8969381591    -0.4638583318     0.0510651026
   12      C       3.9631659227     0.0214025588    -1.0123676567
   13      C       5.1831772771     0.9001643261    -0.5467175391
   14      O       5.8893227934     1.6077459892    -1.3015955835
   15      O      -4.8342072174    -2.2026455190    -0.2914132597
   16      O       5.5534061918     0.5554750066     0.7857861760
   17      O       3.4266474510     1.1271751272     1.9612484066
   18      C       6.7854916668     1.2779156865     1.1747304462
   19      C       3.3762923594    -1.9645099731     0.3351416490
   20      C       2.7241022397    -2.8587760822    -0.7884327944
   21      C       3.5081943436    -2.3371765953    -2.0508407119
   22      C       4.5952324409    -1.3997693363    -1.3834412256
   23      O       4.8064280154    -1.9856290543    -0.0382096256
   24      H       1.9379497057    -0.5275540045    -0.4857144510
   25      H       3.4857469387     0.5129348602    -1.8785164786
   26      H       3.2349058843    -2.3155940778     1.3757145909
   27      H       2.9352917635    -3.9235713865    -0.5980245946
   28      H       1.6339470841    -2.7207241303    -0.8684366295
   29      H       3.9910965463    -3.1602928116    -2.6007459856
   30      H       2.8615674102    -1.7812269151    -2.7491420929
   31      H       5.5545415775    -1.3354862943    -1.9331389656
   32      O      -1.8336975406     2.2813425128     1.4530635480
   33      C      -4.1470480164    -3.4823294445    -0.5783423265
   34      C      -5.1542261438     0.6770510524    -1.5988212967
   35      C      -6.0310549091     1.9925255650    -1.5436985346
   36      C      -4.9264109586     3.1010719336    -1.3625486454
   37      C      -3.6569070191     2.1956922940    -1.1300242340
   38      O      -3.8459855435     1.1285208371    -2.1381107452
   39      H      -5.5668356154     0.0067116307     0.5416385943
   40      H      -4.5469439026     2.1239818432     0.8743023178
   41      H      -3.3392176335    -3.6858559251     0.1540970638
   42      H      -5.5715193730    -0.1361076457    -2.2243945470
   43      H      -6.5926504277     2.1233767712    -2.4821046919
   44      H      -6.7469423166     1.9691076895    -0.7061135371
   45      H      -4.8051824460     3.7003330164    -2.2795404035
   46      H      -5.1281759181     3.7779190422    -0.5171556240
   47      H      -2.6757005904     2.6932183024    -1.2552475125
   48      H      -3.7072690035    -3.4923800453    -1.5967459776
   49      H      -4.9201273115    -4.2690042440    -0.5022035528
   50      H       7.0265367899     0.9333812630     2.1968845428
   51      H       6.6282080587     2.3756689527     1.1817899512
   52      H       7.6282301816     1.0452541209     0.4917830704
   53      H       0.2850879820    -0.0201689327     0.0855830300
   54      H      -0.1206281616     1.4110655234     1.1175182549
   55      H      -0.9817776474    -1.5296714555     1.5114331704
   56      H      -0.8119819980    -0.4272926916     2.9253557739
 ----------------------------------------------------------------

   10   -1510.2327490443      6.67E-09 Convergence criterion met
 Total energy in the final basis set = -1510.23274904
 Final energy is   -1510.23274904429
 **  OPTIMIZATION CONVERGED  **

                    Orbital Energies (a.u.)
 --------------------------------------------------------------

 Alpha MOs
 -- Occupied --
-18.937 -18.934 -18.928 -18.909 -18.893 -18.890 -18.889 -18.882
-18.875 -18.860 -10.111 -10.101 -10.101 -10.090 -10.076 -10.067
-10.066 -10.065 -10.065 -10.062 -10.061 -10.053 -10.043 -10.041
-10.037 -10.035 -10.026 -10.024 -10.023 -10.022  -1.017  -1.009
 -1.004  -0.997  -0.976  -0.972  -0.945  -0.935  -0.932  -0.923
 -0.768  -0.763  -0.729  -0.722  -0.715  -0.705  -0.699  -0.666
 -0.653  -0.613  -0.601  -0.594  -0.548  -0.545  -0.542  -0.539
 -0.518  -0.513  -0.482  -0.475  -0.467  -0.457  -0.450  -0.448
 -0.436  -0.434  -0.429  -0.415  -0.412  -0.409  -0.402  -0.399
 -0.391  -0.385  -0.379  -0.367  -0.365  -0.361  -0.351  -0.349
 -0.344  -0.336  -0.335  -0.333  -0.332  -0.326  -0.320  -0.318
 -0.314  -0.310  -0.309  -0.300  -0.297  -0.292  -0.288  -0.275
 -0.268  -0.257  -0.248  -0.243  -0.238  -0.237  -0.232  -0.186
 -0.176  -0.171  -0.167  -0.154  -0.150  -0.148  -0.146  -0.141
 -0.137

          Ground-State Mulliken Net Atomic Charges

     Atom                 Charge (a.u.)
  ----------------------------------------
      1 O                    -0.215494
      2 C                     0.217993
      3 C                    -0.076180
      4 C                    -0.080855
      5 C                     0.215805
      6 O                    -0.173285
      7 C                    -0.044148
      8 C                    -0.059944
      9 O                    -0.188374
     10 C                     0.212320
     11 C                    -0.085375
     12 C                    -0.077259
     13 C                     0.207883
     14 O                    -0.221075
     15 O                    -0.173092
     16 O                    -0.154740
     17 O                    -0.176555
     18 C                    -0.124860
     19 C                     0.026691
     20 C                    -0.141802
     21 C                    -0.145625
     22 C                     0.024884
     23 O                    -0.185102
     24 H                     0.077458
     25 H                     0.084167
     26 H                     0.085923
     27 H                     0.078169
     28 H                     0.073334
     29 H                     0.078878
     30 H                     0.074465
     31 H                     0.084205
     32 O                    -0.212475
     33 C                    -0.128671
     34 C                     0.023863
     35 C                    -0.145626
     36 C                    -0.140656
     37 C                     0.025958
     38 O                    -0.190145
     39 H                     0.088736
     40 H                     0.084131
     41 H                     0.087161
     42 H                     0.083252
     43 H                     0.079258
     44 H                     0.074772
     45 H                     0.078996
     46 H                     0.075782
     47 H                     0.087544
     48 H                     0.087686
     49 H                     0.090074
     50 H                     0.092020
     51 H                     0.089018
     52 H                     0.087151
     53 H                     0.077980
     54 H                     0.102517
     55 H                     0.091783
     56 H                     0.091481
  ----------------------------------------
  Sum of atomic charges =     0.000000

                    Cartesian Multipole Moments
 -----------------------------------------------------------------
    Charge (ESU x 10^10)
                 0.0000
    Dipole Moment (Debye)
         X      -4.0437      Y      -2.0624      Z      -1.4126
       Tot       4.7540
    Quadrupole Moments (Debye-Ang)
        XX    -154.6835     XY      -6.1415     YY    -155.7664
        XZ      -0.5782     YZ       0.4389     ZZ    -165.1920

 Total job time:  89.15s(wall), 4246.08s(cpu)
        *  Thank you very much for using Q-Chem.  Have a nice day.  *
