 Q-Chem 5.0, Q-Chem, Inc., Pleasanton, CA (2017)
 Q-Chem 5.0.1 for Intel X86 EM64T Linux

User input:
--------------------------------------------------------------
$molecule
0  1
O -2.6920486224 -1.2614992524 -0.6507791454
C -3.9021291426 -1.1145836873 -0.3812844869
C -4.719297503 0.2082888739 -0.135727105
C -3.8766918374 1.4740806367 0.2793143771
C -2.5892280117 1.3206245523 1.170321646
O -2.3989577289 -0.0313759712 1.5682983503
C -1.0001602291 -0.46633925 1.8279611769
C 0.1616163601 0.333206252 1.1289375068
O 1.3446959311 0.1341625736 1.9924619638
C 2.6251576454 0.3927810996 1.3494719642
C 2.8969381591 -0.4638583318 0.0510651026
C 3.9631659227 0.0214025588 -1.0123676567
C 5.1831772771 0.9001643261 -0.5467175391
O 5.8893227934 1.6077459892 -1.3015955835
O -4.8342072174 -2.202645519 -0.2914132597
O 5.5534061918 0.5554750066 0.785786176
O 3.426647451 1.1271751272 1.9612484066
C 6.7854916668 1.2779156865 1.1747304462
C 3.3762923594 -1.9645099731 0.335141649
C 2.7241022397 -2.8587760822 -0.7884327944
C 3.5081943436 -2.3371765953 -2.0508407119
C 4.5952324409 -1.3997693363 -1.3834412256
O 4.8064280154 -1.9856290543 -0.0382096256
H 1.9379497057 -0.5275540045 -0.485714451
H 3.4857469387 0.5129348602 -1.8785164786
H 3.2349058843 -2.3155940778 1.3757145909
H 2.9352917635 -3.9235713865 -0.5980245946
H 1.6339470841 -2.7207241303 -0.8684366295
H 3.9910965463 -3.1602928116 -2.6007459856
H 2.8615674102 -1.7812269151 -2.7491420929
H 5.5545415775 -1.3354862943 -1.9331389656
O -1.8336975406 2.2813425128 1.453063548
C -4.1470480164 -3.4823294445 -0.5783423265
C -5.1542261438 0.6770510524 -1.5988212967
C -6.0310549091 1.992525565 -1.5436985346
C -4.9264109586 3.1010719336 -1.3625486454
C -3.6569070191 2.195692294 -1.130024234
O -3.8459855435 1.1285208371 -2.1381107452
H -5.5668356154 0.0067116307 0.5416385943
H -4.5469439026 2.1239818432 0.8743023178
H -3.3392176335 -3.6858559251 0.1540970638
H -5.571519373 -0.1361076457 -2.224394547
H -6.5926504277 2.1233767712 -2.4821046919
H -6.7469423166 1.9691076895 -0.7061135371
H -4.805182446 3.7003330164 -2.2795404035
H -5.1281759181 3.7779190422 -0.517155624
H -2.6757005904 2.6932183024 -1.2552475125
H -3.7072690035 -3.4923800453 -1.5967459776
H -4.9201273115 -4.269004244 -0.5022035528
H 7.0265367899 0.933381263 2.1968845428
H 6.6282080587 2.3756689527 1.1817899512
H 7.6282301816 1.0452541209 0.4917830704
H 0.285087982 -0.0201689327 0.08558303
H -0.1206281616 1.4110655234 1.1175182549
H -0.9817776474 -1.5296714555 1.5114331704
H -0.811981998 -0.4272926916 2.9253557739
$end

$rem
JOBTYPE                   OPT
METHOD                    B3LYP
DFT_D                     d3_op
BASIS                     STO-3G
GEOM_OPT_MAX_CYCLES       100
GEOM_OPT_TOL_GRADIENT     300
GEOM_OPT_TOL_DISPLACEMENT 1200
GEOM_OPT_TOL_ENERGY       100
SYMMETRY                  False
THRESH                    12
SCF_CONVERGENCE           8
MAX_SUB_FILE_NUM          128
MEM_STATIC                400
MEM_TOTAL                 4000
$end
--------------------------------------------------------------

   16   -1510.2325916131      5.24E-09 Convergence criterion met
 Total energy in the final basis set = -1510.23259161
   13   -1510.2366236896      6.41E-09 Convergence criterion met
 Total energy in the final basis set = -1510.23662369
   13   -1510.2404342904      3.68E-09 Convergence criterion met
 Total energy in the final basis set = -1510.24043429
   13   -1510.2440848157      6.03E-09 Convergence criterion met
 Total energy in the final basis set = -1510.24408482
   13   -1510.2477694589      6.94E-09 Convergence criterion met
 Total energy in the final basis set = -1510.24776946
   13   -1510.2513382543      7.55E-09 Convergence criterion met
 Total energy in the final basis set = -1510.25133825
   14   -1510.2548397446      5.96E-09 Convergence criterion met
 Total energy in the final basis set = -1510.25483974
   13   -1510.2583297494      7.92E-09 Convergence criterion met
   12   -1510.2898156925      9.66E-09 Convergence criterion met
 Total energy in the final basis set = -1510.28981569
   12   -1510.2898842581      6.14E-09 Convergence criterion met
 Total energy in the final basis set = -1510.28988426
   12   -1510.2899034330      2.30E-09 Convergence criterion met
 Total energy in the final basis set = -1510.28990343
   11   -1510.2899165395      8.71E-09 Convergence criterion met
 Total energy in the final basis set = -1510.28991654
   11   -1510.2899153421      4.39E-09 Convergence criterion met
 Total energy in the final basis set = -1510.28991534
    9   -1510.2899167381      9.98E-09 Convergence criterion met
 Total energy in the final basis set = -1510.28991674

             Standard Nuclear Orientation (Angstroms)
    I     Atom           X                Y                Z
 ----------------------------------------------------------------
    1      O       1.3194027219    -0.4508608312     0.3522370239
    2      C       2.1582483294    -0.8507147480    -0.4926417861
    3      C       3.7084407192    -0.6490789468    -0.4155770951
    4      C       4.1327731666     0.8813360164    -0.4061593263
    5      C       2.9225898461     1.8792817392    -0.4588432490
    6      O       2.1141658518     1.5661357321    -1.6054852541
    7      C       0.9283706210     2.4543671557    -1.6453164914
    8      C      -0.2646754488     1.8899925556    -0.7905176021
    9      O      -1.0088015286     0.9481418114    -1.6613843454
   10      C      -2.2221588144     0.4074340277    -1.0918415743
   11      C      -2.4457742068     0.4854726489     0.4608174441
   12      C      -3.8716662327    -0.0663173164     0.8858355877
   13      C      -4.8298668993    -0.4107601370    -0.3183616485
   14      O      -5.6052459951     0.3863340027    -0.8911351979
   15      O       1.8557806838    -1.5768586813    -1.6730338476
   16      O      -4.7950072580    -1.8226503376    -0.5675431193
   17      O      -2.9821351647    -0.1872226277    -1.8890850744
   18      C      -5.6510057064    -2.1428129384    -1.7299337685
   19      C      -1.4879222628    -0.5464047540     1.2139434591
   20      C      -1.5447782278    -0.2206659842     2.7590219260
   21      C      -2.9432554990    -0.8223417651     3.1540294387
   22      C      -3.4574525851    -1.3320182597     1.7508802888
   23      O      -2.2255822127    -1.8211657998     1.0904988411
   24      H      -2.2966113862     1.5183315697     0.8188367274
   25      H      -4.3917728764     0.6875827890     1.5032300142
   26      H      -0.4572154099    -0.6309522198     0.7947318064
   27      H      -0.7200819199    -0.7267836371     3.2856516950
   28      H      -1.4745230012     0.8610109671     2.9566999085
   29      H      -2.8361912568    -1.6665432541     3.8537157518
   30      H      -3.6207690978    -0.0770875375     3.6001810523
   31      H      -4.2229338266    -2.1303834313     1.7848127767
   32      O       2.6822434478     2.8185968714     0.3286500504
   33      C       0.3872922322    -1.6978143592    -1.8614824175
   34      C       4.2911135269    -1.1187594987     0.9874420631
   35      C       5.8608025714    -1.2369607098     0.8576942201
   36      C       6.2823789906     0.2801693257     0.8641954094
   37      C       4.8753273861     0.9852625571     0.9885075720
   38      O       4.0979745147     0.0660323079     1.8526381455
   39      H       4.1693846030    -1.1908892879    -1.2594591045
   40      H       4.8061972603     1.1043514793    -1.2542842212
   41      H      -0.0890224609    -0.6905972147    -1.9179249092
   42      H       3.7842942293    -2.0021957780     1.4221377616
   43      H       6.2777482195    -1.7760688601     1.7231891760
   44      H       6.1631125835    -1.7601450857    -0.0635779272
   45      H       6.9125499979     0.5205531765     1.7351103827
   46      H       6.8157749110     0.5784549449    -0.0524180116
   47      H       4.8788704054     2.0067854280     1.4162226300
   48      H      -0.0805602762    -2.2788087005    -1.0408311950
   49      H       0.2515767090    -2.2381622222    -2.8154095040
   50      H      -5.6254097522    -3.2429997604    -1.8360206371
   51      H      -5.2609039895    -1.6714831391    -2.6552505744
   52      H      -6.6970828369    -1.8069964389    -1.5757628055
   53      H       0.1427002258     1.3769472020     0.1079180928
   54      H      -0.9163271566     2.7324214558    -0.4745474601
   55      H       0.6227843935     2.5215224548    -2.7091993044
   56      H       1.1991363195     3.4607938585    -1.2605729314
 ----------------------------------------------------------------

   10   -1510.2899161443      8.40E-09 Convergence criterion met
 Total energy in the final basis set = -1510.28991614
 Final energy is   -1510.28991614432
 **  OPTIMIZATION CONVERGED  **

                    Orbital Energies (a.u.)
 --------------------------------------------------------------

 Alpha MOs
 -- Occupied --
-18.944 -18.943 -18.943 -18.915 -18.892 -18.891 -18.889 -18.879
-18.878 -18.850 -10.110 -10.109 -10.109 -10.085 -10.083 -10.082
-10.065 -10.063 -10.051 -10.048 -10.048 -10.046 -10.042 -10.041
-10.037 -10.028 -10.025 -10.023 -10.012 -10.011  -1.025  -1.016
 -1.014  -0.992  -0.975  -0.962  -0.951  -0.944  -0.941  -0.917
 -0.769  -0.756  -0.732  -0.718  -0.714  -0.708  -0.698  -0.660
 -0.646  -0.618  -0.595  -0.591  -0.550  -0.542  -0.538  -0.531
 -0.517  -0.513  -0.492  -0.477  -0.464  -0.459  -0.456  -0.448
 -0.441  -0.434  -0.425  -0.420  -0.408  -0.406  -0.402  -0.398
 -0.393  -0.391  -0.378  -0.374  -0.363  -0.357  -0.357  -0.352
 -0.343  -0.337  -0.334  -0.333  -0.326  -0.320  -0.317  -0.315
 -0.312  -0.309  -0.301  -0.298  -0.295  -0.290  -0.278  -0.273
 -0.269  -0.262  -0.254  -0.251  -0.239  -0.238  -0.225  -0.190
 -0.184  -0.177  -0.168  -0.159  -0.158  -0.156  -0.149  -0.139
 -0.132

          Ground-State Mulliken Net Atomic Charges

     Atom                 Charge (a.u.)
  ----------------------------------------
      1 O                    -0.228551
      2 C                     0.221048
      3 C                    -0.078870
      4 C                    -0.078103
      5 C                     0.211918
      6 O                    -0.172608
      7 C                    -0.049778
      8 C                    -0.052790
      9 O                    -0.172453
     10 C                     0.215187
     11 C                    -0.085540
     12 C                    -0.081376
     13 C                     0.213734
     14 O                    -0.226041
     15 O                    -0.163384
     16 O                    -0.170472
     17 O                    -0.189297
     18 C                    -0.127099
     19 C                     0.004410
     20 C                    -0.144666
     21 C                    -0.144825
     22 C                     0.025915
     23 O                    -0.193077
     24 H                     0.079763
     25 H                     0.081033
     26 H                     0.108131
     27 H                     0.078730
     28 H                     0.070042
     29 H                     0.076136
     30 H                     0.071339
     31 H                     0.087980
     32 O                    -0.209373
     33 C                    -0.144725
     34 C                     0.025804
     35 C                    -0.143697
     36 C                    -0.144009
     37 C                     0.024331
     38 O                    -0.186884
     39 H                     0.088795
     40 H                     0.087211
     41 H                     0.106299
     42 H                     0.084514
     43 H                     0.079085
     44 H                     0.074643
     45 H                     0.079251
     46 H                     0.073729
     47 H                     0.090773
     48 H                     0.088672
     49 H                     0.089380
     50 H                     0.086151
     51 H                     0.091938
     52 H                     0.085362
     53 H                     0.103895
     54 H                     0.085266
     55 H                     0.099007
     56 H                     0.098145
  ----------------------------------------
  Sum of atomic charges =    -0.000000

                    Cartesian Multipole Moments
 -----------------------------------------------------------------
    Charge (ESU x 10^10)
                -0.0000
    Dipole Moment (Debye)
         X       3.0526      Y       0.6103      Z       0.2671
       Tot       3.1245
    Quadrupole Moments (Debye-Ang)
        XX    -153.2637     XY       0.2486     YY    -157.0685
        XZ     -10.3155     YZ      -1.2023     ZZ    -162.5857

 Total job time:  175.21s(wall), 8138.93s(cpu)
        *  Thank you very much for using Q-Chem.  Have a nice day.  *
