 Q-Chem 5.0, Q-Chem, Inc., Pleasanton, CA (2017)
 Q-Chem 5.0.1 for Intel X86 EM64T Linux

User input:
--------------------------------------------------------------
$molecule
0  1
O 3.3724286575 -3.0430492225 -0.0761735592
C 3.0583150283 -1.8614225597 -0.0663097936
C 4.0240123388 -0.6983667518 -0.1239525262
C 3.4440899138 0.6792144132 -0.4842361051
C 1.9370262439 0.7743984822 -0.5724902409
O 1.5724213069 1.2308063185 -1.8070650067
C 0.1578595948 1.19824614 -2.0243245499
C -0.5717397667 1.7991049837 -0.827341003
O -1.9901152996 1.7638969486 -1.0506240856
C -2.7586468886 1.9487562995 0.0513415262
C -3.9455952536 1.0165379898 0.1040202491
C -3.7158685001 -0.3607238292 -0.5352193735
C -2.2712154157 -0.732379663 -0.802714558
O -1.8010408856 -1.8575347985 -0.7159154567
O 1.7779173922 -1.7358059561 0.3595483378
O -1.6311326209 -0.4048687257 -1.9983179156
O -2.3725737896 2.5693257015 1.0349763564
C -0.4090884672 -1.1944370491 -2.3067667622
C -4.4400089422 0.6064461173 1.5045709688
C -5.9113424281 0.1876110256 1.4129234444
C -5.7864567471 -1.1359690726 0.6875278924
C -4.261780828 -1.2537921201 0.5946313574
O -3.7929351117 -0.6153579643 1.7574631514
H -4.7583704642 1.5630813416 -0.4247079945
H -4.2728289995 -0.5163300306 -1.4855174976
H -4.3135958516 1.3985018253 2.272848628
H -6.2759094142 -0.0105351395 2.4454643678
H -6.5803136789 0.9288192557 0.9239702688
H -6.1973146961 -1.9381843429 1.3396813426
H -6.270063823 -1.1797074751 -0.3136231908
H -3.974828492 -2.3216665551 0.4728600839
O 1.3214616118 0.6247178211 0.4638356075
C 0.9074595245 -2.8293810371 0.400213167
C 4.6528423447 -0.3799364318 1.2458407684
C 5.971950759 0.3736488081 1.0459929562
C 5.459617478 1.7363497613 0.6262218905
C 3.9500056432 1.5054105151 0.71492478
O 3.8151390519 0.608953689 1.792409001
H 4.8254797191 -1.0063535544 -0.8327806343
H 3.881713403 1.0490012858 -1.4405318202
H 1.2576544865 -3.6067392366 1.1085203641
H 4.8165954713 -1.2868093852 1.8681382419
H 6.468157139 0.4749226609 2.0373816215
H 6.6735700464 -0.1075648553 0.3306843919
H 5.7632980485 2.480063184 1.3970162149
H 5.7824375642 2.0823441926 -0.3795009972
H 3.416264703 2.4763422741 0.8158202736
H 0.847720697 -3.2926010181 -0.6182819712
H -0.0935071837 -2.511656825 0.7169910145
H 0.2647982216 -1.1236225962 -1.3968517804
H 0.2798753994 -1.0521277513 -3.171969053
H 0.2672682188 -1.1233985162 -1.3987872137
H -0.5497952008 1.2548288628 0.1071940814
H -0.2497706457 2.8510062859 -0.6325354207
H -0.1562709744 0.9852548597 -3.0711616276
H 0.0265600122 2.1285646327 -2.6205376627
$end

$rem
JOBTYPE                   OPT
METHOD                    B3LYP
DFT_D                     d3_op
BASIS                     STO-3G
GEOM_OPT_MAX_CYCLES       100
GEOM_OPT_TOL_GRADIENT     300
GEOM_OPT_TOL_DISPLACEMENT 1200
GEOM_OPT_TOL_ENERGY       100
SYMMETRY                  False
THRESH                    12
SCF_CONVERGENCE           8
MAX_SUB_FILE_NUM          128
MEM_STATIC                400
MEM_TOTAL                 4000
$end
--------------------------------------------------------------

   16   -1342.7605046587      7.22E-09 Convergence criterion met
 Total energy in the final basis set = -1342.76050466
   38   -1506.8560553903      4.40E-09 Convergence criterion met
 Total energy in the final basis set = -1506.85605539
   13   -1508.7313641009      2.73E-09 Convergence criterion met
 Total energy in the final basis set = -1508.73136410
   13   -1509.2860225110      7.32E-09 Convergence criterion met
 Total energy in the final basis set = -1509.28602251
   14   -1509.4642519127      8.25E-09 Convergence criterion met
 Total energy in the final basis set = -1509.46425191
   15   -1509.5971649128      3.60E-09 Convergence criterion met
 Total energy in the final basis set = -1509.59716491
   15   -1509.7391817512      4.71E-09 Convergence criterion met
 Total energy in the final basis set = -1509.73918175
   14   -1509.8092109935      8.45E-09 Convergence criterion met
   10   -1510.1811506300      5.20E-09 Convergence criterion met
 Total energy in the final basis set = -1510.18115063
    9   -1510.1811513206      9.19E-09 Convergence criterion met
 Total energy in the final basis set = -1510.18115132
    9   -1510.1811520181      9.83E-09 Convergence criterion met
 Total energy in the final basis set = -1510.18115202
   10   -1510.1811530782      6.00E-09 Convergence criterion met
 Total energy in the final basis set = -1510.18115308
   11   -1510.1811560782      5.22E-09 Convergence criterion met
 Total energy in the final basis set = -1510.18115608
   11   -1510.1811581856      7.03E-09 Convergence criterion met
 Total energy in the final basis set = -1510.18115819

             Standard Nuclear Orientation (Angstroms)
    I     Atom           X                Y                Z
 ----------------------------------------------------------------
    1      O       3.9538521182    -1.2585138123    -2.7825344044
    2      C       3.6421167701    -0.9851198393    -1.6046475563
    3      C       4.3867486271    -0.0412833215    -0.6045140950
    4      C       3.4130570005     0.8836984082     0.2412272100
    5      C       1.9009185826     0.6884826779    -0.1234469422
    6      O       1.7162679146     1.0796824418    -1.4725514070
    7      C       0.3402787075     0.8294398444    -1.9701158306
    8      C      -0.6325354872     2.0466777751    -1.7358085128
    9      O      -1.9931685014     1.4757065133    -1.7987865886
   10      C      -2.7853104121     1.9075652920    -0.6702196505
   11      C      -4.0259042562     0.9513576833    -0.6086465908
   12      C      -3.6296588869    -0.5309071887    -0.1815032103
   13      C      -2.1103600254    -0.6955276299     0.0354925684
   14      O      -1.5404539897     0.3128101791     0.8125309285
   15      O       2.5074129811    -1.5331384893    -0.9208712292
   16      O      -1.7677254055    -2.0262550080     0.2357903135
   17      O      -2.5177130543     2.9039460529     0.0311735110
   18      C      -0.6481467730    -2.4442272672     0.8953501511
   19      C      -5.0153777371     1.3612136939     0.5548371844
   20      C      -6.3883095653     0.6112516783     0.3317851026
   21      C      -6.0079728664    -0.8515404973     0.7712914164
   22      C      -4.4890649431    -0.6672581472     1.1631344145
   23      O      -4.4429002863     0.6910160646     1.7449897114
   24      H      -4.5191059879     0.9567665688    -1.5975994180
   25      H      -3.9705426417    -1.2694076857    -0.9299028529
   26      H      -5.0855001686     2.4531702379     0.7243680651
   27      H      -7.1710410262     1.0373407816     0.9792281065
   28      H      -6.7265160670     0.6673144513    -0.7153244051
   29      H      -6.5957260261    -1.1749683634     1.6453017297
   30      H      -6.1433729639    -1.5891554823    -0.0357863515
   31      H      -4.0918593584    -1.4120543549     1.8799627641
   32      O       1.0093777747     0.3229859332     0.6912483918
   33      C       1.7283815174    -2.4221371771    -1.8121979756
   34      C       5.0777568050    -0.8740929207     0.5660158943
   35      C       6.0995754414     0.0737623126     1.3092127808
   36      C       5.1211393963     0.9819031018     2.1434099560
   37      C       3.7208435841     0.3932199918     1.7160491792
   38      O       3.9849575490    -1.0544592227     1.5455878147
   39      H       5.1236027675     0.5521068897    -1.1732579606
   40      H       3.6621479250     1.9514208892     0.0984633278
   41      H       2.2810501086    -3.3600372797    -2.0232410203
   42      H       5.4843193190    -1.8545827562     0.2505074144
   43      H       6.7626596792    -0.5142343669     1.9635728768
   44      H       6.7191130852     0.6486302364     0.6022632511
   45      H       5.2766735705     0.8550994510     3.2265242914
   46      H       5.2152649955     2.0510527268     1.8948439564
   47      H       2.8859578377     0.5532245716     2.4255744679
   48      H       1.4901732955    -1.9266108741    -2.7747106460
   49      H       0.7973579421    -2.6540544202    -1.2602568986
   50      H      -0.4970544083     0.2676732486     0.6869729694
   51      H      -0.3146829136    -3.4430411815     0.5978169659
   52      H       0.0594337301    -1.7133279197     1.3017257688
   53      H      -0.4645076447     2.5214011510    -0.7444249694
   54      H      -0.4938733392     2.8168602144    -2.5240771878
   55      H      -0.1052907193    -0.0690568748    -1.4919718733
   56      H       0.4550660802     0.6340442306    -3.0550803580
 ----------------------------------------------------------------

   11   -1510.1811582731      3.90E-09 Convergence criterion met
 Total energy in the final basis set = -1510.18115827
 Final energy is   -1510.18115827306
 **  OPTIMIZATION CONVERGED  **

                    Orbital Energies (a.u.)
 --------------------------------------------------------------

 Alpha MOs
 -- Occupied --
-19.010 -18.974 -18.950 -18.926 -18.920 -18.900 -18.892 -18.875
-18.873 -18.868 -10.148 -10.113 -10.092 -10.090 -10.075 -10.072
-10.072 -10.071 -10.058 -10.052 -10.046 -10.041 -10.030 -10.029
-10.025 -10.023 -10.021 -10.009 -10.008  -9.951  -1.050  -1.029
 -1.024  -1.002  -0.983  -0.977  -0.956  -0.950  -0.932  -0.930
 -0.780  -0.751  -0.739  -0.724  -0.716  -0.707  -0.692  -0.671
 -0.639  -0.625  -0.602  -0.571  -0.560  -0.549  -0.537  -0.531
 -0.524  -0.508  -0.504  -0.483  -0.481  -0.473  -0.460  -0.457
 -0.444  -0.436  -0.432  -0.429  -0.421  -0.419  -0.406  -0.400
 -0.395  -0.391  -0.381  -0.377  -0.367  -0.361  -0.355  -0.351
 -0.346  -0.344  -0.339  -0.339  -0.324  -0.320  -0.318  -0.316
 -0.315  -0.309  -0.305  -0.297  -0.294  -0.290  -0.282  -0.275
 -0.269  -0.263  -0.261  -0.246  -0.245  -0.235  -0.221  -0.214
 -0.196  -0.191  -0.176  -0.167  -0.166  -0.156  -0.147  -0.131
 -0.047

          Ground-State Mulliken Net Atomic Charges

     Atom                 Charge (a.u.)
  ----------------------------------------
      1 O                    -0.206133
      2 C                     0.211629
      3 C                    -0.078688
      4 C                    -0.075273
      5 C                     0.248188
      6 O                    -0.163905
      7 C                    -0.052082
      8 C                    -0.053536
      9 O                    -0.181195
     10 C                     0.223217
     11 C                    -0.077319
     12 C                    -0.071756
     13 C                     0.103930
     14 O                    -0.263970
     15 O                    -0.169661
     16 O                    -0.121125
     17 O                    -0.212630
     18 C                    -0.147531
     19 C                     0.024771
     20 C                    -0.144361
     21 C                    -0.144691
     22 C                     0.023402
     23 O                    -0.187675
     24 H                     0.081117
     25 H                     0.077169
     26 H                     0.085538
     27 H                     0.075557
     28 H                     0.070405
     29 H                     0.075295
     30 H                     0.071081
     31 H                     0.081772
     32 O                    -0.214019
     33 C                    -0.131302
     34 C                     0.026571
     35 C                    -0.143529
     36 C                    -0.143710
     37 C                     0.025781
     38 O                    -0.183231
     39 H                     0.089060
     40 H                     0.091008
     41 H                     0.091154
     42 H                     0.085804
     43 H                     0.081018
     44 H                     0.075441
     45 H                     0.081738
     46 H                     0.074851
     47 H                     0.094114
     48 H                     0.089019
     49 H                     0.099923
     50 H                     0.217056
     51 H                     0.054477
     52 H                     0.060248
     53 H                     0.097951
     54 H                     0.084594
     55 H                     0.098474
     56 H                     0.095968
  ----------------------------------------
  Sum of atomic charges =    -0.000000

                    Cartesian Multipole Moments
 -----------------------------------------------------------------
    Charge (ESU x 10^10)
                -0.0000
    Dipole Moment (Debye)
         X       2.9880      Y       0.6855      Z      -2.4963
       Tot       3.9534
    Quadrupole Moments (Debye-Ang)
        XX    -142.8282     XY       8.7465     YY    -162.8076
        XZ      11.8506     YZ       0.0977     ZZ    -166.8174

 Total job time:  240.90s(wall), 11497.20s(cpu)
        *  Thank you very much for using Q-Chem.  Have a nice day.  *
