 Q-Chem 5.0, Q-Chem, Inc., Pleasanton, CA (2017)
 Q-Chem 5.0.1 for Intel X86 EM64T Linux

User input:
--------------------------------------------------------------
$molecule
0  1
O -3.94934 -3.66094 2.70899
C -3.26408 -4.56952 2.26188
C -3.36658 -6.02376 2.66595
C -2.12836 -6.66087 3.31767
C -0.98754 -5.72649 3.65466
O 0.19529 -6.27072 3.24217
C 1.24999 -5.30897 3.1331
C 2.55354 -5.89586 3.66454
O 3.66124 -5.40692 2.89199
C 4.81774 -5.23032 3.5779
C 5.78779 -4.31471 2.86987
C 6.55639 -3.35216 3.78695
C 6.5183 -3.67733 5.26665
O 5.5257 -4.02281 5.89112
O -2.34018 -4.28608 1.3067
O 7.70699 -3.68805 5.93119
O 5.16342 -6.02063 4.44861
C 7.85725 -4.00848 7.26451
C 6.96574 -5.05271 2.19623
C 7.48699 -4.21219 1.03335
C 8.10576 -3.04999 1.7845
C 7.98045 -3.55853 3.22838
O 8.03215 -4.95913 3.1101
H 5.2251 -3.77183 2.07447
H 6.16255 -2.3173 3.68766
H 6.70664 -6.07675 1.84877
H 8.30138 -4.80556 0.5582
H 6.74479 -3.93034 0.25583
H 9.16851 -2.95678 1.46914
H 7.5823 -2.07636 1.66636
H 8.76751 -3.08902 3.85693
O -1.10649 -4.68461 4.28959
C -2.09246 -3.02167 0.81571
C -4.41245 -6.24844 3.7775
C -4.86121 -7.71065 3.79401
C -3.64281 -8.37122 4.40067
C -2.75347 -7.14881 4.63952
O -3.66996 -6.13225 4.96462
H -3.67434 -6.57248 1.7479
H -1.73829 -7.52678 2.73417
H -1.75482 -2.35285 1.63614
H -5.3008 -5.58598 3.68611
H -5.70742 -7.80578 4.51142
H -5.17111 -8.10228 2.80123
H -3.93288 -8.81015 5.38161
H -3.15663 -9.14708 3.7707
H -1.98667 -7.3797 5.41237
H -3.0094 -2.607 0.34499
H -1.29196 -3.07952 0.05
H 8.92964 -3.9331 7.53788
H 7.51321 -5.04857 7.44931
H 7.27636 -3.30216 7.89537
H 2.64276 -5.77034 4.76789
H 2.5219 -6.98767 3.45441
H 1.07103 -4.28209 3.52339
H 1.3932 -5.1951 2.0361
$end

$opt
CONSTRAINT
tors           1           2           3           4    -117.934
tors           3           4           5           6    -133.838
tors           4           5           6           7    +161.508
tors           5           6           7           8    +139.138
tors           6           7           8           9    +144.721
tors           7           8           9          10    +146.582
tors           8           9          10          11    -161.053
tors           9          10          11          12    +140.697
tors          11          12          13          14     -43.571
ENDCONSTRAINT
$end

$rem
JOBTYPE                   OPT
METHOD                    B3LYP
DFT_D                     d3_op
BASIS                     STO-3G
GEOM_OPT_MAX_CYCLES       100
GEOM_OPT_TOL_GRADIENT     300
GEOM_OPT_TOL_DISPLACEMENT 1200
GEOM_OPT_TOL_ENERGY       100
SYMMETRY                  False
THRESH                    12
SCF_CONVERGENCE           8
MAX_SUB_FILE_NUM          128
MEM_STATIC                400
MEM_TOTAL                 4000
$end
--------------------------------------------------------------

   15   -1510.1344822441      6.98E-09 Convergence criterion met
 Total energy in the final basis set = -1510.13448224
   14   -1510.2047872900      7.02E-09 Convergence criterion met
 Total energy in the final basis set = -1510.20478729
   14   -1510.2428168971      6.72E-09 Convergence criterion met
 Total energy in the final basis set = -1510.24281690
   14   -1510.2603963950      2.74E-09 Convergence criterion met
 Total energy in the final basis set = -1510.26039640
   13   -1510.2671831501      7.20E-09 Convergence criterion met
 Total energy in the final basis set = -1510.26718315
    2   -1510.2671831500      3.36E-09 Convergence criterion met
 Total energy in the final basis set = -1510.26718315
   13   -1510.2702383157      3.77E-09 Convergence criterion met
 Total energy in the final basis set = -1510.27023832
   13   -1510.2718476478      2.39E-09 Convergence criterion met
   12   -1510.2753272750      3.12E-09 Convergence criterion met
 Total energy in the final basis set = -1510.27532727
   11   -1510.2753887225      8.60E-09 Convergence criterion met
 Total energy in the final basis set = -1510.27538872
   11   -1510.2754414187      7.22E-09 Convergence criterion met
 Total energy in the final basis set = -1510.27544142
   11   -1510.2754679067      6.16E-09 Convergence criterion met
 Total energy in the final basis set = -1510.27546791
   10   -1510.2754780622      8.84E-09 Convergence criterion met
 Total energy in the final basis set = -1510.27547806
    9   -1510.2754800620      7.06E-09 Convergence criterion met
 Total energy in the final basis set = -1510.27548006

             Standard Nuclear Orientation (Angstroms)
    I     Atom           X                Y                Z
 ----------------------------------------------------------------
    1      O      -5.3324513750     1.1572971009     2.2323934009
    2      C      -4.9549920704     1.2281548825     1.0447758005
    3      C      -5.4674185864     0.3882765217    -0.1795352199
    4      C      -4.3387925649    -0.5064265445    -0.8471178311
    5      C      -2.9639187056    -0.3909925745    -0.1061836160
    6      O      -1.9294162910    -0.2114108817    -1.0852000567
    7      C      -0.7060950527     0.3376582323    -0.4498442049
    8      C       0.5453336704    -0.3845401410    -1.0619238830
    9      O       1.6338506548     0.6213944602    -1.1389399753
   10      C       2.9097761631     0.0015852469    -0.9253342010
   11      C       3.9442741926     1.1124567621    -0.5335117911
   12      C       4.9560011559     0.6509853102     0.5962536862
   13      C       4.5236666314    -0.6681371953     1.3361363524
   14      O       3.3729148353    -0.9522540671     1.7351150056
   15      O      -3.9615730353     2.1434177254     0.5607755058
   16      O       5.6651256078    -1.5058526801     1.5329078234
   17      O       3.1172620173    -1.2266147139    -1.0292962865
   18      C       5.2614755410    -2.7533652436     2.2219369604
   19      C       4.9574455635     1.3461044793    -1.7379261883
   20      C       5.8478101381     2.6157945672    -1.4282497025
   21      C       6.8735970035     2.0267222752    -0.3904585292
   22      C       6.3161114486     0.5605630945    -0.2206718626
   23      O       5.8900190763     0.2053169581    -1.5941377620
   24      H       3.3952737602     2.0302008905    -0.2609405692
   25      H       5.0278202309     1.4388251382     1.3701637353
   26      H       4.4844005375     1.3378721776    -2.7392317246
   27      H       6.3501700568     2.9685796748    -2.3427001477
   28      H       5.2510469583     3.4427349874    -1.0114324059
   29      H       7.8941029109     2.0011454107    -0.8050964107
   30      H       6.8914627010     2.5843322309     0.5593736846
   31      H       7.0304142259    -0.1871535882     0.1730573257
   32      O      -2.7699078385    -0.4057081826     1.1299020460
   33      C      -3.3490066274     2.8681047193     1.6964858909
   34      C      -6.5087231347    -0.7153128763     0.2738345479
   35      C      -7.2796114985    -1.2275454056    -1.0048082061
   36      C      -6.1694865158    -2.1052677892    -1.6943695220
   37      C      -4.9775527365    -1.9543698642    -0.6674649631
   38      O      -5.6521985968    -1.8663397919     0.6455929022
   39      H      -5.9018726321     1.0800613546    -0.9241586084
   40      H      -4.1843594643    -0.2546828166    -1.9105423522
   41      H      -2.7927830180     2.1719921035     2.3579329342
   42      H      -7.1388311578    -0.4122741637     1.1324647054
   43      H      -8.1504386219    -1.8352113261    -0.7118651310
   44      H      -7.6243558572    -0.3983217489    -1.6430656502
   45      H      -6.4776082488    -3.1599882736    -1.7727253969
   46      H      -5.9002158110    -1.7406547318    -2.6986853410
   47      H      -4.2433640931    -2.7834172542    -0.6730715674
   48      H      -4.1088545513     3.4015445206     2.3029329188
   49      H      -2.6473206023     3.5984831051     1.2533152188
   50      H       6.1825176192    -3.3559998993     2.3253355987
   51      H       4.5112933318    -3.3170388087     1.6307775377
   52      H       4.8370548462    -2.5473552193     3.2259207819
   53      H       0.8631260529    -1.2585955646    -0.4561887104
   54      H       0.2872155415    -0.7479354231    -2.0824959896
   55      H      -0.7687816855     0.2018820117     0.6508130748
   56      H      -0.6451589523     1.4238846505    -0.6821201871
 ----------------------------------------------------------------

    9   -1510.2754804427      4.52E-09 Convergence criterion met
 Total energy in the final basis set = -1510.27548044
 Final energy is   -1510.27548044270
 **  OPTIMIZATION CONVERGED  **

                    Orbital Energies (a.u.)
 --------------------------------------------------------------

 Alpha MOs
 -- Occupied --
-18.935 -18.931 -18.928 -18.928 -18.887 -18.887 -18.878 -18.875
-18.874 -18.870 -10.101 -10.099 -10.098 -10.097 -10.069 -10.068
-10.063 -10.061 -10.061 -10.060 -10.057 -10.057 -10.038 -10.038
-10.037 -10.036 -10.021 -10.020 -10.020 -10.019  -1.014  -1.012
 -1.006  -1.004  -0.970  -0.969  -0.940  -0.936  -0.933  -0.931
 -0.763  -0.762  -0.726  -0.722  -0.713  -0.706  -0.695  -0.660
 -0.659  -0.616  -0.596  -0.576  -0.546  -0.545  -0.538  -0.537
 -0.514  -0.510  -0.479  -0.478  -0.464  -0.459  -0.451  -0.449
 -0.434  -0.431  -0.424  -0.411  -0.410  -0.410  -0.407  -0.396
 -0.391  -0.384  -0.375  -0.369  -0.360  -0.358  -0.354  -0.348
 -0.345  -0.340  -0.335  -0.331  -0.329  -0.325  -0.321  -0.311
 -0.309  -0.304  -0.303  -0.297  -0.292  -0.288  -0.283  -0.275
 -0.272  -0.255  -0.253  -0.248  -0.246  -0.234  -0.233  -0.179
 -0.176  -0.173  -0.170  -0.159  -0.156  -0.149  -0.148  -0.143
 -0.143

          Ground-State Mulliken Net Atomic Charges

     Atom                 Charge (a.u.)
  ----------------------------------------
      1 O                    -0.206613
      2 C                     0.214230
      3 C                    -0.078883
      4 C                    -0.078512
      5 C                     0.213216
      6 O                    -0.174729
      7 C                    -0.053354
      8 C                    -0.049519
      9 O                    -0.177368
     10 C                     0.212817
     11 C                    -0.078692
     12 C                    -0.079069
     13 C                     0.213258
     14 O                    -0.217994
     15 O                    -0.176717
     16 O                    -0.168805
     17 O                    -0.208420
     18 C                    -0.127301
     19 C                     0.025373
     20 C                    -0.144749
     21 C                    -0.143332
     22 C                     0.023689
     23 O                    -0.187812
     24 H                     0.085884
     25 H                     0.083385
     26 H                     0.082676
     27 H                     0.078080
     28 H                     0.073395
     29 H                     0.078046
     30 H                     0.072850
     31 H                     0.093937
     32 O                    -0.211457
     33 C                    -0.129663
     34 C                     0.024791
     35 C                    -0.143982
     36 C                    -0.143886
     37 C                     0.025768
     38 O                    -0.186080
     39 H                     0.084525
     40 H                     0.087183
     41 H                     0.092604
     42 H                     0.090424
     43 H                     0.078374
     44 H                     0.072909
     45 H                     0.078278
     46 H                     0.073571
     47 H                     0.083035
     48 H                     0.089622
     49 H                     0.087399
     50 H                     0.090576
     51 H                     0.093934
     52 H                     0.088265
     53 H                     0.098088
     54 H                     0.087439
     55 H                     0.101110
     56 H                     0.088207
  ----------------------------------------
  Sum of atomic charges =    -0.000000

                    Cartesian Multipole Moments
 -----------------------------------------------------------------
    Charge (ESU x 10^10)
                -0.0000
    Dipole Moment (Debye)
         X       0.7369      Y       2.4298      Z      -1.3734
       Tot       2.8867
    Quadrupole Moments (Debye-Ang)
        XX    -149.9705     XY       4.5537     YY    -151.7660
        XZ      22.3967     YZ       0.5496     ZZ    -163.3280

 Total job time:  55.90s(wall), 2653.26s(cpu)
        *  Thank you very much for using Q-Chem.  Have a nice day.  *
