 Q-Chem 5.0, Q-Chem, Inc., Pleasanton, CA (2017)
 Q-Chem 5.0.1 for Intel X86 EM64T Linux

User input:
--------------------------------------------------------------
$molecule
0  1
O -5.332451375 1.1572971009 2.2323934009
C -4.9549920704 1.2281548825 1.0447758005
C -5.4674185864 0.3882765217 -0.1795352199
C -4.3387925649 -0.5064265445 -0.8471178311
C -2.9639187056 -0.3909925745 -0.106183616
O -1.929416291 -0.2114108817 -1.0852000567
C -0.7060950527 0.3376582323 -0.4498442049
C 0.5453336704 -0.384540141 -1.061923883
O 1.6338506548 0.6213944602 -1.1389399753
C 2.9097761631 0.0015852469 -0.925334201
C 3.9442741926 1.1124567621 -0.5335117911
C 4.9560011559 0.6509853102 0.5962536862
C 4.5236666314 -0.6681371953 1.3361363524
O 3.3729148353 -0.9522540671 1.7351150056
O -3.9615730353 2.1434177254 0.5607755058
O 5.6651256078 -1.5058526801 1.5329078234
O 3.1172620173 -1.2266147139 -1.0292962865
C 5.261475541 -2.7533652436 2.2219369604
C 4.9574455635 1.3461044793 -1.7379261883
C 5.8478101381 2.6157945672 -1.4282497025
C 6.8735970035 2.0267222752 -0.3904585292
C 6.3161114486 0.5605630945 -0.2206718626
O 5.8900190763 0.2053169581 -1.594137762
H 3.3952737602 2.0302008905 -0.2609405692
H 5.0278202309 1.4388251382 1.3701637353
H 4.4844005375 1.3378721776 -2.7392317246
H 6.3501700568 2.9685796748 -2.3427001477
H 5.2510469583 3.4427349874 -1.0114324059
H 7.8941029109 2.0011454107 -0.8050964107
H 6.891462701 2.5843322309 0.5593736846
H 7.0304142259 -0.1871535882 0.1730573257
O -2.7699078385 -0.4057081826 1.129902046
C -3.3490066274 2.8681047193 1.6964858909
C -6.5087231347 -0.7153128763 0.2738345479
C -7.2796114985 -1.2275454056 -1.0048082061
C -6.1694865158 -2.1052677892 -1.694369522
C -4.9775527365 -1.9543698642 -0.6674649631
O -5.6521985968 -1.8663397919 0.6455929022
H -5.9018726321 1.0800613546 -0.9241586084
H -4.1843594643 -0.2546828166 -1.9105423522
H -2.792783018 2.1719921035 2.3579329342
H -7.1388311578 -0.4122741637 1.1324647054
H -8.1504386219 -1.8352113261 -0.711865131
H -7.6243558572 -0.3983217489 -1.6430656502
H -6.4776082488 -3.1599882736 -1.7727253969
H -5.900215811 -1.7406547318 -2.698685341
H -4.2433640931 -2.7834172542 -0.6730715674
H -4.1088545513 3.4015445206 2.3029329188
H -2.6473206023 3.5984831051 1.2533152188
H 6.1825176192 -3.3559998993 2.3253355987
H 4.5112933318 -3.3170388087 1.6307775377
H 4.8370548462 -2.5473552193 3.2259207819
H 0.8631260529 -1.2585955646 -0.4561887104
H 0.2872155415 -0.7479354231 -2.0824959896
H -0.7687816855 0.2018820117 0.6508130748
H -0.6451589523 1.4238846505 -0.6821201871
$end

$rem
JOBTYPE                   OPT
METHOD                    B3LYP
DFT_D                     d3_op
BASIS                     STO-3G
GEOM_OPT_MAX_CYCLES       100
GEOM_OPT_TOL_GRADIENT     300
GEOM_OPT_TOL_DISPLACEMENT 1200
GEOM_OPT_TOL_ENERGY       100
SYMMETRY                  False
THRESH                    12
SCF_CONVERGENCE           8
MAX_SUB_FILE_NUM          128
MEM_STATIC                400
MEM_TOTAL                 4000
$end
--------------------------------------------------------------

   16   -1510.2753546886      5.91E-09 Convergence criterion met
 Total energy in the final basis set = -1510.27535469
   14   -1510.2783790046      3.02E-09 Convergence criterion met
 Total energy in the final basis set = -1510.27837900
   13   -1510.2798714647      8.69E-09 Convergence criterion met
 Total energy in the final basis set = -1510.27987146
   14   -1510.2797869631      6.44E-09 Convergence criterion met
 Total energy in the final basis set = -1510.27978696
   13   -1510.2803362044      8.85E-09 Convergence criterion met
 Total energy in the final basis set = -1510.28033620
   14   -1510.2811428165      2.55E-09 Convergence criterion met
 Total energy in the final basis set = -1510.28114282
   14   -1510.2816834724      2.03E-09 Convergence criterion met
 Total energy in the final basis set = -1510.28168347
   13   -1510.2821579593      9.31E-09 Convergence criterion met
   13   -1510.2997240062      5.65E-09 Convergence criterion met
 Total energy in the final basis set = -1510.29972401
   12   -1510.2997147154      8.17E-09 Convergence criterion met
 Total energy in the final basis set = -1510.29971472
   12   -1510.2998427897      9.95E-09 Convergence criterion met
 Total energy in the final basis set = -1510.29984279
   12   -1510.2998325174      5.63E-09 Convergence criterion met
 Total energy in the final basis set = -1510.29983252
   11   -1510.2998462342      7.82E-09 Convergence criterion met
 Total energy in the final basis set = -1510.29984623
   11   -1510.2998602327      7.30E-09 Convergence criterion met
 Total energy in the final basis set = -1510.29986023

             Standard Nuclear Orientation (Angstroms)
    I     Atom           X                Y                Z
 ----------------------------------------------------------------
    1      O      -2.4984067310    -0.7729860652     2.7326014377
    2      C      -2.8898896527     0.0010043661     1.8326576180
    3      C      -3.9146950860    -0.3154444578     0.6837454589
    4      C      -3.3698476115     0.0492449321    -0.7640045964
    5      C      -1.9131463654     0.6213929649    -0.7373550025
    6      O      -1.9275085496     1.9882635933    -1.1552510899
    7      C      -0.5619138469     2.5606325856    -1.0429885198
    8      C       0.3218018482     2.2481720323    -2.3145026121
    9      O       1.7485983798     2.2624469739    -1.9103059176
   10      C       2.1953683620     0.9216931491    -1.6483806407
   11      C       3.5983538078     1.0046119419    -0.9621060880
   12      C       3.5299427454     0.7182242370     0.6052567036
   13      C       2.0640851559     0.4136432450     1.0951192084
   14      O       1.1429474015     1.2676514098     1.1734244775
   15      O      -2.4741687365     1.3582752344     1.6805049580
   16      O       1.9350257585    -0.9547275027     1.4210276661
   17      O       1.5408698745    -0.1058616593    -1.9287123085
   18      C       0.5268223854    -1.3055233863     1.7486400124
   19      C       4.5682075825    -0.1608776556    -1.4333420740
   20      C       6.0398555053     0.2319087666    -1.0166297857
   21      C       5.9900004259    -0.0190940441     0.5359459975
   22      C       4.5042838057    -0.5264688601     0.7194058660
   23      O       4.2360887314    -1.2816895709    -0.5259397204
   24      H       4.0214752994     2.0046659437    -1.1615750531
   25      H       3.9003394272     1.5918784620     1.1719604520
   26      H       4.4363323035    -0.4666532750    -2.4891865001
   27      H       6.7693903476    -0.4296912412    -1.5100496443
   28      H       6.2793932653     1.2763967289    -1.2722765583
   29      H       6.7026718545    -0.8013406098     0.8420840994
   30      H       6.1942073467     0.8923158191     1.1204144752
   31      H       4.3256985990    -1.1654318964     1.6049422958
   32      O      -0.8659152138    -0.0001300775    -0.4448042897
   33      C      -1.3977889044     1.6975806105     2.6455703015
   34      C      -4.1450680944    -1.8752862951     0.5418788088
   35      C      -5.4378983960    -2.1180768481    -0.3298920221
   36      C      -4.9076015778    -1.7520604784    -1.7663269161
   37      C      -3.4040283130    -1.3836876267    -1.4532435495
   38      O      -3.0397520559    -2.3003750452    -0.3497564283
   39      H      -4.8567760391     0.2241687741     0.8927162219
   40      H      -4.0247670577     0.7775856728    -1.2725616601
   41      H      -0.4035703060     1.4948309049     2.1768385547
   42      H      -4.0973293670    -2.4226935355     1.5034496588
   43      H      -5.7487307535    -3.1733630069    -0.2718553385
   44      H      -6.2805460760    -1.4833559528    -0.0122510070
   45      H      -4.9572700401    -2.6162936058    -2.4475437432
   46      H      -5.4548974313    -0.9111553503    -2.2216260286
   47      H      -2.7007460110    -1.5010450234    -2.3002850742
   48      H      -1.5077284986     1.1045730942     3.5742752974
   49      H      -1.4998529790     2.7757589219     2.8668592028
   50      H       0.5043872850    -2.4082020595     1.8104240796
   51      H      -0.1586149906    -0.9444886843     0.9457661245
   52      H       0.2242454715    -0.8770889107     2.7249008151
   53      H       0.0668694464     1.2399706492    -2.7074104452
   54      H       0.1898440188     3.0126345731    -3.1052786140
   55      H      -0.0299311600     2.1416540652    -0.1550013955
   56      H      -0.7025108717     3.6521463096    -0.9204964073
 ----------------------------------------------------------------

   11   -1510.2998605535      3.96E-09 Convergence criterion met
 Total energy in the final basis set = -1510.29986055
 Final energy is   -1510.29986055345
 **  OPTIMIZATION CONVERGED  **

                    Orbital Energies (a.u.)
 --------------------------------------------------------------

 Alpha MOs
 -- Occupied --
-18.940 -18.932 -18.928 -18.927 -18.885 -18.885 -18.876 -18.876
-18.873 -18.872 -10.106 -10.100 -10.096 -10.095 -10.062 -10.058
-10.058 -10.056 -10.056 -10.055 -10.038 -10.038 -10.037 -10.036
-10.036 -10.035 -10.019 -10.019 -10.018 -10.018  -1.015  -1.011
 -1.006  -1.002  -0.967  -0.967  -0.936  -0.936  -0.932  -0.930
 -0.762  -0.760  -0.724  -0.721  -0.709  -0.703  -0.690  -0.652
 -0.648  -0.615  -0.594  -0.577  -0.544  -0.543  -0.535  -0.534
 -0.510  -0.505  -0.478  -0.473  -0.461  -0.458  -0.450  -0.444
 -0.434  -0.430  -0.426  -0.422  -0.409  -0.404  -0.398  -0.392
 -0.382  -0.375  -0.371  -0.362  -0.358  -0.356  -0.353  -0.348
 -0.343  -0.338  -0.330  -0.328  -0.327  -0.322  -0.316  -0.308
 -0.307  -0.304  -0.302  -0.297  -0.286  -0.284  -0.283  -0.275
 -0.269  -0.259  -0.246  -0.241  -0.238  -0.232  -0.230  -0.186
 -0.175  -0.171  -0.160  -0.158  -0.154  -0.149  -0.148  -0.141
 -0.140

          Ground-State Mulliken Net Atomic Charges

     Atom                 Charge (a.u.)
  ----------------------------------------
      1 O                    -0.214436
      2 C                     0.210616
      3 C                    -0.078307
      4 C                    -0.079019
      5 C                     0.218967
      6 O                    -0.168511
      7 C                    -0.061333
      8 C                    -0.057289
      9 O                    -0.173933
     10 C                     0.206452
     11 C                    -0.078898
     12 C                    -0.077077
     13 C                     0.221327
     14 O                    -0.226210
     15 O                    -0.174155
     16 O                    -0.158712
     17 O                    -0.202439
     18 C                    -0.143554
     19 C                     0.025880
     20 C                    -0.143893
     21 C                    -0.144596
     22 C                     0.025560
     23 O                    -0.183963
     24 H                     0.085984
     25 H                     0.084024
     26 H                     0.084868
     27 H                     0.077915
     28 H                     0.072915
     29 H                     0.077951
     30 H                     0.072338
     31 H                     0.091121
     32 O                    -0.217286
     33 C                    -0.150672
     34 C                     0.023571
     35 C                    -0.143985
     36 C                    -0.144000
     37 C                     0.025466
     38 O                    -0.187053
     39 H                     0.084830
     40 H                     0.086395
     41 H                     0.111300
     42 H                     0.090065
     43 H                     0.078190
     44 H                     0.072873
     45 H                     0.078227
     46 H                     0.073213
     47 H                     0.085025
     48 H                     0.087106
     49 H                     0.081437
     50 H                     0.090608
     51 H                     0.121740
     52 H                     0.083028
     53 H                     0.098908
     54 H                     0.084123
     55 H                     0.112453
     56 H                     0.084849
  ----------------------------------------
  Sum of atomic charges =    -0.000000

                    Cartesian Multipole Moments
 -----------------------------------------------------------------
    Charge (ESU x 10^10)
                 0.0000
    Dipole Moment (Debye)
         X      -0.1672      Y       2.4772      Z      -0.3809
       Tot       2.5119
    Quadrupole Moments (Debye-Ang)
        XX    -136.3336     XY       6.6075     YY    -163.9216
        XZ       4.5632     YZ      -0.2916     ZZ    -155.5926

 Total job time:  125.65s(wall), 5575.53s(cpu)
        *  Thank you very much for using Q-Chem.  Have a nice day.  *
