 Q-Chem 5.0, Q-Chem, Inc., Pleasanton, CA (2017)
 Q-Chem 5.0.1 for Intel X86 EM64T Linux

User input:
--------------------------------------------------------------
$molecule
0  1
O 3.7157982128 -0.0036604545 -2.5115245248
C 3.7876550229 0.7589272723 -1.5228462967
C 4.8779519295 0.7441562864 -0.3947116121
C 4.4490714988 0.1909312683 1.0350814117
C 3.0306575114 -0.4838251792 1.1020674152
O 2.0036751061 0.4687610597 0.7828137019
C 0.8811910819 -0.2046383032 0.0833632997
C -0.2009393769 -0.7364368754 1.0997074361
O -1.4076149862 -1.2083937366 0.3795759542
C -2.4534928005 -0.2227757116 0.4394841597
C -3.8249694732 -0.9827768911 0.418956319
C -5.1076947378 -0.0801642403 0.6127799227
C -4.8933585139 1.4410455352 0.2793381663
O -4.385444762 1.9420882822 -0.7454338225
O 2.9487964488 1.9044583468 -1.3387174117
O -5.4148933268 2.2068486725 1.3748301109
O -2.2478233633 0.9876981815 0.6734291576
C -5.2296734993 3.6518400942 1.1097329269
C -4.1800914529 -1.7661930589 -0.9229727525
C -5.1279480742 -2.9627249118 -0.5217740558
C -6.4391457093 -2.1799477868 -0.1401211701
C -6.0410824788 -0.697577579 -0.5208625015
O -5.0914598374 -0.8543014077 -1.6482481457
H -3.7583905707 -1.709338569 1.2502115697
H -5.5364352114 -0.1721233767 1.625425436
H -3.3077149737 -2.0354302686 -1.5493469639
H -5.2930104265 -3.6261683649 -1.3859410322
H -4.7232288678 -3.5579874731 0.3119389953
H -7.3016822112 -2.5143385032 -0.7378519484
H -6.6930538303 -2.2744115981 0.9279439611
H -6.8871046209 -0.0481069738 -0.8185879024
O 2.8037920295 -1.6951779238 1.3154519356
C 2.0005870172 2.0268842077 -2.4707984741
C 6.0744400694 -0.240099078 -0.7479002003
C 7.3457132019 0.223407134 0.0636602627
C 6.9492994003 -0.2236307223 1.5202334641
C 5.5556021091 -0.9195481488 1.2608773848
O 5.6956412972 -1.5112561815 -0.0906019356
H 5.2365684853 1.7837012323 -0.2852167998
H 4.4975332054 1.0005999545 1.7867525125
H 1.456463688 1.0801012257 -2.6598715184
H 6.2220041006 -0.3965980763 -1.834160207
H 8.2418528532 -0.3099649729 -0.2912574934
H 7.5226399504 1.3078588958 -0.0179920286
H 7.671456137 -0.9452920888 1.933754876
H 6.8624440554 0.6268688135 2.2153362447
H 5.2604258063 -1.697724792 1.991133276
H 2.5247956148 2.3197169055 -3.403897126
H 1.2842761948 2.8195737215 -2.1865850753
H -5.6363995358 4.1797131482 1.9918860765
H -5.7761008726 3.9747677044 0.1999586682
H -4.1575033193 3.9066040636 0.9842066199
H 0.2062097358 -1.6100219897 1.6498358768
H -0.4573968543 0.0782484905 1.808823885
H 1.241437938 -1.0370400981 -0.556255374
H 0.416647554 0.5766794299 -0.551414568
$end

$rem
JOBTYPE                   OPT
METHOD                    B3LYP
DFT_D                     d3_op
BASIS                     STO-3G
GEOM_OPT_MAX_CYCLES       100
GEOM_OPT_TOL_GRADIENT     300
GEOM_OPT_TOL_DISPLACEMENT 1200
GEOM_OPT_TOL_ENERGY       100
SYMMETRY                  False
THRESH                    12
SCF_CONVERGENCE           8
MAX_SUB_FILE_NUM          128
MEM_STATIC                400
MEM_TOTAL                 4000
$end
--------------------------------------------------------------

   16   -1510.2659912170      5.82E-09 Convergence criterion met
 Total energy in the final basis set = -1510.26599122
   13   -1510.2719502394      4.85E-09 Convergence criterion met
 Total energy in the final basis set = -1510.27195024
   13   -1510.2761771443      7.96E-09 Convergence criterion met
 Total energy in the final basis set = -1510.27617714
   13   -1510.2791168976      6.55E-09 Convergence criterion met
 Total energy in the final basis set = -1510.27911690
   13   -1510.2810416932      4.33E-09 Convergence criterion met
 Total energy in the final basis set = -1510.28104169
   13   -1510.2824536363      4.60E-09 Convergence criterion met
 Total energy in the final basis set = -1510.28245364
   13   -1510.2834632633      6.48E-09 Convergence criterion met
 Total energy in the final basis set = -1510.28346326
   13   -1510.2843089926      3.79E-09 Convergence criterion met
   12   -1510.2875271931      9.60E-09 Convergence criterion met
 Total energy in the final basis set = -1510.28752719
   12   -1510.2876428271      6.34E-09 Convergence criterion met
 Total energy in the final basis set = -1510.28764283
   12   -1510.2876994861      7.08E-09 Convergence criterion met
 Total energy in the final basis set = -1510.28769949
   12   -1510.2877143968      2.57E-09 Convergence criterion met
 Total energy in the final basis set = -1510.28771440
   11   -1510.2877045829      9.58E-09 Convergence criterion met
 Total energy in the final basis set = -1510.28770458
   10   -1510.2877119974      4.82E-09 Convergence criterion met
 Total energy in the final basis set = -1510.28771200

             Standard Nuclear Orientation (Angstroms)
    I     Atom           X                Y                Z
 ----------------------------------------------------------------
    1      O      -3.1041700577    -0.1753415960     2.1385243028
    2      C      -3.4060370941     0.8175788025     1.4417536112
    3      C      -4.4976341856     0.9029564840     0.3177364141
    4      C      -4.1709057189     0.0060095440    -0.9528170048
    5      C      -2.8189510971    -0.7826889055    -0.8452220807
    6      O      -1.7944396886     0.1442371303    -0.4572829155
    7      C      -0.5070261684    -0.5562420875    -0.2413822590
    8      C       0.2387302057    -0.8096335984    -1.6065636559
    9      O       1.5757520261    -1.4150415884    -1.3875104307
   10      C       2.5082781426    -0.4231740467    -0.9492454937
   11      C       3.8827875364    -1.1165625846    -0.6770873168
   12      C       5.0185291261    -0.0873795438    -0.2809352138
   13      C       4.5836839021     1.4256961042    -0.3378341750
   14      O       4.3765861715     2.1891455815     0.6286261219
   15      O      -2.8150416036     2.1151056362     1.5882432950
   16      O       4.6073549063     1.8377062405    -1.7134997230
   17      O       2.2252134056     0.7869134502    -0.7973329823
   18      C       4.1386299649     3.2364446183    -1.8213733009
   19      C       3.8055107331    -1.9989543945     0.6453212215
   20      C       5.0925621727    -2.9110867596     0.7199460040
   21      C       6.1838036022    -1.8651622833     1.1585922180
   22      C       5.3293005973    -0.5395226698     1.2069635227
   23      O       4.0138328868    -0.9989177686     1.7154067394
   24      H       4.1561623408    -1.7263683394    -1.5569143504
   25      H       5.8965737128    -0.2133695325    -0.9393629960
   26      H       2.8419493471    -2.5280800524     0.7809513076
   27      H       4.9602998958    -3.7004092197     1.4767425370
   28      H       5.3198402022    -3.3845086851    -0.2484899976
   29      H       6.5868160275    -2.0994791134     2.1567324215
   30      H       7.0212500587    -1.7982856354     0.4458569830
   31      H       5.7257048854     0.2698843606     1.8500249359
   32      O      -2.6237836286    -1.9974803863    -1.0583814767
   33      C      -1.7563244009     2.0712999011     2.6228105997
   34      C      -5.8672473522     0.2451503820     0.7854782169
   35      C      -7.0049839833     0.6904635365    -0.2169809755
   36      C      -6.6765638887    -0.2050396477    -1.4694176771
   37      C      -5.4049264166    -0.9867136233    -0.9576143055
   38      O      -5.6786937270    -1.1916401802     0.4839367251
   39      H      -4.6211195065     1.9632184235     0.0363126111
   40      H      -4.1373727495     0.6252824989    -1.8685105791
   41      H      -0.9451335767     1.3684263506     2.3443528553
   42      H      -6.1009307659     0.3865578975     1.8584542084
   43      H      -7.9973753931     0.4543658020     0.1986634346
   44      H      -6.9624358124     1.7683307660    -0.4406020471
   45      H      -7.4967303177    -0.9065659189    -1.6897743168
   46      H      -6.4656562439     0.3876060812    -2.3739746673
   47      H      -5.1970049296    -1.9548524435    -1.4537331118
   48      H      -2.1605803111     1.7670580593     3.6099710843
   49      H      -1.3489001281     3.0968499975     2.6886003699
   50      H       4.2340844423     3.5127546692    -2.8876460089
   51      H       4.7504525932     3.9238220604    -1.2019572476
   52      H       3.0784137251     3.3271997253    -1.5072964032
   53      H      -0.3283009810    -1.5440662975    -2.2126400179
   54      H       0.3247022974     0.1500482408    -2.1595230457
   55      H      -0.6646206563    -1.5215143565     0.2845998286
   56      H       0.1012898764     0.1222389868     0.3895989015
 ----------------------------------------------------------------

    9   -1510.2877104888      7.54E-09 Convergence criterion met
 Total energy in the final basis set = -1510.28771049
 Final energy is   -1510.28771048885
 **  OPTIMIZATION CONVERGED  **

                    Orbital Energies (a.u.)
 --------------------------------------------------------------

 Alpha MOs
 -- Occupied --
-18.946 -18.941 -18.928 -18.919 -18.889 -18.887 -18.886 -18.884
-18.864 -18.860 -10.110 -10.106 -10.093 -10.090 -10.077 -10.075
-10.062 -10.059 -10.058 -10.058 -10.057 -10.054 -10.042 -10.040
-10.035 -10.033 -10.021 -10.020 -10.020 -10.019  -1.024  -1.018
 -1.003  -0.997  -0.971  -0.969  -0.948  -0.943  -0.928  -0.924
 -0.765  -0.763  -0.729  -0.723  -0.712  -0.705  -0.697  -0.658
 -0.654  -0.622  -0.597  -0.585  -0.546  -0.546  -0.538  -0.537
 -0.512  -0.510  -0.488  -0.473  -0.461  -0.455  -0.454  -0.450
 -0.438  -0.431  -0.428  -0.411  -0.408  -0.407  -0.403  -0.397
 -0.394  -0.388  -0.373  -0.366  -0.362  -0.358  -0.352  -0.349
 -0.344  -0.341  -0.333  -0.332  -0.330  -0.327  -0.326  -0.314
 -0.310  -0.307  -0.305  -0.303  -0.293  -0.286  -0.277  -0.276
 -0.273  -0.264  -0.251  -0.248  -0.244  -0.235  -0.233  -0.198
 -0.175  -0.170  -0.164  -0.164  -0.161  -0.146  -0.145  -0.142
 -0.141

          Ground-State Mulliken Net Atomic Charges

     Atom                 Charge (a.u.)
  ----------------------------------------
      1 O                    -0.218726
      2 C                     0.210876
      3 C                    -0.079264
      4 C                    -0.078218
      5 C                     0.213721
      6 O                    -0.170661
      7 C                    -0.051942
      8 C                    -0.052253
      9 O                    -0.169021
     10 C                     0.214729
     11 C                    -0.077906
     12 C                    -0.081683
     13 C                     0.215749
     14 O                    -0.217436
     15 O                    -0.169241
     16 O                    -0.176919
     17 O                    -0.207651
     18 C                    -0.128553
     19 C                     0.024862
     20 C                    -0.143734
     21 C                    -0.143892
     22 C                     0.024612
     23 O                    -0.189887
     24 H                     0.088121
     25 H                     0.083901
     26 H                     0.085170
     27 H                     0.078929
     28 H                     0.074040
     29 H                     0.078401
     30 H                     0.073553
     31 H                     0.089602
     32 O                    -0.208349
     33 C                    -0.127974
     34 C                     0.025658
     35 C                    -0.144018
     36 C                    -0.144019
     37 C                     0.024111
     38 O                    -0.186507
     39 H                     0.086135
     40 H                     0.085026
     41 H                     0.088006
     42 H                     0.083980
     43 H                     0.078163
     44 H                     0.073595
     45 H                     0.078429
     46 H                     0.072692
     47 H                     0.090019
     48 H                     0.088060
     49 H                     0.090462
     50 H                     0.085655
     51 H                     0.086901
     52 H                     0.091103
     53 H                     0.096624
     54 H                     0.093238
     55 H                     0.097469
     56 H                     0.096263
  ----------------------------------------
  Sum of atomic charges =     0.000000

                    Cartesian Multipole Moments
 -----------------------------------------------------------------
    Charge (ESU x 10^10)
                 0.0000
    Dipole Moment (Debye)
         X       0.5017      Y       0.8113      Z      -2.5718
       Tot       2.7430
    Quadrupole Moments (Debye-Ang)
        XX    -142.7268     XY     -16.4328     YY    -161.6921
        XZ       2.0454     YZ      -0.0083     ZZ    -158.5087

 Total job time:  72.96s(wall), 3265.46s(cpu)
        *  Thank you very much for using Q-Chem.  Have a nice day.  *
