 Q-Chem 5.0, Q-Chem, Inc., Pleasanton, CA (2017)
 Q-Chem 5.0.1 for Intel X86 EM64T Linux

User input:
--------------------------------------------------------------
$molecule
0  1
O -3.94934 -3.66094 2.70899
C -3.26408 -4.56952 2.26188
C -3.36658 -6.02376 2.66595
C -2.24096 -6.58905 3.54759
C -1.23156 -5.59286 4.0737
O -0.56427 -5.01425 3.0319
C -0.19865 -3.6533 3.28369
C 1.17873 -3.59108 3.93567
O 1.63158 -2.22931 3.99387
C 2.53237 -1.87329 3.04467
C 3.49482 -0.80943 3.51645
C 4.61576 -0.46493 2.52494
C 4.41348 -0.95115 1.10389
O 3.40483 -0.78276 0.43394
O -2.40891 -4.29332 1.24219
O 5.4426 -1.65789 0.56712
O 2.66615 -2.54825 2.03237
C 5.43649 -2.19612 -0.70265
C 2.84036 0.5732 3.6995
C 3.6695 1.40385 4.67785
C 4.8988 1.68751 3.83689
C 4.46764 1.06748 2.50222
O 3.07032 1.23846 2.48254
H 3.90428 -1.15707 4.49234
H 5.62055 -0.79249 2.87399
H 1.78216 0.51938 4.0366
H 3.12028 2.35958 4.83735
H 3.86776 0.92833 5.66245
H 5.01178 2.79034 3.74236
H 5.84427 1.23651 4.20879
H 5.02637 1.52943 1.65791
O -1.11047 -5.26129 5.24776
C -2.33215 -3.0709 0.60494
C -4.57499 -6.27772 3.6002
C -4.99398 -7.7457 3.5297
C -3.85364 -8.39878 4.27793
C -3.06708 -7.15922 4.7162
O -4.05172 -6.17439 4.9006
H -3.53665 -6.60468 1.73174
H -1.66039 -7.38541 3.03119
H -2.08147 -2.26771 1.32989
H -5.45226 -5.63256 3.37415
H -5.9213 -7.85156 4.13755
H -5.18045 -8.13917 2.50734
H -4.27149 -8.92843 5.16295
H -3.22801 -9.09503 3.67845
H -2.44246 -7.40165 5.60411
H -3.30188 -2.83571 0.11674
H -1.54202 -3.1145 -0.17236
H 6.39855 -2.71872 -0.88096
H 5.32098 -1.39067 -1.45915
H 4.60716 -2.92859 -0.80366
H 1.14375 -4.00092 4.9659
H 1.87352 -4.25801 3.37503
H -0.97038 -3.08437 3.85213
H -0.09273 -3.16301 2.2951
$end

$opt
CONSTRAINT
tors           1           2           3           4    -106.777
tors           3           4           5           6     -62.638
tors           4           5           6           7    +146.864
tors           5           6           7           8     +89.792
tors           6           7           8           9    +170.965
tors           7           8           9          10    -101.199
tors           8           9          10          11    -149.168
tors           9          10          11          12    +174.568
tors          11          12          13          14     +50.102
ENDCONSTRAINT
$end

$rem
JOBTYPE                   OPT
METHOD                    B3LYP
DFT_D                     d3_op
BASIS                     STO-3G
GEOM_OPT_MAX_CYCLES       100
GEOM_OPT_TOL_GRADIENT     300
GEOM_OPT_TOL_DISPLACEMENT 1200
GEOM_OPT_TOL_ENERGY       100
SYMMETRY                  False
THRESH                    12
SCF_CONVERGENCE           8
MAX_SUB_FILE_NUM          128
MEM_STATIC                400
MEM_TOTAL                 4000
$end
--------------------------------------------------------------

   15   -1510.1413163437      6.31E-09 Convergence criterion met
 Total energy in the final basis set = -1510.14131634
   14   -1510.2110586726      6.04E-09 Convergence criterion met
 Total energy in the final basis set = -1510.21105867
   14   -1510.2472692212      7.19E-09 Convergence criterion met
 Total energy in the final basis set = -1510.24726922
   14   -1510.2609727137      7.99E-09 Convergence criterion met
 Total energy in the final basis set = -1510.26097271
   14   -1510.2630932661      6.54E-09 Convergence criterion met
 Total energy in the final basis set = -1510.26309327
   14   -1510.2646284078      3.26E-09 Convergence criterion met
 Total energy in the final basis set = -1510.26462841
   13   -1510.2655557534      7.16E-09 Convergence criterion met
 Total energy in the final basis set = -1510.26555575
   12   -1510.2659802729      3.93E-09 Convergence criterion met
   11   -1510.2661868089      3.91E-09 Convergence criterion met
 Total energy in the final basis set = -1510.26618681
    9   -1510.2661897230      9.58E-09 Convergence criterion met
 Total energy in the final basis set = -1510.26618972
   10   -1510.2661915168      5.40E-09 Convergence criterion met
 Total energy in the final basis set = -1510.26619152
    9   -1510.2661928944      8.71E-09 Convergence criterion met
 Total energy in the final basis set = -1510.26619289
    9   -1510.2661946179      5.15E-09 Convergence criterion met
 Total energy in the final basis set = -1510.26619462
    9   -1510.2661956753      4.14E-09 Convergence criterion met
 Total energy in the final basis set = -1510.26619568

             Standard Nuclear Orientation (Angstroms)
    I     Atom           X                Y                Z
 ----------------------------------------------------------------
    1      O       3.7157982128    -0.0036604545    -2.5115245248
    2      C       3.7876550229     0.7589272723    -1.5228462967
    3      C       4.8779519295     0.7441562864    -0.3947116121
    4      C       4.4490714988     0.1909312683     1.0350814117
    5      C       3.0306575114    -0.4838251792     1.1020674152
    6      O       2.0036751061     0.4687610597     0.7828137019
    7      C       0.8811910819    -0.2046383032     0.0833632997
    8      C      -0.2009393769    -0.7364368754     1.0997074361
    9      O      -1.4076149862    -1.2083937366     0.3795759542
   10      C      -2.4534928005    -0.2227757116     0.4394841597
   11      C      -3.8249694732    -0.9827768911     0.4189563190
   12      C      -5.1076947378    -0.0801642403     0.6127799227
   13      C      -4.8933585139     1.4410455352     0.2793381663
   14      O      -4.3854447620     1.9420882822    -0.7454338225
   15      O       2.9487964488     1.9044583468    -1.3387174117
   16      O      -5.4148933268     2.2068486725     1.3748301109
   17      O      -2.2478233633     0.9876981815     0.6734291576
   18      C      -5.2296734993     3.6518400942     1.1097329269
   19      C      -4.1800914529    -1.7661930589    -0.9229727525
   20      C      -5.1279480742    -2.9627249118    -0.5217740558
   21      C      -6.4391457093    -2.1799477868    -0.1401211701
   22      C      -6.0410824788    -0.6975775790    -0.5208625015
   23      O      -5.0914598374    -0.8543014077    -1.6482481457
   24      H      -3.7583905707    -1.7093385690     1.2502115697
   25      H      -5.5364352114    -0.1721233767     1.6254254360
   26      H      -3.3077149737    -2.0354302686    -1.5493469639
   27      H      -5.2930104265    -3.6261683649    -1.3859410322
   28      H      -4.7232288678    -3.5579874731     0.3119389953
   29      H      -7.3016822112    -2.5143385032    -0.7378519484
   30      H      -6.6930538303    -2.2744115981     0.9279439611
   31      H      -6.8871046209    -0.0481069738    -0.8185879024
   32      O       2.8037920295    -1.6951779238     1.3154519356
   33      C       2.0005870172     2.0268842077    -2.4707984741
   34      C       6.0744400694    -0.2400990780    -0.7479002003
   35      C       7.3457132019     0.2234071340     0.0636602627
   36      C       6.9492994003    -0.2236307223     1.5202334641
   37      C       5.5556021091    -0.9195481488     1.2608773848
   38      O       5.6956412972    -1.5112561815    -0.0906019356
   39      H       5.2365684853     1.7837012323    -0.2852167998
   40      H       4.4975332054     1.0005999545     1.7867525125
   41      H       1.4564636880     1.0801012257    -2.6598715184
   42      H       6.2220041006    -0.3965980763    -1.8341602070
   43      H       8.2418528532    -0.3099649729    -0.2912574934
   44      H       7.5226399504     1.3078588958    -0.0179920286
   45      H       7.6714561370    -0.9452920888     1.9337548760
   46      H       6.8624440554     0.6268688135     2.2153362447
   47      H       5.2604258063    -1.6977247920     1.9911332760
   48      H       2.5247956148     2.3197169055    -3.4038971260
   49      H       1.2842761948     2.8195737215    -2.1865850753
   50      H      -5.6363995358     4.1797131482     1.9918860765
   51      H      -5.7761008726     3.9747677044     0.1999586682
   52      H      -4.1575033193     3.9066040636     0.9842066199
   53      H       0.2062097358    -1.6100219897     1.6498358768
   54      H      -0.4573968543     0.0782484905     1.8088238850
   55      H       1.2414379380    -1.0370400981    -0.5562553740
   56      H       0.4166475540     0.5766794299    -0.5514145680
 ----------------------------------------------------------------

    8   -1510.2661959684      7.06E-09 Convergence criterion met
 Total energy in the final basis set = -1510.26619597
 Final energy is   -1510.26619596837
 **  OPTIMIZATION CONVERGED  **

                    Orbital Energies (a.u.)
 --------------------------------------------------------------

 Alpha MOs
 -- Occupied --
-18.934 -18.930 -18.929 -18.926 -18.889 -18.885 -18.885 -18.884
-18.875 -18.865 -10.104 -10.103 -10.099 -10.091 -10.071 -10.069
-10.063 -10.061 -10.060 -10.058 -10.057 -10.057 -10.040 -10.040
-10.038 -10.036 -10.021 -10.020 -10.020 -10.019  -1.016  -1.013
 -1.008  -1.001  -0.971  -0.969  -0.942  -0.938  -0.935  -0.926
 -0.764  -0.762  -0.726  -0.722  -0.713  -0.705  -0.695  -0.663
 -0.658  -0.617  -0.597  -0.584  -0.546  -0.546  -0.538  -0.537
 -0.514  -0.510  -0.483  -0.467  -0.463  -0.456  -0.452  -0.449
 -0.437  -0.433  -0.429  -0.415  -0.410  -0.409  -0.405  -0.397
 -0.391  -0.385  -0.371  -0.367  -0.360  -0.355  -0.353  -0.350
 -0.348  -0.338  -0.336  -0.333  -0.331  -0.330  -0.321  -0.315
 -0.311  -0.305  -0.305  -0.300  -0.295  -0.283  -0.278  -0.275
 -0.272  -0.260  -0.253  -0.248  -0.243  -0.234  -0.233  -0.192
 -0.177  -0.171  -0.163  -0.159  -0.158  -0.150  -0.146  -0.143
 -0.140

          Ground-State Mulliken Net Atomic Charges

     Atom                 Charge (a.u.)
  ----------------------------------------
      1 O                    -0.213029
      2 C                     0.205454
      3 C                    -0.079384
      4 C                    -0.076859
      5 C                     0.209269
      6 O                    -0.173668
      7 C                    -0.049539
      8 C                    -0.052730
      9 O                    -0.179881
     10 C                     0.212131
     11 C                    -0.078328
     12 C                    -0.080041
     13 C                     0.212671
     14 O                    -0.209302
     15 O                    -0.165087
     16 O                    -0.172516
     17 O                    -0.204860
     18 C                    -0.128873
     19 C                     0.026701
     20 C                    -0.142077
     21 C                    -0.145332
     22 C                     0.025805
     23 O                    -0.185657
     24 H                     0.085994
     25 H                     0.086010
     26 H                     0.087834
     27 H                     0.078650
     28 H                     0.074289
     29 H                     0.078367
     30 H                     0.073824
     31 H                     0.082630
     32 O                    -0.205013
     33 C                    -0.129329
     34 C                     0.024022
     35 C                    -0.143461
     36 C                    -0.144868
     37 C                     0.024215
     38 O                    -0.188244
     39 H                     0.086068
     40 H                     0.085967
     41 H                     0.090475
     42 H                     0.088779
     43 H                     0.078385
     44 H                     0.072877
     45 H                     0.078342
     46 H                     0.072812
     47 H                     0.089350
     48 H                     0.086724
     49 H                     0.092844
     50 H                     0.087757
     51 H                     0.086733
     52 H                     0.091837
     53 H                     0.094578
     54 H                     0.093142
     55 H                     0.090969
     56 H                     0.092573
  ----------------------------------------
  Sum of atomic charges =    -0.000000

                    Cartesian Multipole Moments
 -----------------------------------------------------------------
    Charge (ESU x 10^10)
                -0.0000
    Dipole Moment (Debye)
         X      -0.3052      Y       1.0280      Z       2.1715
       Tot       2.4218
    Quadrupole Moments (Debye-Ang)
        XX    -140.4650     XY      14.8703     YY    -159.1206
        XZ      -2.1876     YZ      -1.9370     ZZ    -160.8566

 Total job time:  51.15s(wall), 2425.68s(cpu)
        *  Thank you very much for using Q-Chem.  Have a nice day.  *
