 Q-Chem 5.0, Q-Chem, Inc., Pleasanton, CA (2017)
 Q-Chem 5.0.1 for Intel X86 EM64T Linux

User input:
--------------------------------------------------------------
$molecule
0  1
O -4.4814157533 2.1221123918 1.6223615786
C -4.5470512284 1.7631350922 0.4267257943
C -5.0634989225 0.3899660864 -0.1299624633
C -4.0029140961 -0.4884576278 -0.9255995564
C -2.5098206428 -0.0126288297 -0.7030008829
O -1.7295559531 -1.1362760134 -0.2939385296
C -0.2820790838 -0.8668650093 -0.0956630547
C 0.4677421468 -0.0080593284 -1.1913146861
O 1.4754929456 0.8162635074 -0.4796334183
C 2.7926102298 0.567959074 -0.9995102351
C 3.8284311466 1.0590995494 0.0646976731
C 4.5087825356 -0.1392106708 0.8649776725
C 4.0351679243 -1.5580427933 0.3985221981
O 4.376205411 -2.188563078 -0.6243722535
O -4.320300326 2.6281748507 -0.6901649295
O 3.0635304735 -2.0354615217 1.342301411
O 3.0185407099 -0.0026216763 -2.0885233723
C 2.5676116029 -3.3673687098 0.9249706748
C 5.1037025165 1.7298341273 -0.6051561146
C 5.8835107217 2.5308954619 0.5114045731
C 6.5498560644 1.3545101386 1.3169717737
C 6.0374907425 0.0999277302 0.5058292812
O 5.9896307063 0.5806237415 -0.892810369
H 3.312460132 1.7478758329 0.7564365339
H 4.3125799546 -0.0466020797 1.9476790986
H 4.8886516091 2.2938920398 -1.5333279367
H 6.6403265163 3.1876829197 0.0539509378
H 5.2094252628 3.144473262 1.1302860703
H 7.6493389704 1.4123061602 1.2808372953
H 6.2318996888 1.3257714852 2.3714848948
H 6.6697458705 -0.8058302329 0.5802945196
O -2.0774001235 1.1542794743 -0.8282857497
C -3.7992726709 3.9334012084 -0.2262073975
C -5.5296972086 -0.6278207854 0.9951572109
C -6.6107258131 -1.5766969409 0.3484336763
C -5.7087032445 -2.4164449554 -0.6306213621
C -4.2627375787 -1.8989028276 -0.2515843273
O -4.3713477326 -1.5324336357 1.1816705827
H -5.9080024734 0.627330655 -0.8030822698
H -4.2122795603 -0.4798640942 -2.0113587918
H -2.7862630503 3.8257657615 0.2125402026
H -5.807866257 -0.147727778 1.9535635159
H -7.0689083088 -2.2167822817 1.119409123
H -7.4068022105 -1.0200295007 -0.1713557607
H -5.7950858025 -3.4973443428 -0.4378489868
H -5.9466567583 -2.2286975332 -1.6900688782
H -3.4444871659 -2.6271034143 -0.4036510887
H -4.4673813218 4.3966788526 0.5283663412
H -3.7444073899 4.5775075094 -1.1228661822
H 1.7440494646 -3.6199526679 1.6180807647
H 3.3610941806 -4.1392092828 0.9987318798
H 2.1908477699 -3.3558672534 -0.1182387111
H 0.9702316914 -0.634650049 -1.9575014164
H -0.2608467885 0.6761500107 -1.6715192024
H 0.1733977525 -1.8732198731 -0.0090260291
H -0.1412338983 -0.3414309262 0.8766584026
$end

$rem
JOBTYPE                   OPT
METHOD                    B3LYP
DFT_D                     d3_op
BASIS                     STO-3G
GEOM_OPT_MAX_CYCLES       100
GEOM_OPT_TOL_GRADIENT     300
GEOM_OPT_TOL_DISPLACEMENT 1200
GEOM_OPT_TOL_ENERGY       100
SYMMETRY                  False
THRESH                    12
SCF_CONVERGENCE           8
MAX_SUB_FILE_NUM          128
MEM_STATIC                400
MEM_TOTAL                 4000
$end
--------------------------------------------------------------

   16   -1510.2685192046      6.31E-09 Convergence criterion met
 Total energy in the final basis set = -1510.26851920
   15   -1510.2718147874      2.11E-09 Convergence criterion met
 Total energy in the final basis set = -1510.27181479
   15   -1510.2742772991      1.90E-09 Convergence criterion met
 Total energy in the final basis set = -1510.27427730
   14   -1510.2763814703      2.20E-09 Convergence criterion met
 Total energy in the final basis set = -1510.27638147
   14   -1510.2781637140      2.18E-09 Convergence criterion met
 Total energy in the final basis set = -1510.27816371
   13   -1510.2796448651      7.32E-09 Convergence criterion met
 Total energy in the final basis set = -1510.27964487
   13   -1510.2807757217      8.01E-09 Convergence criterion met
 Total energy in the final basis set = -1510.28077572
   13   -1510.2817516594      3.51E-09 Convergence criterion met
   11   -1510.2883063238      5.75E-09 Convergence criterion met
 Total energy in the final basis set = -1510.28830632
   11   -1510.2883017566      6.51E-09 Convergence criterion met
 Total energy in the final basis set = -1510.28830176
   10   -1510.2882995710      6.42E-09 Convergence criterion met
 Total energy in the final basis set = -1510.28829957
   12   -1510.2882835340      2.95E-09 Convergence criterion met
 Total energy in the final basis set = -1510.28828353
   12   -1510.2882500351      8.30E-09 Convergence criterion met
 Total energy in the final basis set = -1510.28825004
   12   -1510.2882718501      5.15E-09 Convergence criterion met
 Total energy in the final basis set = -1510.28827185

             Standard Nuclear Orientation (Angstroms)
    I     Atom           X                Y                Z
 ----------------------------------------------------------------
    1      O      -4.8288012062     1.7996619821     1.8265880853
    2      C      -4.6060091884     1.5760165185     0.6185080620
    3      C      -5.1011231420     0.3471716824    -0.2320651621
    4      C      -3.9463973842    -0.6081436675    -0.7407729290
    5      C      -2.5462844733    -0.2149825721    -0.1657549295
    6      O      -1.5353699413    -0.9152255698    -0.8961006015
    7      C      -0.1920562713    -0.5946089736    -0.3551426437
    8      C       0.3351548199     0.7856230479    -0.9051919688
    9      O       1.5561721940     1.2268013788    -0.1869739346
   10      C       2.6811386951     0.4157915748    -0.5531493681
   11      C       3.9294120734     0.9268930454     0.2392607227
   12      C       4.7297663380    -0.2424402156     0.9539527114
   13      C       4.0981721148    -1.6660049481     0.7523831352
   14      O       4.6366447547    -2.6685954670     0.2389139935
   15      O      -3.9510479847     2.4931272379    -0.2724446730
   16      O       2.7735545485    -1.6560461065     1.3037508166
   17      O       2.6349570109    -0.5183009422    -1.3834274335
   18      C       2.1422292197    -2.9821252224     1.1143249358
   19      C       5.0478924745     1.4804119747    -0.7487401996
   20      C       6.1106306439     2.2848110443     0.0998910032
   21      C       6.9031559826     1.1118377727     0.7890600365
   22      C       6.1326122668    -0.1452640235     0.2266644238
   23      O       5.7737893968     0.2571589886    -1.1543035518
   24      H       3.5947323767     1.6949674380     0.9581332213
   25      H       4.8114109538    -0.0487529168     2.0392023805
   26      H       4.6541965989     2.0118627190    -1.6369083640
   27      H       6.7607786278     2.8773014602    -0.5633483469
   28      H       5.6345288611     2.9633360357     0.8256981132
   29      H       7.9568101399     1.0937279631     0.4681767760
   30      H       6.8689300660     1.1630708197     1.8890439069
   31      H       6.6966897683    -1.0980438997     0.2150554079
   32      O      -2.3150729553     0.5497828122     0.7979743891
   33      C      -3.4117063090     3.6344344119     0.4985875570
   34      C      -5.9648474151    -0.6551004115     0.6412707798
   35      C      -6.8100294820    -1.5575554958    -0.3391554170
   36      C      -5.6900394621    -2.4993106076    -0.9201586748
   37      C      -4.4211165246    -1.9969051341    -0.1227154234
   38      O      -4.9628388191    -1.5973439709     1.1946299470
   39      H      -5.6799313365     0.7354081965    -1.0893304928
   40      H      -3.8857352853    -0.6508857032    -1.8425658756
   41      H      -2.6497212603     3.2985882076     1.2318959580
   42      H      -6.5276610677    -0.1677840759     1.4609710194
   43      H      -7.5679648565    -2.1304471412     0.2185060538
   44      H      -7.3150882481    -0.9652414356    -1.1187986305
   45      H      -5.8917650081    -3.5581742801    -0.6929344216
   46      H      -5.5635921117    -2.3900404775    -2.0093492124
   47      H      -3.6119437167    -2.7441474292    -0.0058528058
   48      H      -4.2109764199     4.1764648828     1.0442910319
   49      H      -2.9429097460     4.3109610000    -0.2396170218
   50      H       1.1369889792    -2.9118030451     1.5688222610
   51      H       2.7200464950    -3.7856903720     1.6146367743
   52      H       2.0475250195    -3.2359029460     0.0384490817
   53      H       0.5211717282     0.7048364906    -1.9973759327
   54      H      -0.4195872532     1.5745295784    -0.7132852481
   55      H       0.4773599903    -1.4067086372    -0.6982578508
   56      H      -0.2073220841    -0.5608283190     0.7549832423
 ----------------------------------------------------------------

   11   -1510.2882716644      8.09E-09 Convergence criterion met
 Total energy in the final basis set = -1510.28827166
 Final energy is   -1510.28827166436
 **  OPTIMIZATION CONVERGED  **

                    Orbital Energies (a.u.)
 --------------------------------------------------------------

 Alpha MOs
 -- Occupied --
-18.944 -18.939 -18.933 -18.921 -18.888 -18.888 -18.886 -18.877
-18.877 -18.864 -10.107 -10.103 -10.099 -10.092 -10.075 -10.073
-10.065 -10.063 -10.062 -10.058 -10.057 -10.056 -10.041 -10.040
-10.038 -10.034 -10.022 -10.022 -10.020 -10.020  -1.022  -1.016
 -1.009  -0.999  -0.971  -0.971  -0.946  -0.940  -0.936  -0.926
 -0.765  -0.763  -0.729  -0.724  -0.714  -0.706  -0.696  -0.664
 -0.656  -0.623  -0.598  -0.585  -0.548  -0.545  -0.539  -0.537
 -0.513  -0.511  -0.485  -0.474  -0.464  -0.455  -0.454  -0.453
 -0.438  -0.432  -0.431  -0.415  -0.411  -0.408  -0.405  -0.397
 -0.394  -0.387  -0.374  -0.366  -0.362  -0.356  -0.354  -0.351
 -0.347  -0.343  -0.337  -0.334  -0.333  -0.328  -0.326  -0.314
 -0.311  -0.306  -0.306  -0.303  -0.292  -0.286  -0.279  -0.278
 -0.273  -0.264  -0.255  -0.250  -0.246  -0.235  -0.235  -0.195
 -0.178  -0.173  -0.166  -0.162  -0.158  -0.151  -0.146  -0.145
 -0.143

          Ground-State Mulliken Net Atomic Charges

     Atom                 Charge (a.u.)
  ----------------------------------------
      1 O                    -0.214299
      2 C                     0.216016
      3 C                    -0.081029
      4 C                    -0.078004
      5 C                     0.213713
      6 O                    -0.170542
      7 C                    -0.054135
      8 C                    -0.051112
      9 O                    -0.168320
     10 C                     0.210694
     11 C                    -0.078976
     12 C                    -0.078901
     13 C                     0.213445
     14 O                    -0.207152
     15 O                    -0.178492
     16 O                    -0.175222
     17 O                    -0.215552
     18 C                    -0.129495
     19 C                     0.025879
     20 C                    -0.143753
     21 C                    -0.143991
     22 C                     0.024617
     23 O                    -0.186226
     24 H                     0.087755
     25 H                     0.085264
     26 H                     0.082753
     27 H                     0.078434
     28 H                     0.074060
     29 H                     0.078669
     30 H                     0.073415
     31 H                     0.091149
     32 O                    -0.207960
     33 C                    -0.129183
     34 C                     0.024595
     35 C                    -0.143710
     36 C                    -0.143827
     37 C                     0.025295
     38 O                    -0.189070
     39 H                     0.083621
     40 H                     0.087611
     41 H                     0.091894
     42 H                     0.090581
     43 H                     0.078287
     44 H                     0.073337
     45 H                     0.078449
     46 H                     0.073937
     47 H                     0.083481
     48 H                     0.087159
     49 H                     0.085542
     50 H                     0.089156
     51 H                     0.089771
     52 H                     0.091202
     53 H                     0.090629
     54 H                     0.094177
     55 H                     0.098658
     56 H                     0.095709
  ----------------------------------------
  Sum of atomic charges =    -0.000000

                    Cartesian Multipole Moments
 -----------------------------------------------------------------
    Charge (ESU x 10^10)
                -0.0000
    Dipole Moment (Debye)
         X      -0.4666      Y       1.1358      Z      -0.5757
       Tot       1.3562
    Quadrupole Moments (Debye-Ang)
        XX    -154.8436     XY      13.3104     YY    -154.2566
        XZ      22.9058     YZ      -3.8419     ZZ    -166.0335

 Total job time:  111.10s(wall), 5252.30s(cpu)
        *  Thank you very much for using Q-Chem.  Have a nice day.  *
