 Q-Chem 5.0, Q-Chem, Inc., Pleasanton, CA (2017)
 Q-Chem 5.0.1 for Intel X86 EM64T Linux

User input:
--------------------------------------------------------------
$molecule
0  1
O -3.94934 -3.66094 2.70899
C -3.26408 -4.56952 2.26188
C -3.36658 -6.02376 2.66595
C -2.12836 -6.66087 3.31767
C -0.98754 -5.72649 3.65466
O -0.63123 -5.88255 4.9639
C 0.4822 -5.06773 5.34546
C 1.5726 -5.13595 4.28126
O 2.22646 -3.86215 4.16816
C 3.56893 -3.87677 4.35968
C 4.13228 -2.51297 4.68116
C 4.50466 -2.29748 6.15533
C 4.60028 -3.55032 7.00265
O 5.53058 -4.34342 6.99275
O -2.45501 -4.30415 1.20044
O 3.61251 -3.71747 7.92077
O 4.24476 -4.89642 4.43333
C 3.53247 -4.78398 8.79123
C 5.47191 -2.19077 3.99424
C 5.64225 -0.67561 3.89132
C 5.86654 -0.31472 5.348
C 5.91785 -1.71375 5.97507
O 6.44788 -2.52545 4.95193
H 3.37375 -1.75897 4.36506
H 3.78954 -1.60581 6.65489
H 5.57811 -2.66585 2.99465
H 6.58812 -0.49637 3.33122
H 4.81409 -0.12971 3.39033
H 6.85051 0.19725 5.43434
H 5.06976 0.30636 5.8118
H 6.48711 -1.69594 6.93072
O -0.7145 -4.742 2.97868
C -2.28627 -3.05372 0.64282
C -4.42274 -6.27859 3.76646
C -4.93288 -7.7133 3.66809
C -3.71587 -8.47439 4.14242
C -2.80323 -7.31097 4.55363
O -3.69188 -6.3047 4.96811
H -3.6821 -6.56744 1.74654
H -1.68126 -7.42536 2.64516
H -1.87589 -2.35051 1.39882
H -5.28383 -5.57608 3.73348
H -5.73821 -7.82041 4.43027
H -5.32807 -8.01993 2.6758
H -4.00883 -9.08612 5.02465
H -3.23015 -9.11823 3.37748
H -2.08476 -7.68125 5.31594
H -3.25629 -2.67053 0.26012
H -1.57188 -3.12609 -0.20265
H 2.6286 -4.66979 9.42403
H 4.42839 -4.81189 9.44755
H 3.45246 -5.73508 8.22226
H 2.21998 -5.99321 4.57028
H 1.34984 -5.41618 3.23934
H 0.85092 -5.28205 6.37097
H 0.09654 -4.02262 5.35916
$end

$opt
CONSTRAINT
tors           1           2           3           4    -117.934
tors           3           4           5           6    +127.485
tors           4           5           6           7    +177.613
tors           5           6           7           8     -44.762
tors           6           7           8           9    +144.721
tors           7           8           9          10    +123.069
tors           8           9          10          11    -161.053
tors           9          10          11          12    +104.555
tors          11          12          13          14     +76.829
ENDCONSTRAINT
$end

$rem
JOBTYPE                   OPT
METHOD                    B3LYP
DFT_D                     d3_op
BASIS                     STO-3G
GEOM_OPT_MAX_CYCLES       100
GEOM_OPT_TOL_GRADIENT     300
GEOM_OPT_TOL_DISPLACEMENT 1200
GEOM_OPT_TOL_ENERGY       100
SYMMETRY                  False
THRESH                    12
SCF_CONVERGENCE           8
MAX_SUB_FILE_NUM          128
MEM_STATIC                400
MEM_TOTAL                 4000
$end
--------------------------------------------------------------

   15   -1510.1230422421      6.04E-09 Convergence criterion met
 Total energy in the final basis set = -1510.12304224
   14   -1510.1955707456      6.93E-09 Convergence criterion met
 Total energy in the final basis set = -1510.19557075
   14   -1510.2351061316      7.84E-09 Convergence criterion met
 Total energy in the final basis set = -1510.23510613
   15   -1510.2557342428      1.36E-09 Convergence criterion met
 Total energy in the final basis set = -1510.25573424
   14   -1510.2639747817      4.16E-09 Convergence criterion met
 Total energy in the final basis set = -1510.26397478
   13   -1510.2668257165      6.68E-09 Convergence criterion met
 Total energy in the final basis set = -1510.26682572
   13   -1510.2676883240      7.83E-09 Convergence criterion met
 Total energy in the final basis set = -1510.26768832
   13   -1510.2680702026      4.35E-09 Convergence criterion met
   11   -1510.2685707697      4.13E-09 Convergence criterion met
 Total energy in the final basis set = -1510.26857077
   11   -1510.2685774047      3.81E-09 Convergence criterion met
 Total energy in the final basis set = -1510.26857740
   11   -1510.2685799560      3.63E-09 Convergence criterion met
 Total energy in the final basis set = -1510.26857996
   10   -1510.2685831033      9.93E-09 Convergence criterion met
 Total energy in the final basis set = -1510.26858310
   11   -1510.2685862521      2.36E-09 Convergence criterion met
 Total energy in the final basis set = -1510.26858625
   10   -1510.2685875452      7.79E-09 Convergence criterion met
 Total energy in the final basis set = -1510.26858755

             Standard Nuclear Orientation (Angstroms)
    I     Atom           X                Y                Z
 ----------------------------------------------------------------
    1      O      -4.4814157533     2.1221123918     1.6223615786
    2      C      -4.5470512284     1.7631350922     0.4267257943
    3      C      -5.0634989225     0.3899660864    -0.1299624633
    4      C      -4.0029140961    -0.4884576278    -0.9255995564
    5      C      -2.5098206428    -0.0126288297    -0.7030008829
    6      O      -1.7295559531    -1.1362760134    -0.2939385296
    7      C      -0.2820790838    -0.8668650093    -0.0956630547
    8      C       0.4677421468    -0.0080593284    -1.1913146861
    9      O       1.4754929456     0.8162635074    -0.4796334183
   10      C       2.7926102298     0.5679590740    -0.9995102351
   11      C       3.8284311466     1.0590995494     0.0646976731
   12      C       4.5087825356    -0.1392106708     0.8649776725
   13      C       4.0351679243    -1.5580427933     0.3985221981
   14      O       4.3762054110    -2.1885630780    -0.6243722535
   15      O      -4.3203003260     2.6281748507    -0.6901649295
   16      O       3.0635304735    -2.0354615217     1.3423014110
   17      O       3.0185407099    -0.0026216763    -2.0885233723
   18      C       2.5676116029    -3.3673687098     0.9249706748
   19      C       5.1037025165     1.7298341273    -0.6051561146
   20      C       5.8835107217     2.5308954619     0.5114045731
   21      C       6.5498560644     1.3545101386     1.3169717737
   22      C       6.0374907425     0.0999277302     0.5058292812
   23      O       5.9896307063     0.5806237415    -0.8928103690
   24      H       3.3124601320     1.7478758329     0.7564365339
   25      H       4.3125799546    -0.0466020797     1.9476790986
   26      H       4.8886516091     2.2938920398    -1.5333279367
   27      H       6.6403265163     3.1876829197     0.0539509378
   28      H       5.2094252628     3.1444732620     1.1302860703
   29      H       7.6493389704     1.4123061602     1.2808372953
   30      H       6.2318996888     1.3257714852     2.3714848948
   31      H       6.6697458705    -0.8058302329     0.5802945196
   32      O      -2.0774001235     1.1542794743    -0.8282857497
   33      C      -3.7992726709     3.9334012084    -0.2262073975
   34      C      -5.5296972086    -0.6278207854     0.9951572109
   35      C      -6.6107258131    -1.5766969409     0.3484336763
   36      C      -5.7087032445    -2.4164449554    -0.6306213621
   37      C      -4.2627375787    -1.8989028276    -0.2515843273
   38      O      -4.3713477326    -1.5324336357     1.1816705827
   39      H      -5.9080024734     0.6273306550    -0.8030822698
   40      H      -4.2122795603    -0.4798640942    -2.0113587918
   41      H      -2.7862630503     3.8257657615     0.2125402026
   42      H      -5.8078662570    -0.1477277780     1.9535635159
   43      H      -7.0689083088    -2.2167822817     1.1194091230
   44      H      -7.4068022105    -1.0200295007    -0.1713557607
   45      H      -5.7950858025    -3.4973443428    -0.4378489868
   46      H      -5.9466567583    -2.2286975332    -1.6900688782
   47      H      -3.4444871659    -2.6271034143    -0.4036510887
   48      H      -4.4673813218     4.3966788526     0.5283663412
   49      H      -3.7444073899     4.5775075094    -1.1228661822
   50      H       1.7440494646    -3.6199526679     1.6180807647
   51      H       3.3610941806    -4.1392092828     0.9987318798
   52      H       2.1908477699    -3.3558672534    -0.1182387111
   53      H       0.9702316914    -0.6346500490    -1.9575014164
   54      H      -0.2608467885     0.6761500107    -1.6715192024
   55      H       0.1733977525    -1.8732198731    -0.0090260291
   56      H      -0.1412338983    -0.3414309262     0.8766584026
 ----------------------------------------------------------------

    9   -1510.2685884815      6.37E-09 Convergence criterion met
 Total energy in the final basis set = -1510.26858848
 Final energy is   -1510.26858848152
 **  OPTIMIZATION CONVERGED  **

                    Orbital Energies (a.u.)
 --------------------------------------------------------------

 Alpha MOs
 -- Occupied --
-18.942 -18.935 -18.930 -18.929 -18.889 -18.884 -18.881 -18.880
-18.878 -18.871 -10.107 -10.099 -10.098 -10.096 -10.076 -10.067
-10.063 -10.060 -10.060 -10.058 -10.057 -10.056 -10.040 -10.040
-10.039 -10.035 -10.021 -10.020 -10.020 -10.019  -1.018  -1.013
 -1.009  -1.005  -0.970  -0.968  -0.944  -0.938  -0.935  -0.931
 -0.764  -0.762  -0.728  -0.723  -0.713  -0.706  -0.694  -0.666
 -0.658  -0.620  -0.597  -0.584  -0.548  -0.545  -0.538  -0.537
 -0.512  -0.510  -0.484  -0.472  -0.465  -0.458  -0.453  -0.445
 -0.435  -0.431  -0.430  -0.416  -0.411  -0.406  -0.404  -0.399
 -0.390  -0.384  -0.377  -0.369  -0.367  -0.356  -0.354  -0.349
 -0.345  -0.343  -0.336  -0.333  -0.332  -0.329  -0.328  -0.310
 -0.309  -0.307  -0.306  -0.301  -0.296  -0.281  -0.279  -0.277
 -0.271  -0.257  -0.255  -0.249  -0.247  -0.234  -0.232  -0.188
 -0.179  -0.175  -0.170  -0.161  -0.152  -0.149  -0.147  -0.144
 -0.142

          Ground-State Mulliken Net Atomic Charges

     Atom                 Charge (a.u.)
  ----------------------------------------
      1 O                    -0.214189
      2 C                     0.209762
      3 C                    -0.080645
      4 C                    -0.075454
      5 C                     0.212910
      6 O                    -0.169129
      7 C                    -0.050552
      8 C                    -0.063752
      9 O                    -0.173366
     10 C                     0.205072
     11 C                    -0.078407
     12 C                    -0.078747
     13 C                     0.202889
     14 O                    -0.203064
     15 O                    -0.166205
     16 O                    -0.172162
     17 O                    -0.203490
     18 C                    -0.130647
     19 C                     0.026501
     20 C                    -0.143851
     21 C                    -0.144115
     22 C                     0.026604
     23 O                    -0.182780
     24 H                     0.087716
     25 H                     0.086876
     26 H                     0.085610
     27 H                     0.078518
     28 H                     0.073884
     29 H                     0.078469
     30 H                     0.073635
     31 H                     0.085392
     32 O                    -0.212068
     33 C                    -0.126893
     34 C                     0.022537
     35 C                    -0.142475
     36 C                    -0.145785
     37 C                     0.023058
     38 O                    -0.191064
     39 H                     0.084170
     40 H                     0.085592
     41 H                     0.091594
     42 H                     0.089452
     43 H                     0.077736
     44 H                     0.072806
     45 H                     0.077519
     46 H                     0.072432
     47 H                     0.091253
     48 H                     0.088008
     49 H                     0.089454
     50 H                     0.090366
     51 H                     0.088830
     52 H                     0.088449
     53 H                     0.096819
     54 H                     0.102276
     55 H                     0.088937
     56 H                     0.093712
  ----------------------------------------
  Sum of atomic charges =     0.000000

                    Cartesian Multipole Moments
 -----------------------------------------------------------------
    Charge (ESU x 10^10)
                 0.0000
    Dipole Moment (Debye)
         X      -1.4158      Y       0.0381      Z       0.8187
       Tot       1.6359
    Quadrupole Moments (Debye-Ang)
        XX    -152.8144     XY       8.5745     YY    -150.6396
        XZ      22.7329     YZ      -1.7642     ZZ    -167.1759

 Total job time:  71.08s(wall), 2893.93s(cpu)
        *  Thank you very much for using Q-Chem.  Have a nice day.  *
