 Q-Chem 5.0, Q-Chem, Inc., Pleasanton, CA (2017)
 Q-Chem 5.0.1 for Intel X86 EM64T Linux

User input:
--------------------------------------------------------------
$molecule
0  1
O -4.1604181949 -1.6496093021 1.6109091272
C -4.6203087983 -1.1331686607 0.5690052398
C -4.964851402 0.3889769601 0.3606707312
C -3.725849545 1.3570687292 0.5505291752
C -2.3534147604 0.6045660089 0.4786094015
O -1.3253597778 1.4644300911 0.9905580337
C -0.1265329262 0.6686048383 1.3537368014
C 1.1601131973 1.4558365393 0.9028315133
O 2.2600899022 1.2454315184 1.8701667335
C 3.3657460446 0.4667079662 1.3548765598
C 3.0226294382 -0.7570225396 0.3971531547
C 4.0249827247 -0.9245013244 -0.8108102074
C 4.6949990657 0.3813531146 -1.3656801723
O 5.4205072699 0.4645692333 -2.3807542997
O -4.9399913306 -1.8686714029 -0.61568888
O 4.1675484337 1.5265465159 -0.6851371934
O 4.4779832 0.6332907329 1.8969278069
C 4.7424790858 2.7731729404 -1.2364099488
C 3.4185933156 -2.0572423875 1.2329989793
C 3.057751112 -3.3618895855 0.412273668
C 4.2682582607 -3.4437141659 -0.5932338423
C 4.9916174509 -2.0770379191 -0.2802523767
O 4.8986481934 -2.000636669 1.1939038575
H 1.9718509403 -0.77210212 0.0717933181
H 3.4645998371 -1.3274529939 -1.6760689325
H 3.0601606947 -2.0505002566 2.2808379747
H 3.0190117736 -4.2388278688 1.0773738926
H 2.087183406 -3.2684682469 -0.1018117453
H 4.9322838334 -4.2897004747 -0.3529418486
H 3.9507312478 -3.5277250733 -1.6447763606
H 6.0438975428 -1.9985296134 -0.6156815729
O -2.1504581116 -0.5511690444 0.0431402982
C -4.5702477764 -3.290879064 -0.4373528586
C -5.4648885667 0.8017797927 -1.0892982699
C -6.3047829725 2.1294194243 -0.9423671768
C -5.1661166776 3.1654648248 -0.6150124932
C -3.8762357917 2.2619925591 -0.7501779925
O -4.2375097529 1.262336432 -1.7814527493
H -5.735498553 0.6396813067 1.1134672358
H -3.773887656 1.9428393269 1.4849604991
H -5.1227652877 -3.7562786292 0.4045853266
H -5.9471926481 -0.0172326909 -1.6556184283
H -6.8069608654 2.3716844555 -1.8925820594
H -7.0643033616 2.0610291222 -0.1471640901
H -5.1408994575 3.9878005505 -1.347636992
H -5.2608504616 3.5963714343 0.3946981049
H -2.9521043277 2.8020364362 -1.0345447271
H -3.4827448601 -3.4032115179 -0.2508137675
H -4.8394509752 -3.7972370178 -1.3825624239
H 4.2516364403 3.6004216377 -0.6914498283
H 4.5413918077 2.866575942 -2.3233724524
H 5.838281896 2.820852337 -1.0731171832
H 1.4449619017 1.2142317774 -0.1397528777
H 0.9163301239 2.5406258796 0.9424285815
H -0.1975085459 -0.3356610849 0.8838595671
H -0.1011371545 0.5528784603 2.4597755245
$end

$rem
JOBTYPE                   OPT
METHOD                    B3LYP
DFT_D                     d3_op
BASIS                     STO-3G
GEOM_OPT_MAX_CYCLES       100
GEOM_OPT_TOL_GRADIENT     300
GEOM_OPT_TOL_DISPLACEMENT 1200
GEOM_OPT_TOL_ENERGY       100
SYMMETRY                  False
THRESH                    12
SCF_CONVERGENCE           8
MAX_SUB_FILE_NUM          128
MEM_STATIC                400
MEM_TOTAL                 4000
$end
--------------------------------------------------------------

   16   -1510.2565059844      2.78E-09 Convergence criterion met
 Total energy in the final basis set = -1510.25650598
   14   -1510.2603392590      1.60E-09 Convergence criterion met
 Total energy in the final basis set = -1510.26033926
   14   -1510.2633240882      1.68E-09 Convergence criterion met
 Total energy in the final basis set = -1510.26332409
   13   -1510.2654720723      8.96E-09 Convergence criterion met
 Total energy in the final basis set = -1510.26547207
   12   -1510.2673318972      9.72E-09 Convergence criterion met
 Total energy in the final basis set = -1510.26733190
   13   -1510.2688824124      4.26E-09 Convergence criterion met
 Total energy in the final basis set = -1510.26888241
   13   -1510.2701367230      4.03E-09 Convergence criterion met
 Total energy in the final basis set = -1510.27013672
   13   -1510.2712526766      3.18E-09 Convergence criterion met
   12   -1510.2927549968      6.00E-09 Convergence criterion met
 Total energy in the final basis set = -1510.29275500
   11   -1510.2927904199      9.52E-09 Convergence criterion met
 Total energy in the final basis set = -1510.29279042
   11   -1510.2928036598      9.46E-09 Convergence criterion met
 Total energy in the final basis set = -1510.29280366
   12   -1510.2928458632      6.48E-09 Convergence criterion met
 Total energy in the final basis set = -1510.29284586
   12   -1510.2928791347      3.75E-09 Convergence criterion met
 Total energy in the final basis set = -1510.29287913
   11   -1510.2928869185      7.00E-09 Convergence criterion met
 Total energy in the final basis set = -1510.29288692

             Standard Nuclear Orientation (Angstroms)
    I     Atom           X                Y                Z
 ----------------------------------------------------------------
    1      O      -3.4204505423    -2.2983992513     1.3527974086
    2      C      -2.9423563647    -1.7677058506     0.3269254293
    3      C      -3.2361468762    -0.3048862444    -0.1762206999
    4      C      -2.4373916006     0.8257512648     0.5941429952
    5      C      -1.3400338135     0.2617533222     1.5504736594
    6      O      -0.9417698481     1.2989876639     2.4407850809
    7      C       0.3306956871     0.9526882831     3.1282153098
    8      C       1.5047620134     1.6893834325     2.3633263795
    9      O       2.8144086133     1.0085460910     2.4375130497
   10      C       3.1216856946     0.1109799424     1.3482680569
   11      C       1.9680886372    -0.6717890461     0.5952341148
   12      C       1.4171998213    -0.0533284918    -0.7651705112
   13      C       1.9879849956     1.3516664715    -1.1228261899
   14      O       2.9467153937     1.6607275373    -1.8556687212
   15      O      -2.1395403634    -2.4699614255    -0.6333216804
   16      O       1.1745455974     2.3478223993    -0.4424887246
   17      O       4.3366031392    -0.1128738301     1.1509215743
   18      C       1.7054606424     3.7088604594    -0.6853133208
   19      C       2.5816307093    -2.0372520106     0.0549188251
   20      C       1.3908262989    -3.0122964873    -0.2890739509
   21      C       0.8583057892    -2.3822715483    -1.6291519449
   22      C       1.8543091332    -1.1682029652    -1.8049590504
   23      O       3.1353413672    -1.6754700625    -1.2683911595
   24      H       1.1110523248    -0.8609556424     1.2693125707
   25      H       0.3088753097     0.0228564018    -0.7623214014
   26      H       3.3755490853    -2.4590690839     0.7003549195
   27      H       1.7624471956    -4.0385793254    -0.4380645371
   28      H       0.6274553211    -3.0199805644     0.5044395271
   29      H       0.9538903181    -3.0841728323    -2.4725342668
   30      H      -0.1944784094    -2.0599622066    -1.5409954510
   31      H       1.9847369334    -0.8010815445    -2.8412640547
   32      O      -0.8397679811    -0.8897842426     1.5195966584
   33      C      -1.9939531418    -3.8834207584    -0.2155393085
   34      C      -2.7873252382    -0.0308315104    -1.6722863471
   35      C      -3.5629614873     1.2392671657    -2.1964303078
   36      C      -2.8275017630     2.3916520914    -1.4150783131
   37      C      -1.7331772178     1.5793083326    -0.6224639840
   38      O      -1.3960936155     0.4629933800    -1.5346156510
   39      H      -4.3225239572    -0.1427222592    -0.0550445640
   40      H      -3.1011295967     1.5020287415     1.1606248420
   41      H      -2.9726302899    -4.4058706090    -0.2147686652
   42      H      -2.8206913110    -0.9197208729    -2.3300832046
   43      H      -3.4337611579     1.3450526217    -3.2854751476
   44      H      -4.6401596584     1.1903845653    -1.9707435961
   45      H      -2.3503343835     3.1071361280    -2.1034420893
   46      H      -3.5004191414     2.9451257792    -0.7409180694
   47      H      -0.7964069986     2.1242012822    -0.3682920133
   48      H      -1.5503940923    -3.9660893017     0.7967640624
   49      H      -1.3228889399    -4.3544343687    -0.9562814252
   50      H       1.0279855469     4.4024521329    -0.1543082061
   51      H       1.7155323237     3.9496853709    -1.7671590399
   52      H       2.7348327249     3.8170154586    -0.2873885467
   53      H       1.2040608505     1.8817643048     1.3026227409
   54      H       1.6730739768     2.6725765936     2.8481538118
   55      H       0.4731528370    -0.1479224052     3.1308331214
   56      H       0.2400481960     1.3132340229     4.1717047456
 ----------------------------------------------------------------

    9   -1510.2928878269      7.17E-09 Convergence criterion met
 Total energy in the final basis set = -1510.29288783
 Final energy is   -1510.29288782687
 **  OPTIMIZATION CONVERGED  **

                    Orbital Energies (a.u.)
 --------------------------------------------------------------

 Alpha MOs
 -- Occupied --
-18.952 -18.952 -18.938 -18.919 -18.904 -18.898 -18.895 -18.875
-18.873 -18.869 -10.119 -10.108 -10.103 -10.090 -10.077 -10.076
-10.070 -10.065 -10.065 -10.058 -10.051 -10.047 -10.046 -10.046
-10.030 -10.029 -10.024 -10.022 -10.006 -10.001  -1.031  -1.023
 -1.012  -0.996  -0.985  -0.959  -0.956  -0.950  -0.937  -0.927
 -0.774  -0.752  -0.734  -0.721  -0.712  -0.703  -0.694  -0.670
 -0.663  -0.621  -0.596  -0.587  -0.555  -0.549  -0.540  -0.528
 -0.522  -0.504  -0.492  -0.484  -0.470  -0.463  -0.459  -0.452
 -0.441  -0.434  -0.426  -0.424  -0.417  -0.416  -0.405  -0.399
 -0.396  -0.390  -0.379  -0.374  -0.372  -0.365  -0.355  -0.353
 -0.346  -0.345  -0.342  -0.335  -0.330  -0.322  -0.321  -0.316
 -0.312  -0.308  -0.304  -0.297  -0.294  -0.288  -0.284  -0.278
 -0.269  -0.267  -0.260  -0.256  -0.244  -0.233  -0.221  -0.197
 -0.191  -0.179  -0.175  -0.167  -0.161  -0.159  -0.152  -0.139
 -0.132

          Ground-State Mulliken Net Atomic Charges

     Atom                 Charge (a.u.)
  ----------------------------------------
      1 O                    -0.216974
      2 C                     0.213509
      3 C                    -0.081568
      4 C                    -0.079310
      5 C                     0.216625
      6 O                    -0.168835
      7 C                    -0.057729
      8 C                    -0.071547
      9 O                    -0.177760
     10 C                     0.199526
     11 C                    -0.095912
     12 C                    -0.093926
     13 C                     0.212179
     14 O                    -0.193692
     15 O                    -0.170215
     16 O                    -0.177508
     17 O                    -0.194731
     18 C                    -0.129622
     19 C                     0.026804
     20 C                    -0.146573
     21 C                    -0.150755
     22 C                     0.026468
     23 O                    -0.188000
     24 H                     0.092641
     25 H                     0.106061
     26 H                     0.085179
     27 H                     0.072281
     28 H                     0.076139
     29 H                     0.070127
     30 H                     0.088856
     31 H                     0.082762
     32 O                    -0.213006
     33 C                    -0.126949
     34 C                     0.025474
     35 C                    -0.143346
     36 C                    -0.144348
     37 C                     0.014276
     38 O                    -0.193195
     39 H                     0.086197
     40 H                     0.090345
     41 H                     0.086645
     42 H                     0.092718
     43 H                     0.079752
     44 H                     0.075340
     45 H                     0.079003
     46 H                     0.075433
     47 H                     0.100485
     48 H                     0.093420
     49 H                     0.092634
     50 H                     0.091330
     51 H                     0.094303
     52 H                     0.095154
     53 H                     0.103874
     54 H                     0.081925
     55 H                     0.097410
     56 H                     0.090621
  ----------------------------------------
  Sum of atomic charges =    -0.000000

                    Cartesian Multipole Moments
 -----------------------------------------------------------------
    Charge (ESU x 10^10)
                 0.0000
    Dipole Moment (Debye)
         X      -5.4780      Y       2.1091      Z      -0.4317
       Tot       5.8859
    Quadrupole Moments (Debye-Ang)
        XX    -181.3136     XY      -1.6901     YY    -146.2126
        XZ       7.3674     YZ       1.9230     ZZ    -161.6364

 Total job time:  193.41s(wall), 8870.15s(cpu)
        *  Thank you very much for using Q-Chem.  Have a nice day.  *
