 Q-Chem 5.0, Q-Chem, Inc., Pleasanton, CA (2017)
 Q-Chem 5.0.1 for Intel X86 EM64T Linux

User input:
--------------------------------------------------------------
$molecule
0  1
O -3.94934 -3.66094 2.70899
C -3.26408 -4.56952 2.26188
C -3.36658 -6.02376 2.66595
C -4.71823 -6.72154 2.44237
C -5.76244 -5.93952 1.67675
O -6.98639 -6.52581 1.83046
C -8.07372 -5.65212 1.50855
C -9.14812 -6.41206 0.73766
O -10.44911 -5.92492 1.10239
C -11.11217 -5.24939 0.13123
C -10.20569 -4.37217 -0.6991
C -10.52673 -4.34728 -2.20063
C -11.88373 -4.89449 -2.59536
O -12.27428 -5.06213 -3.74162
O -2.36105 -4.26289 1.29125
O -12.81287 -5.31278 -1.70547
O -12.20999 -4.83122 0.47699
C -14.06165 -5.83432 -1.99445
C -10.41027 -2.85629 -0.39206
C -9.16163 -2.05796 -0.77628
C -9.20923 -2.17769 -2.2864
C -10.58412 -2.83608 -2.4619
O -11.32893 -2.39685 -1.35337
H -9.12295 -4.48682 -0.58673
H -9.76861 -4.913 -2.78582
H -10.67292 -2.65087 0.66903
H -9.37016 -1.00028 -0.49484
H -8.20368 -2.36991 -0.3073
H -9.17702 -1.15391 -2.72
H -8.41529 -2.81275 -2.73647
H -11.01132 -2.59718 -3.46125
O -5.55434 -4.94592 0.99099
C -2.15727 -2.99621 0.7848
C -2.45039 -6.97133 1.85616
C -2.20093 -8.26301 2.63747
C -3.54244 -8.94804 2.49082
C -4.27742 -7.93537 1.61087
O -3.26291 -7.40475 0.79218
H -3.06712 -6.05458 3.73746
H -5.17475 -6.99789 3.42032
H -1.82983 -2.30863 1.59367
H -1.47311 -6.52088 1.57863
H -1.4412 -8.85699 2.0806
H -1.85518 -8.11005 3.68245
H -3.39448 -9.89519 1.92534
H -4.0781 -9.1558 3.44234
H -5.1264 -8.42501 1.08444
H -3.09245 -2.61453 0.32194
H -1.36581 -3.03796 0.00874
H -14.58123 -6.07897 -1.04544
H -13.95974 -6.76366 -2.59451
H -14.66842 -5.08875 -2.55133
H -8.93496 -6.56258 -0.34559
H -9.14291 -7.45455 1.12304
H -7.82865 -4.65626 1.08622
H -8.52819 -5.42452 2.49763
$end

$opt
CONSTRAINT
tors           1           2           3           4     +59.632
tors           3           4           5           6    -165.434
tors           4           5           6           7    +161.508
tors           5           6           7           8    +139.138
tors           6           7           8           9    +144.721
tors           7           8           9          10    +111.542
tors           8           9          10          11     -38.157
tors           9          10          11          12    +140.697
tors          11          12          13          14    -173.513
ENDCONSTRAINT
$end

$rem
JOBTYPE                   OPT
METHOD                    B3LYP
DFT_D                     d3_op
BASIS                     STO-3G
GEOM_OPT_MAX_CYCLES       100
GEOM_OPT_TOL_GRADIENT     300
GEOM_OPT_TOL_DISPLACEMENT 1200
GEOM_OPT_TOL_ENERGY       100
SYMMETRY                  False
THRESH                    12
SCF_CONVERGENCE           8
MAX_SUB_FILE_NUM          128
MEM_STATIC                400
MEM_TOTAL                 4000
$end
--------------------------------------------------------------

   16   -1510.0821022218      3.60E-09 Convergence criterion met
 Total energy in the final basis set = -1510.08210222
   14   -1510.1605840917      2.42E-09 Convergence criterion met
 Total energy in the final basis set = -1510.16058409
   14   -1510.2030912455      3.17E-09 Convergence criterion met
 Total energy in the final basis set = -1510.20309125
   14   -1510.2260819529      3.16E-09 Convergence criterion met
 Total energy in the final basis set = -1510.22608195
   13   -1510.2379315934      9.28E-09 Convergence criterion met
 Total energy in the final basis set = -1510.23793159
   13   -1510.2440358747      6.10E-09 Convergence criterion met
 Total energy in the final basis set = -1510.24403587
   13   -1510.2475276556      2.15E-09 Convergence criterion met
 Total energy in the final basis set = -1510.24752766
   12   -1510.2494228183      9.09E-09 Convergence criterion met
    9   -1510.2566544901      8.55E-09 Convergence criterion met
 Total energy in the final basis set = -1510.25665449
    9   -1510.2566664041      9.81E-09 Convergence criterion met
 Total energy in the final basis set = -1510.25666640
    9   -1510.2566688632      4.23E-09 Convergence criterion met
 Total energy in the final basis set = -1510.25666886
    9   -1510.2566732555      5.22E-09 Convergence criterion met
 Total energy in the final basis set = -1510.25667326
    9   -1510.2566753083      4.59E-09 Convergence criterion met
 Total energy in the final basis set = -1510.25667531
    9   -1510.2566777022      2.11E-09 Convergence criterion met
 Total energy in the final basis set = -1510.25667770

             Standard Nuclear Orientation (Angstroms)
    I     Atom           X                Y                Z
 ----------------------------------------------------------------
    1      O      -4.1604181949    -1.6496093021     1.6109091272
    2      C      -4.6203087983    -1.1331686607     0.5690052398
    3      C      -4.9648514020     0.3889769601     0.3606707312
    4      C      -3.7258495450     1.3570687292     0.5505291752
    5      C      -2.3534147604     0.6045660089     0.4786094015
    6      O      -1.3253597778     1.4644300911     0.9905580337
    7      C      -0.1265329262     0.6686048383     1.3537368014
    8      C       1.1601131973     1.4558365393     0.9028315133
    9      O       2.2600899022     1.2454315184     1.8701667335
   10      C       3.3657460446     0.4667079662     1.3548765598
   11      C       3.0226294382    -0.7570225396     0.3971531547
   12      C       4.0249827247    -0.9245013244    -0.8108102074
   13      C       4.6949990657     0.3813531146    -1.3656801723
   14      O       5.4205072699     0.4645692333    -2.3807542997
   15      O      -4.9399913306    -1.8686714029    -0.6156888800
   16      O       4.1675484337     1.5265465159    -0.6851371934
   17      O       4.4779832000     0.6332907329     1.8969278069
   18      C       4.7424790858     2.7731729404    -1.2364099488
   19      C       3.4185933156    -2.0572423875     1.2329989793
   20      C       3.0577511120    -3.3618895855     0.4122736680
   21      C       4.2682582607    -3.4437141659    -0.5932338423
   22      C       4.9916174509    -2.0770379191    -0.2802523767
   23      O       4.8986481934    -2.0006366690     1.1939038575
   24      H       1.9718509403    -0.7721021200     0.0717933181
   25      H       3.4645998371    -1.3274529939    -1.6760689325
   26      H       3.0601606947    -2.0505002566     2.2808379747
   27      H       3.0190117736    -4.2388278688     1.0773738926
   28      H       2.0871834060    -3.2684682469    -0.1018117453
   29      H       4.9322838334    -4.2897004747    -0.3529418486
   30      H       3.9507312478    -3.5277250733    -1.6447763606
   31      H       6.0438975428    -1.9985296134    -0.6156815729
   32      O      -2.1504581116    -0.5511690444     0.0431402982
   33      C      -4.5702477764    -3.2908790640    -0.4373528586
   34      C      -5.4648885667     0.8017797927    -1.0892982699
   35      C      -6.3047829725     2.1294194243    -0.9423671768
   36      C      -5.1661166776     3.1654648248    -0.6150124932
   37      C      -3.8762357917     2.2619925591    -0.7501779925
   38      O      -4.2375097529     1.2623364320    -1.7814527493
   39      H      -5.7354985530     0.6396813067     1.1134672358
   40      H      -3.7738876560     1.9428393269     1.4849604991
   41      H      -5.1227652877    -3.7562786292     0.4045853266
   42      H      -5.9471926481    -0.0172326909    -1.6556184283
   43      H      -6.8069608654     2.3716844555    -1.8925820594
   44      H      -7.0643033616     2.0610291222    -0.1471640901
   45      H      -5.1408994575     3.9878005505    -1.3476369920
   46      H      -5.2608504616     3.5963714343     0.3946981049
   47      H      -2.9521043277     2.8020364362    -1.0345447271
   48      H      -3.4827448601    -3.4032115179    -0.2508137675
   49      H      -4.8394509752    -3.7972370178    -1.3825624239
   50      H       4.2516364403     3.6004216377    -0.6914498283
   51      H       4.5413918077     2.8665759420    -2.3233724524
   52      H       5.8382818960     2.8208523370    -1.0731171832
   53      H       1.4449619017     1.2142317774    -0.1397528777
   54      H       0.9163301239     2.5406258796     0.9424285815
   55      H      -0.1975085459    -0.3356610849     0.8838595671
   56      H      -0.1011371545     0.5528784603     2.4597755245
 ----------------------------------------------------------------

    9   -1510.2566768521      1.81E-09 Convergence criterion met
 Total energy in the final basis set = -1510.25667685
 Final energy is   -1510.25667685212
 **  OPTIMIZATION CONVERGED  **

                    Orbital Energies (a.u.)
 --------------------------------------------------------------

 Alpha MOs
 -- Occupied --
-18.943 -18.938 -18.931 -18.920 -18.890 -18.890 -18.888 -18.879
-18.867 -18.864 -10.108 -10.105 -10.097 -10.096 -10.075 -10.072
-10.069 -10.065 -10.062 -10.062 -10.061 -10.059 -10.043 -10.041
-10.038 -10.038 -10.024 -10.022 -10.022 -10.021  -1.020  -1.018
 -1.005  -0.997  -0.973  -0.972  -0.946  -0.941  -0.930  -0.928
 -0.766  -0.765  -0.728  -0.724  -0.715  -0.706  -0.701  -0.666
 -0.659  -0.613  -0.603  -0.585  -0.549  -0.548  -0.541  -0.540
 -0.516  -0.514  -0.487  -0.485  -0.466  -0.464  -0.458  -0.452
 -0.437  -0.434  -0.422  -0.415  -0.411  -0.409  -0.408  -0.400
 -0.396  -0.386  -0.380  -0.377  -0.369  -0.359  -0.354  -0.352
 -0.346  -0.341  -0.333  -0.332  -0.330  -0.325  -0.316  -0.314
 -0.310  -0.308  -0.307  -0.304  -0.297  -0.295  -0.284  -0.280
 -0.277  -0.258  -0.255  -0.248  -0.236  -0.234  -0.234  -0.185
 -0.181  -0.172  -0.165  -0.161  -0.159  -0.151  -0.150  -0.143
 -0.135

          Ground-State Mulliken Net Atomic Charges

     Atom                 Charge (a.u.)
  ----------------------------------------
      1 O                    -0.221151
      2 C                     0.214168
      3 C                    -0.080520
      4 C                    -0.077276
      5 C                     0.215338
      6 O                    -0.176217
      7 C                    -0.056929
      8 C                    -0.050159
      9 O                    -0.176911
     10 C                     0.219227
     11 C                    -0.084457
     12 C                    -0.080817
     13 C                     0.210055
     14 O                    -0.212314
     15 O                    -0.169138
     16 O                    -0.169598
     17 O                    -0.197702
     18 C                    -0.126357
     19 C                     0.025424
     20 C                    -0.145944
     21 C                    -0.141508
     22 C                     0.027025
     23 O                    -0.182032
     24 H                     0.077662
     25 H                     0.084288
     26 H                     0.083736
     27 H                     0.079351
     28 H                     0.073197
     29 H                     0.079148
     30 H                     0.074154
     31 H                     0.088435
     32 O                    -0.208006
     33 C                    -0.126843
     34 C                     0.023614
     35 C                    -0.143081
     36 C                    -0.144558
     37 C                     0.024996
     38 O                    -0.190226
     39 H                     0.082908
     40 H                     0.088868
     41 H                     0.087217
     42 H                     0.093747
     43 H                     0.078186
     44 H                     0.073483
     45 H                     0.078466
     46 H                     0.074297
     47 H                     0.083226
     48 H                     0.092511
     49 H                     0.089086
     50 H                     0.093764
     51 H                     0.090651
     52 H                     0.093609
     53 H                     0.086909
     54 H                     0.090728
     55 H                     0.094113
     56 H                     0.090158
  ----------------------------------------
  Sum of atomic charges =    -0.000000

                    Cartesian Multipole Moments
 -----------------------------------------------------------------
    Charge (ESU x 10^10)
                -0.0000
    Dipole Moment (Debye)
         X      -3.5725      Y       0.4374      Z      -1.5950
       Tot       3.9367
    Quadrupole Moments (Debye-Ang)
        XX    -167.2508     XY      -5.1048     YY    -146.1998
        XZ      -9.3624     YZ       0.1569     ZZ    -171.7723

 Total job time:  87.61s(wall), 3854.97s(cpu)
        *  Thank you very much for using Q-Chem.  Have a nice day.  *
