 Q-Chem 5.0, Q-Chem, Inc., Pleasanton, CA (2017)
 Q-Chem 5.0.1 for Intel X86 EM64T Linux

User input:
--------------------------------------------------------------
$molecule
0  1
O -3.0397295422 -1.7807461129 1.5542376437
C -3.9392309205 -1.767186293 0.6887395949
C -4.9465551856 -0.6261491743 0.3074085773
C -4.7525332162 0.7920900441 0.9704911264
C -3.279846755 1.2884177517 1.2389140216
O -2.322412371 0.4214982429 0.6253850225
C -1.0548481929 1.1460669323 0.3645244844
C 0.0625356211 0.0593106891 0.2589351815
O 1.3274767239 0.7792421843 -0.026340795
C 2.4539229979 -0.0859525247 0.1989117965
C 3.7180782594 0.8451255139 0.1968854603
C 5.0888296454 0.2552521872 0.7097558796
C 5.3861702597 -1.2721653773 0.4655787944
O 6.3634447719 -1.8959069384 0.9384561783
O -4.2357325382 -2.8820449869 -0.1664282573
O 4.5711363268 -1.7730620423 -0.5936043955
O 2.3375015071 -1.2945466016 0.4882037397
C 4.9640494416 -3.160805224 -0.9247441901
C 4.1432113835 1.5009473353 -1.1964420089
C 4.6840591771 2.9438534622 -0.8611973336
C 6.0029886593 2.5753648243 -0.0842697611
C 6.0712493372 1.0098127225 -0.3004975375
O 5.3778532795 0.7872034349 -1.5928490402
H 3.4349033306 1.6695037353 0.8774722647
H 5.2854692089 0.5009453944 1.7679041764
H 3.3788849346 1.4444598417 -1.995464583
H 4.9065419885 3.4934882334 -1.7901327493
H 3.97680869 3.5341910459 -0.2570609349
H 6.8864687085 3.0659510549 -0.5223475913
H 5.9501312001 2.8372532044 0.9849070912
H 7.0943204972 0.5867635299 -0.3297475484
O -2.98749658 2.3511827729 1.8308440598
C -3.3226240419 -4.0073934282 0.136013869
C -5.0782934562 -0.2494917217 -1.2392360932
C -6.5993486678 0.088752728 -1.4833211224
C -6.7302482721 1.4104771044 -0.6377957002
C -5.2210509018 1.6959675478 -0.2603407452
O -4.4407398194 1.0810787548 -1.3635483458
H -5.9312010102 -1.0096081355 0.6382245644
H -5.3669612651 0.9321124702 1.8771489593
H -3.4457240676 -4.3669023263 1.1782134447
H -4.6232094583 -0.9784038235 -1.9371265036
H -6.78082584 0.2792069798 -2.5535777835
H -7.2758587548 -0.7116045926 -1.1435393592
H -7.1432326687 2.238924678 -1.2345463215
H -7.3561077684 1.2789304858 0.2596909136
H -4.962058992 2.7671396131 -0.1505669244
H -2.2605489707 -3.7240667304 -0.0127750782
H -3.591832759 -4.8167461772 -0.5673869975
H 4.329632553 -3.4583650082 -1.7796680838
H 4.7842201018 -3.8490382449 -0.0737651204
H 6.0336215948 -3.2249768047 -1.2118034377
H 0.1353072457 -0.5155358852 1.2071980755
H -0.1813358499 -0.6581992869 -0.555532891
H -0.8381357075 1.8626823247 1.1855343695
H -1.1355113803 1.7121365886 -0.5895971366
$end

$rem
JOBTYPE                   OPT
METHOD                    B3LYP
DFT_D                     d3_op
BASIS                     STO-3G
GEOM_OPT_MAX_CYCLES       100
GEOM_OPT_TOL_GRADIENT     300
GEOM_OPT_TOL_DISPLACEMENT 1200
GEOM_OPT_TOL_ENERGY       100
SYMMETRY                  False
THRESH                    12
SCF_CONVERGENCE           8
MAX_SUB_FILE_NUM          128
MEM_STATIC                400
MEM_TOTAL                 4000
$end
--------------------------------------------------------------

   16   -1510.2565342399      6.14E-09 Convergence criterion met
 Total energy in the final basis set = -1510.25653424
   13   -1510.2608869002      6.08E-09 Convergence criterion met
 Total energy in the final basis set = -1510.26088690
   13   -1510.2642934697      9.18E-09 Convergence criterion met
 Total energy in the final basis set = -1510.26429347
   13   -1510.2673126565      7.33E-09 Convergence criterion met
 Total energy in the final basis set = -1510.26731266
   13   -1510.2702522788      8.90E-09 Convergence criterion met
 Total energy in the final basis set = -1510.27025228
   13   -1510.2728936709      9.21E-09 Convergence criterion met
 Total energy in the final basis set = -1510.27289367
   13   -1510.2751802909      4.43E-09 Convergence criterion met
 Total energy in the final basis set = -1510.27518029
   13   -1510.2773689130      4.05E-09 Convergence criterion met
   11   -1510.2982166100      2.90E-09 Convergence criterion met
 Total energy in the final basis set = -1510.29821661
   11   -1510.2982177470      3.97E-09 Convergence criterion met
 Total energy in the final basis set = -1510.29821775
   11   -1510.2982260466      3.45E-09 Convergence criterion met
 Total energy in the final basis set = -1510.29822605
   11   -1510.2982353100      3.25E-09 Convergence criterion met
 Total energy in the final basis set = -1510.29823531
   11   -1510.2982322966      5.98E-09 Convergence criterion met
 Total energy in the final basis set = -1510.29823230
    9   -1510.2982353462      8.95E-09 Convergence criterion met
 Total energy in the final basis set = -1510.29823535

             Standard Nuclear Orientation (Angstroms)
    I     Atom           X                Y                Z
 ----------------------------------------------------------------
    1      O      -0.8576160215     0.1251271602     0.5836541918
    2      C      -1.7849574576    -0.7127740079     0.6862807270
    3      C      -3.2907977175    -0.3752667192     0.9544624064
    4      C      -3.6379053697     1.1407962626     0.6612445155
    5      C      -2.4519915853     1.9999834331     0.0837846194
    6      O      -2.2560913451     1.6478727328    -1.2975592079
    7      C      -1.2710460475     2.5531653447    -1.9285490978
    8      C       0.0432751868     1.7930593472    -2.3173263718
    9      O       0.9511292165     1.7441706425    -1.1448654414
   10      C       1.3377436770     0.4077809296    -0.8553056788
   11      C       2.2068513655     0.3964379992     0.4485086687
   12      C       3.1722166038    -0.8553517355     0.5580802041
   13      C       3.1028961405    -1.8368298091    -0.6647982592
   14      O       2.6572486876    -3.0054834203    -0.6598598906
   15      O      -1.6329992070    -2.1206546594     0.6010560744
   16      O       3.7138324366    -1.2105695688    -1.7988732774
   17      O       1.0037675116    -0.5877434480    -1.5466954910
   18      C       3.5785576458    -2.0850326326    -2.9846612979
   19      C       3.2432820608     1.5951702972     0.5109899737
   20      C       3.7433942431     1.7367232952     2.0021380919
   21      C       4.7050396904     0.4958129211     2.1163921104
   22      C       4.5802892102    -0.1230773017     0.6675446455
   23      O       4.4246096473     1.0622713064    -0.2049255574
   24      H       1.4970736673     0.4315620286     1.2957929126
   25      H       2.9494372958    -1.4469876317     1.4633997526
   26      H       2.8782669807     2.5251551999     0.0344784952
   27      H       4.2874430442     2.6847681169     2.1385940949
   28      H       2.9102636482     1.6989744808     2.7221057810
   29      H       5.7435851531     0.8061317521     2.3131902739
   30      H       4.3949104177    -0.2143597239     2.8994787683
   31      H       5.4424303196    -0.7349877768     0.3392218969
   32      O      -1.8707577312     2.9478130325     0.6570042301
   33      C      -0.2130795052    -2.4894920485     0.3611061438
   34      C      -4.2867713777    -1.1223958904    -0.0325905887
   35      C      -5.7357678737    -1.0571278430     0.5907063339
   36      C      -6.1006603285     0.4535258881     0.3435342735
   37      C      -4.8053704325     0.9651500505    -0.4042028762
   38      O      -4.3707292843    -0.2096907960    -1.1944889436
   39      H      -3.5136366085    -0.6374394482     2.0056375212
   40      H      -3.9886867665     1.6497920986     1.5759622718
   41      H       0.3823678967    -2.3679652946     1.2886064561
   42      H      -3.9414037311    -2.1274222562    -0.3435669622
   43      H      -6.4175577944    -1.7311197296     0.0479409551
   44      H      -5.7439935792    -1.3301143132     1.6580916984
   45      H      -6.9839757148     0.5546045894    -0.3068429921
   46      H      -6.2864303797     1.0051372947     1.2790564145
   47      H      -4.9590169008     1.8396703682    -1.0652610051
   48      H       0.2453545535    -1.8729218880    -0.4479004237
   49      H      -0.2203705515    -3.5563257378     0.0745746050
   50      H       4.1265606374    -1.5807559159    -3.8016877148
   51      H       2.5133288634    -2.2057533995    -3.2707566456
   52      H       4.0131468177    -3.0899582949    -2.8074808827
   53      H      -0.1704150405     0.7527398502    -2.6474466535
   54      H       0.5630364646     2.3416180563    -3.1321168262
   55      H      -1.0336609851     3.3772260187    -1.2193122983
   56      H      -1.7376943053     2.9631772858    -2.8492576180
 ----------------------------------------------------------------

    9   -1510.2982349017      3.37E-09 Convergence criterion met
 Total energy in the final basis set = -1510.29823490
 Final energy is   -1510.29823490173
 **  OPTIMIZATION CONVERGED  **

                    Orbital Energies (a.u.)
 --------------------------------------------------------------

 Alpha MOs
 -- Occupied --
-18.941 -18.937 -18.923 -18.921 -18.886 -18.884 -18.879 -18.877
-18.864 -18.861 -10.108 -10.104 -10.093 -10.090 -10.068 -10.064
-10.059 -10.058 -10.057 -10.055 -10.054 -10.043 -10.038 -10.035
-10.034 -10.032 -10.020 -10.019 -10.017 -10.016  -1.019  -1.012
 -1.001  -0.999  -0.968  -0.966  -0.941  -0.938  -0.926  -0.925
 -0.762  -0.760  -0.725  -0.720  -0.712  -0.704  -0.692  -0.654
 -0.652  -0.612  -0.595  -0.574  -0.543  -0.541  -0.536  -0.533
 -0.512  -0.510  -0.487  -0.475  -0.466  -0.459  -0.440  -0.436
 -0.432  -0.430  -0.424  -0.413  -0.408  -0.404  -0.402  -0.399
 -0.399  -0.377  -0.372  -0.364  -0.359  -0.354  -0.349  -0.342
 -0.340  -0.336  -0.331  -0.329  -0.326  -0.322  -0.319  -0.312
 -0.309  -0.303  -0.301  -0.298  -0.292  -0.283  -0.278  -0.274
 -0.272  -0.254  -0.249  -0.242  -0.237  -0.233  -0.231  -0.189
 -0.173  -0.166  -0.161  -0.159  -0.156  -0.147  -0.142  -0.142
 -0.140

          Ground-State Mulliken Net Atomic Charges

     Atom                 Charge (a.u.)
  ----------------------------------------
      1 O                    -0.220527
      2 C                     0.217117
      3 C                    -0.078545
      4 C                    -0.080413
      5 C                     0.215040
      6 O                    -0.174234
      7 C                    -0.054196
      8 C                    -0.052883
      9 O                    -0.165613
     10 C                     0.236184
     11 C                    -0.077497
     12 C                    -0.082018
     13 C                     0.210794
     14 O                    -0.220852
     15 O                    -0.169540
     16 O                    -0.169325
     17 O                    -0.223224
     18 C                    -0.128143
     19 C                     0.024295
     20 C                    -0.143705
     21 C                    -0.144295
     22 C                     0.026562
     23 O                    -0.187862
     24 H                     0.096513
     25 H                     0.080984
     26 H                     0.092119
     27 H                     0.077708
     28 H                     0.074656
     29 H                     0.077052
     30 H                     0.072728
     31 H                     0.083440
     32 O                    -0.219198
     33 C                    -0.142100
     34 C                     0.024638
     35 C                    -0.143626
     36 C                    -0.144686
     37 C                     0.026979
     38 O                    -0.186597
     39 H                     0.084939
     40 H                     0.083366
     41 H                     0.077282
     42 H                     0.090685
     43 H                     0.077976
     44 H                     0.073075
     45 H                     0.077542
     46 H                     0.073236
     47 H                     0.083417
     48 H                     0.113758
     49 H                     0.090910
     50 H                     0.088301
     51 H                     0.090745
     52 H                     0.087126
     53 H                     0.106369
     54 H                     0.085656
     55 H                     0.104072
     56 H                     0.083814
  ----------------------------------------
  Sum of atomic charges =    -0.000000

                    Cartesian Multipole Moments
 -----------------------------------------------------------------
    Charge (ESU x 10^10)
                -0.0000
    Dipole Moment (Debye)
         X      -1.0669      Y       0.1609      Z       1.1193
       Tot       1.5547
    Quadrupole Moments (Debye-Ang)
        XX    -149.8486     XY      -2.6292     YY    -164.1927
        XZ      -1.3491     YZ      -4.7275     ZZ    -151.6632

 Total job time:  202.13s(wall), 9258.99s(cpu)
        *  Thank you very much for using Q-Chem.  Have a nice day.  *
