 Q-Chem 5.0, Q-Chem, Inc., Pleasanton, CA (2017)
 Q-Chem 5.0.1 for Intel X86 EM64T Linux

User input:
--------------------------------------------------------------
$molecule
0  1
O -3.94934 -3.66094 2.70899
C -3.26408 -4.56952 2.26188
C -3.36658 -6.02376 2.66595
C -4.52984 -6.41543 3.59184
C -5.56261 -5.34503 3.86699
O -5.34778 -4.27197 3.0498
C -6.52483 -3.48774 2.82896
C -6.14226 -2.07248 2.40844
O -7.3266 -1.29704 2.16573
C -7.14044 0.04426 2.09213
C -8.43419 0.82155 2.14414
C -8.27297 2.33289 2.36351
C -6.88 2.88769 2.14315
O -6.5235 4.02934 2.39637
O -2.29826 -4.26974 1.35411
O -6.26299 2.40122 1.02088
O -6.04154 0.4962 2.38928
C -5.09468 2.88857 0.46664
C -9.22557 0.8071 0.82208
C -10.70145 1.07811 1.11084
C -10.64948 2.5435 1.4999
C -9.17219 2.84878 1.22308
O -8.84052 1.98651 0.16042
H -9.05537 0.35927 2.94544
H -8.60487 2.66078 3.37302
H -9.10781 -0.13846 0.24906
H -11.241 0.98712 0.1407
H -11.17813 0.40628 1.85667
H -11.30996 3.11296 0.80903
H -10.9171 2.76511 2.5558
H -9.02477 3.93486 1.0322
O -6.56263 -5.52952 4.55087
C -2.0586 -3.00167 0.86744
C -3.68912 -6.92251 1.45214
C -3.25113 -8.35908 1.73518
C -4.30011 -8.78115 2.74237
C -5.18404 -7.5304 2.76225
O -5.0922 -7.02778 1.45217
H -2.37586 -6.30963 3.08512
H -4.16191 -6.76008 4.58333
H -1.78167 -2.31822 1.69843
H -3.2284 -6.5676 0.50435
H -3.40685 -8.94211 0.79913
H -2.19716 -8.47429 2.06789
H -4.86268 -9.64496 2.32322
H -3.91428 -9.03328 3.75389
H -6.20692 -7.78437 3.11812
H -2.96175 -2.61465 0.34853
H -1.21977 -3.04242 0.14281
H -4.8357 2.28162 -0.42485
H -4.26587 2.81538 1.20284
H -5.22721 3.94533 0.15101
H -5.55735 -1.65452 3.26084
H -5.51688 -2.0839 1.48831
H -7.12744 -3.36318 3.75866
H -7.15062 -3.97067 2.0471
$end

$opt
CONSTRAINT
tors           1           2           3           4      +7.381
tors           3           4           5           6      +9.240
tors           4           5           6           7    +155.583
tors           5           6           7           8    +157.594
tors           6           7           8           9    +179.001
tors           7           8           9          10    +165.200
tors           8           9          10          11    -167.237
tors           9          10          11          12    +167.642
tors          11          12          13          14    -172.200
ENDCONSTRAINT
$end

$rem
JOBTYPE                   OPT
METHOD                    B3LYP
DFT_D                     d3_op
BASIS                     STO-3G
GEOM_OPT_MAX_CYCLES       100
GEOM_OPT_TOL_GRADIENT     300
GEOM_OPT_TOL_DISPLACEMENT 1200
GEOM_OPT_TOL_ENERGY       100
SYMMETRY                  False
THRESH                    12
SCF_CONVERGENCE           8
MAX_SUB_FILE_NUM          128
MEM_STATIC                400
MEM_TOTAL                 4000
$end
--------------------------------------------------------------

   16   -1509.9588138814      6.51E-09 Convergence criterion met
 Total energy in the final basis set = -1509.95881388
   14   -1510.0681725258      6.36E-09 Convergence criterion met
 Total energy in the final basis set = -1510.06817253
   14   -1510.1424241638      6.59E-09 Convergence criterion met
 Total energy in the final basis set = -1510.14242416
   14   -1510.1902668466      6.96E-09 Convergence criterion met
 Total energy in the final basis set = -1510.19026685
   14   -1510.2174705210      6.06E-09 Convergence criterion met
 Total energy in the final basis set = -1510.21747052
   14   -1510.2341447582      7.14E-09 Convergence criterion met
 Total energy in the final basis set = -1510.23414476
   13   -1510.2437916781      7.62E-09 Convergence criterion met
 Total energy in the final basis set = -1510.24379168
   12   -1510.2494877475      9.47E-09 Convergence criterion met
   12   -1510.2565013258      2.59E-09 Convergence criterion met
 Total energy in the final basis set = -1510.25650133
   10   -1510.2565170965      8.95E-09 Convergence criterion met
 Total energy in the final basis set = -1510.25651710
    9   -1510.2565285645      9.24E-09 Convergence criterion met
 Total energy in the final basis set = -1510.25652856
    9   -1510.2565352517      6.58E-09 Convergence criterion met
 Total energy in the final basis set = -1510.25653525
    9   -1510.2565390274      6.04E-09 Convergence criterion met
 Total energy in the final basis set = -1510.25653903
    9   -1510.2565404965      3.94E-09 Convergence criterion met
 Total energy in the final basis set = -1510.25654050

             Standard Nuclear Orientation (Angstroms)
    I     Atom           X                Y                Z
 ----------------------------------------------------------------
    1      O      -3.0397295422    -1.7807461129     1.5542376437
    2      C      -3.9392309205    -1.7671862930     0.6887395949
    3      C      -4.9465551856    -0.6261491743     0.3074085773
    4      C      -4.7525332162     0.7920900441     0.9704911264
    5      C      -3.2798467550     1.2884177517     1.2389140216
    6      O      -2.3224123710     0.4214982429     0.6253850225
    7      C      -1.0548481929     1.1460669323     0.3645244844
    8      C       0.0625356211     0.0593106891     0.2589351815
    9      O       1.3274767239     0.7792421843    -0.0263407950
   10      C       2.4539229979    -0.0859525247     0.1989117965
   11      C       3.7180782594     0.8451255139     0.1968854603
   12      C       5.0888296454     0.2552521872     0.7097558796
   13      C       5.3861702597    -1.2721653773     0.4655787944
   14      O       6.3634447719    -1.8959069384     0.9384561783
   15      O      -4.2357325382    -2.8820449869    -0.1664282573
   16      O       4.5711363268    -1.7730620423    -0.5936043955
   17      O       2.3375015071    -1.2945466016     0.4882037397
   18      C       4.9640494416    -3.1608052240    -0.9247441901
   19      C       4.1432113835     1.5009473353    -1.1964420089
   20      C       4.6840591771     2.9438534622    -0.8611973336
   21      C       6.0029886593     2.5753648243    -0.0842697611
   22      C       6.0712493372     1.0098127225    -0.3004975375
   23      O       5.3778532795     0.7872034349    -1.5928490402
   24      H       3.4349033306     1.6695037353     0.8774722647
   25      H       5.2854692089     0.5009453944     1.7679041764
   26      H       3.3788849346     1.4444598417    -1.9954645830
   27      H       4.9065419885     3.4934882334    -1.7901327493
   28      H       3.9768086900     3.5341910459    -0.2570609349
   29      H       6.8864687085     3.0659510549    -0.5223475913
   30      H       5.9501312001     2.8372532044     0.9849070912
   31      H       7.0943204972     0.5867635299    -0.3297475484
   32      O      -2.9874965800     2.3511827729     1.8308440598
   33      C      -3.3226240419    -4.0073934282     0.1360138690
   34      C      -5.0782934562    -0.2494917217    -1.2392360932
   35      C      -6.5993486678     0.0887527280    -1.4833211224
   36      C      -6.7302482721     1.4104771044    -0.6377957002
   37      C      -5.2210509018     1.6959675478    -0.2603407452
   38      O      -4.4407398194     1.0810787548    -1.3635483458
   39      H      -5.9312010102    -1.0096081355     0.6382245644
   40      H      -5.3669612651     0.9321124702     1.8771489593
   41      H      -3.4457240676    -4.3669023263     1.1782134447
   42      H      -4.6232094583    -0.9784038235    -1.9371265036
   43      H      -6.7808258400     0.2792069798    -2.5535777835
   44      H      -7.2758587548    -0.7116045926    -1.1435393592
   45      H      -7.1432326687     2.2389246780    -1.2345463215
   46      H      -7.3561077684     1.2789304858     0.2596909136
   47      H      -4.9620589920     2.7671396131    -0.1505669244
   48      H      -2.2605489707    -3.7240667304    -0.0127750782
   49      H      -3.5918327590    -4.8167461772    -0.5673869975
   50      H       4.3296325530    -3.4583650082    -1.7796680838
   51      H       4.7842201018    -3.8490382449    -0.0737651204
   52      H       6.0336215948    -3.2249768047    -1.2118034377
   53      H       0.1353072457    -0.5155358852     1.2071980755
   54      H      -0.1813358499    -0.6581992869    -0.5555328910
   55      H      -0.8381357075     1.8626823247     1.1855343695
   56      H      -1.1355113803     1.7121365886    -0.5895971366
 ----------------------------------------------------------------

    9   -1510.2565412930      2.93E-09 Convergence criterion met
 Total energy in the final basis set = -1510.25654129
 Final energy is   -1510.25654129296
 **  OPTIMIZATION CONVERGED  **

                    Orbital Energies (a.u.)
 --------------------------------------------------------------

 Alpha MOs
 -- Occupied --
-18.930 -18.930 -18.928 -18.926 -18.890 -18.887 -18.877 -18.876
-18.871 -18.861 -10.099 -10.099 -10.098 -10.090 -10.070 -10.069
-10.063 -10.062 -10.062 -10.060 -10.059 -10.055 -10.040 -10.038
-10.036 -10.035 -10.024 -10.022 -10.020 -10.019  -1.013  -1.010
 -1.006  -1.001  -0.973  -0.970  -0.938  -0.934  -0.930  -0.924
 -0.765  -0.762  -0.728  -0.721  -0.712  -0.707  -0.694  -0.661
 -0.654  -0.612  -0.598  -0.577  -0.546  -0.543  -0.539  -0.536
 -0.518  -0.511  -0.487  -0.475  -0.460  -0.454  -0.450  -0.437
 -0.435  -0.433  -0.429  -0.410  -0.409  -0.408  -0.404  -0.402
 -0.394  -0.376  -0.373  -0.364  -0.363  -0.358  -0.350  -0.345
 -0.340  -0.336  -0.334  -0.333  -0.330  -0.317  -0.316  -0.313
 -0.311  -0.305  -0.304  -0.298  -0.295  -0.293  -0.287  -0.275
 -0.268  -0.254  -0.252  -0.243  -0.242  -0.237  -0.233  -0.178
 -0.176  -0.172  -0.168  -0.153  -0.151  -0.148  -0.145  -0.143
 -0.140

          Ground-State Mulliken Net Atomic Charges

     Atom                 Charge (a.u.)
  ----------------------------------------
      1 O                    -0.206568
      2 C                     0.212454
      3 C                    -0.079855
      4 C                    -0.076463
      5 C                     0.215507
      6 O                    -0.167612
      7 C                    -0.047159
      8 C                    -0.046132
      9 O                    -0.180189
     10 C                     0.211590
     11 C                    -0.079651
     12 C                    -0.077370
     13 C                     0.211288
     14 O                    -0.221071
     15 O                    -0.175120
     16 O                    -0.159419
     17 O                    -0.204318
     18 C                    -0.125159
     19 C                     0.027202
     20 C                    -0.141247
     21 C                    -0.145697
     22 C                     0.024116
     23 O                    -0.188929
     24 H                     0.084765
     25 H                     0.085125
     26 H                     0.086152
     27 H                     0.077736
     28 H                     0.074797
     29 H                     0.078452
     30 H                     0.074092
     31 H                     0.084608
     32 O                    -0.216526
     33 C                    -0.128843
     34 C                     0.026208
     35 C                    -0.140936
     36 C                    -0.145819
     37 C                     0.023325
     38 O                    -0.192925
     39 H                     0.083294
     40 H                     0.086260
     41 H                     0.087890
     42 H                     0.088930
     43 H                     0.078011
     44 H                     0.074790
     45 H                     0.078947
     46 H                     0.074398
     47 H                     0.084884
     48 H                     0.089818
     49 H                     0.089433
     50 H                     0.089981
     51 H                     0.088854
     52 H                     0.088476
     53 H                     0.094757
     54 H                     0.086791
     55 H                     0.096760
     56 H                     0.087318
  ----------------------------------------
  Sum of atomic charges =     0.000000

                    Cartesian Multipole Moments
 -----------------------------------------------------------------
    Charge (ESU x 10^10)
                 0.0000
    Dipole Moment (Debye)
         X      -2.5928      Y       0.3172      Z      -0.7933
       Tot       2.7299
    Quadrupole Moments (Debye-Ang)
        XX    -148.9077     XY      12.5924     YY    -153.5162
        XZ       0.6133     YZ       2.6638     ZZ    -164.4653

 Total job time:  70.54s(wall), 3255.27s(cpu)
        *  Thank you very much for using Q-Chem.  Have a nice day.  *
