 Q-Chem 5.0, Q-Chem, Inc., Pleasanton, CA (2017)
 Q-Chem 5.0.1 for Intel X86 EM64T Linux

User input:
--------------------------------------------------------------
$molecule
0  1
O -0.9427008566 -1.9214434681 0.9089759815
C -1.9733003022 -1.2406323619 1.1075753282
C -3.2466750122 -1.0758698655 0.1962189707
C -3.4227668111 0.4411051384 -0.2598920105
C -2.1085406545 1.2264052877 0.0946513699
O -2.4388479148 2.4679958326 0.7237588552
C -1.3737347482 3.2008968271 1.4663024407
C 0.1699820291 3.0089492871 1.2057199544
O 0.4966601055 1.5724302115 1.3105378761
C 1.8616419864 1.2742790744 0.9484383726
C 1.8669528904 -0.2651571418 0.6443052585
C 2.2688102682 -0.7452114427 -0.8164813299
C 3.0257144844 0.2198241155 -1.7956343256
O 3.0331525609 0.1141910482 -3.0435093286
O -2.1996069682 -0.4132794143 2.2526945377
O 3.8720452462 1.1155513353 -1.0767849164
O 2.7597178432 2.1387884079 0.934489609
C 4.656789453 1.9404686993 -2.0227447903
C 2.8529724883 -1.1365366192 1.5423453727
C 2.2003474914 -2.5708239722 1.6566169352
C 2.454098352 -3.1220720938 0.2051397236
C 3.2684453592 -1.9329742697 -0.4433866914
O 4.0372159536 -1.3658189306 0.6866493284
H 0.8272188972 -0.5998162321 0.8136390998
H 1.3781320585 -1.1185873211 -1.3527264128
H 3.1513797865 -0.6673790581 2.4997763008
H 2.716745824 -3.1754505418 2.4192513432
H 1.1247784308 -2.5185270389 1.8924560868
H 3.0601792924 -4.0419150025 0.2171016688
H 1.5148392199 -3.3210534978 -0.3355055855
H 3.9478215751 -2.2258904144 -1.2674765989
O -0.9879917735 0.8757205087 -0.3308495802
C -0.9744958353 -0.2972657656 3.0817371576
C -3.1354285965 -1.8128469395 -1.2000703437
C -4.5940666181 -1.9443450453 -1.7880047612
C -4.8914295725 -0.4495343142 -2.1841270617
C -3.515351727 0.2456596979 -1.8334431648
O -2.5060054577 -0.8074368484 -2.0887120767
H -4.1287258476 -1.4198582084 0.7665109575
H -4.3113767203 0.9248867188 0.180516687
H -0.2762670628 0.4241807749 2.5934285013
H -2.5328401433 -2.7415587485 -1.1794323664
H -4.5929510665 -2.6011147422 -2.6724744019
H -5.3100200106 -2.3423709394 -1.0512730749
H -5.1113924818 -0.3502252353 -3.2588256049
H -5.7276531887 -0.0180356223 -1.6110166498
H -3.2823193757 1.153866546 -2.4226194628
H -0.476066528 -1.2777162822 3.2118347806
H -1.3026240367 0.0887001925 4.0639653451
H 5.2897097933 2.5956693624 -1.3966535963
H 4.0005327198 2.5621976468 -2.6656050361
H 5.2981313493 1.3147858288 -2.6768944847
H 0.4553277125 3.3903258314 0.2012516711
H 0.7086628882 3.6131471143 1.9707098906
H -1.5513421927 2.9835429612 2.5440117953
H -1.6019976699 4.2762131197 1.303245904
$end

$rem
JOBTYPE                   OPT
METHOD                    B3LYP
DFT_D                     d3_op
BASIS                     STO-3G
GEOM_OPT_MAX_CYCLES       100
GEOM_OPT_TOL_GRADIENT     300
GEOM_OPT_TOL_DISPLACEMENT 1200
GEOM_OPT_TOL_ENERGY       100
SYMMETRY                  False
THRESH                    12
SCF_CONVERGENCE           8
MAX_SUB_FILE_NUM          128
MEM_STATIC                400
MEM_TOTAL                 4000
$end
--------------------------------------------------------------

   16   -1510.2658229899      5.54E-09 Convergence criterion met
 Total energy in the final basis set = -1510.26582299
   14   -1510.2036867516      5.82E-09 Convergence criterion met
 Total energy in the final basis set = -1510.20368675
   15   -1510.2676375444      3.32E-09 Convergence criterion met
 Total energy in the final basis set = -1510.26763754
   15   -1510.2327953968      6.19E-09 Convergence criterion met
 Total energy in the final basis set = -1510.23279540
   15   -1510.2665373919      3.36E-09 Convergence criterion met
 Total energy in the final basis set = -1510.26653739
   15   -1510.2684414693      3.71E-09 Convergence criterion met
 Total energy in the final basis set = -1510.26844147
   14   -1510.2733496908      7.56E-09 Convergence criterion met
 Total energy in the final basis set = -1510.27334969
   15   -1510.2762651415      2.21E-09 Convergence criterion met
   11   -1510.3036819712      5.43E-09 Convergence criterion met
 Total energy in the final basis set = -1510.30368197
   11   -1510.3036917838      4.59E-09 Convergence criterion met
 Total energy in the final basis set = -1510.30369178
   11   -1510.3036974661      4.02E-09 Convergence criterion met
 Total energy in the final basis set = -1510.30369747
   11   -1510.3037041979      4.18E-09 Convergence criterion met
 Total energy in the final basis set = -1510.30370420
   11   -1510.3037048112      2.67E-09 Convergence criterion met
 Total energy in the final basis set = -1510.30370481
   10   -1510.3037056795      5.52E-09 Convergence criterion met
 Total energy in the final basis set = -1510.30370568

             Standard Nuclear Orientation (Angstroms)
    I     Atom           X                Y                Z
 ----------------------------------------------------------------
    1      O      -1.0237616475    -0.2451615041     2.1951405091
    2      C      -2.1853162561     0.1197569391     1.8945716097
    3      C      -2.9885477156    -0.2109900718     0.5884462907
    4      C      -2.4948053911     0.5605821761    -0.7071422122
    5      C      -1.5773249267     1.8169365393    -0.5073221616
    6      O      -1.7113692793     2.3118805933     0.8319832429
    7      C      -0.9165494403     3.5464197336     1.0433929442
    8      C       0.6450839575     3.3011217316     0.9684830030
    9      O       0.9146022691     1.8964164435     1.3471799408
   10      C       1.4412877072     1.1760495540     0.2203759657
   11      C       1.3756596563    -0.3422966377     0.5420286284
   12      C       1.5047082984    -1.2538920887    -0.7457928188
   13      C       1.6494492471    -0.4437922612    -2.0813600955
   14      O       0.7096603377    -0.0548340321    -2.8240714968
   15      O      -3.0382926764     0.8331852029     2.7930135236
   16      O       3.0237262393    -0.2884262652    -2.4239599298
   17      O       1.8253726787     1.7254490510    -0.8379833426
   18      C       3.1450695785     0.5485196089    -3.6392912738
   19      C       2.6134897783    -0.8517977756     1.3962436006
   20      C       2.2322148604    -2.2652642422     1.9898394164
   21      C       2.3608856797    -3.1742997048     0.7117105876
   22      C       2.7857338297    -2.1118295359    -0.3782117755
   23      O       3.6396913005    -1.1637042216     0.3763592158
   24      H       0.4124504112    -0.5098585508     1.0811911339
   25      H       0.5861444832    -1.8670537667    -0.8253732998
   26      H       3.0011861919    -0.1208128744     2.1322206637
   27      H       2.9474971187    -2.5641725428     2.7728041383
   28      H       1.2156263189    -2.2677361338     2.4144175813
   29      H       3.1467771882    -3.9364190792     0.8345078177
   30      H       1.4158820422    -3.6764783869     0.4505363583
   31      H       3.3364621255    -2.5178642198    -1.2482072564
   32      O      -0.8796913252     2.3694456440    -1.3840906653
   33      C      -2.2849597194     1.1873482523     4.0180775980
   34      C      -2.6871039205    -1.7067219537     0.1515284389
   35      C      -3.6449059446    -2.1131936375    -1.0390153009
   36      C      -2.9382555815    -1.4115722666    -2.2601639076
   37      C      -1.7920793717    -0.6128563278    -1.5305549713
   38      O      -1.3615816977    -1.5738555750    -0.4861398215
   39      H      -4.0588850443    -0.0241315245     0.7845817229
   40      H      -3.3769087084     0.9210651698    -1.2691363243
   41      H      -1.3600942049     1.7482778019     3.7741074522
   42      H      -2.6458894414    -2.4268253958     0.9918733513
   43      H      -3.6729433589    -3.2080214635    -1.1564617381
   44      H      -4.6730297784    -1.7507009935    -0.8789170171
   45      H      -2.5046029512    -2.1532241099    -2.9501268745
   46      H      -3.6175545675    -0.7566989841    -2.8285502423
   47      H      -0.8966193856    -0.3107029212    -2.1447189728
   48      H      -2.0055231235     0.2851117723     4.6001482405
   49      H      -2.9613822185     1.8207501729     4.6208722625
   50      H       4.2272605599     0.6184827682    -3.8534421617
   51      H       2.7304301911     1.5620028075    -3.4637877640
   52      H       2.6202386152     0.0934638477    -4.5041436314
   53      H       1.0253737266     3.4615887075    -0.0630649484
   54      H       1.1669608757     3.9757687846     1.6781810063
   55      H      -1.2060808713     3.8840691364     2.0582497673
   56      H      -1.2025053231     4.3269712976     0.3050293463
 ----------------------------------------------------------------

   10   -1510.3037065127      3.47E-09 Convergence criterion met
 Total energy in the final basis set = -1510.30370651
 Final energy is   -1510.30370651275
 **  OPTIMIZATION CONVERGED  **

                    Orbital Energies (a.u.)
 --------------------------------------------------------------

 Alpha MOs
 -- Occupied --
-18.940 -18.936 -18.927 -18.925 -18.882 -18.878 -18.875 -18.875
-18.872 -18.862 -10.103 -10.101 -10.092 -10.090 -10.077 -10.064
-10.064 -10.059 -10.051 -10.045 -10.044 -10.037 -10.034 -10.032
-10.017 -10.013 -10.011 -10.008 -10.006 -10.005  -1.021  -1.010
 -1.004  -0.997  -0.967  -0.955  -0.942  -0.935  -0.930  -0.922
 -0.760  -0.746  -0.722  -0.712  -0.704  -0.697  -0.687  -0.663
 -0.647  -0.614  -0.594  -0.573  -0.541  -0.534  -0.530  -0.523
 -0.507  -0.501  -0.483  -0.468  -0.462  -0.449  -0.446  -0.437
 -0.426  -0.424  -0.419  -0.413  -0.410  -0.405  -0.400  -0.398
 -0.391  -0.377  -0.370  -0.362  -0.360  -0.353  -0.350  -0.347
 -0.341  -0.340  -0.326  -0.323  -0.317  -0.315  -0.310  -0.308
 -0.300  -0.296  -0.295  -0.292  -0.288  -0.282  -0.270  -0.264
 -0.264  -0.252  -0.249  -0.242  -0.236  -0.230  -0.215  -0.182
 -0.177  -0.170  -0.163  -0.159  -0.152  -0.149  -0.142  -0.138
 -0.128

          Ground-State Mulliken Net Atomic Charges

     Atom                 Charge (a.u.)
  ----------------------------------------
      1 O                    -0.217959
      2 C                     0.223743
      3 C                    -0.079253
      4 C                    -0.081437
      5 C                     0.206531
      6 O                    -0.170006
      7 C                    -0.048048
      8 C                    -0.060529
      9 O                    -0.173716
     10 C                     0.210237
     11 C                    -0.095374
     12 C                    -0.090620
     13 C                     0.221398
     14 O                    -0.222646
     15 O                    -0.165893
     16 O                    -0.162208
     17 O                    -0.208819
     18 C                    -0.126250
     19 C                     0.025422
     20 C                    -0.143138
     21 C                    -0.143816
     22 C                     0.024913
     23 O                    -0.191327
     24 H                     0.120139
     25 H                     0.103473
     26 H                     0.079764
     27 H                     0.073005
     28 H                     0.078741
     29 H                     0.073465
     30 H                     0.074078
     31 H                     0.083349
     32 O                    -0.206144
     33 C                    -0.127645
     34 C                     0.026086
     35 C                    -0.145705
     36 C                    -0.143750
     37 C                     0.002185
     38 O                    -0.199742
     39 H                     0.085948
     40 H                     0.084905
     41 H                     0.092360
     42 H                     0.079900
     43 H                     0.075898
     44 H                     0.071780
     45 H                     0.076169
     46 H                     0.071779
     47 H                     0.120684
     48 H                     0.087439
     49 H                     0.088869
     50 H                     0.088478
     51 H                     0.096628
     52 H                     0.086447
     53 H                     0.109063
     54 H                     0.083561
     55 H                     0.087658
     56 H                     0.089930
  ----------------------------------------
  Sum of atomic charges =    -0.000000

                    Cartesian Multipole Moments
 -----------------------------------------------------------------
    Charge (ESU x 10^10)
                -0.0000
    Dipole Moment (Debye)
         X      -2.7581      Y       0.4498      Z       1.6971
       Tot       3.2695
    Quadrupole Moments (Debye-Ang)
        XX    -158.9307     XY       0.9552     YY    -148.6771
        XZ      -2.3937     YZ       6.1498     ZZ    -153.3352

 Total job time:  213.04s(wall), 9840.33s(cpu)
        *  Thank you very much for using Q-Chem.  Have a nice day.  *
