 Q-Chem 5.0, Q-Chem, Inc., Pleasanton, CA (2017)
 Q-Chem 5.0.1 for Intel X86 EM64T Linux

User input:
--------------------------------------------------------------
$molecule
0  1
O -3.94934 -3.66094 2.70899
C -3.26408 -4.56952 2.26188
C -3.36658 -6.02376 2.66595
C -2.12836 -6.66087 3.31767
C -0.98754 -5.72649 3.65466
O 0.19529 -6.27072 3.24217
C 1.26305 -5.31902 3.18383
C 0.96232 -4.135 4.09694
O -0.32488 -3.58431 3.77638
C -0.76393 -2.60626 4.60693
C -2.25538 -2.3858 4.51959
C -3.02364 -2.63134 5.82641
C -2.1814 -2.70554 7.08411
O -2.50727 -3.26019 8.12369
O -2.34832 -4.28935 1.29709
O -1.23675 -1.74 7.2409
O 0.01538 -1.86821 5.19388
C -0.48276 -1.53676 8.37997
C -2.62646 -0.92084 4.20842
C -4.01874 -0.80605 3.60556
C -4.87344 -1.22853 4.78479
C -3.80178 -1.29635 5.88532
O -2.83498 -0.35521 5.47869
H -2.41704 -3.05251 3.81452
H -3.70573 -3.50931 5.79613
H -1.88055 -0.40264 3.56655
H -4.17647 0.28373 3.43372
H -4.22004 -1.31308 2.64357
H -5.62377 -0.42988 4.97582
H -5.38244 -2.21053 4.67443
H -4.2588 -1.12523 6.88528
O -1.08527 -5.44319 4.85471
C -2.13054 -3.03549 0.76503
C -4.44296 -6.2853 3.74102
C -4.93141 -7.72865 3.64371
C -3.72424 -8.46794 4.17472
C -2.82647 -7.28711 4.56433
O -3.73373 -6.28591 4.95289
H -3.65325 -6.55937 1.73283
H -1.72105 -7.4976 2.70404
H -1.79758 -2.33105 1.55502
H -5.31013 -5.59201 3.68139
H -5.76654 -7.84388 4.37159
H -5.27744 -8.04474 2.63611
H -4.03263 -9.0356 5.08091
H -3.22684 -9.15002 3.45197
H -2.0975 -7.61826 5.33682
H -3.05988 -2.65461 0.29044
H -1.33596 -3.10181 -0.0059
H 0.20876 -0.68626 8.21026
H 0.11542 -2.44479 8.60763
H -1.14239 -1.29337 9.24006
H 1.01043 -4.46523 5.1608
H 1.75605 -3.36729 3.96224
H 1.37027 -4.97446 2.13282
H 2.21414 -5.7966 3.50069
$end

$opt
CONSTRAINT
tors           1           2           3           4    -117.934
tors           3           4           5           6    -133.838
tors           4           5           6           7    +163.830
tors           5           6           7           8     +22.650
tors           6           7           8           9     -53.746
tors           7           8           9          10    +173.812
tors           8           9          10          11    -161.053
tors           9          10          11          12    +118.897
tors          11          12          13          14    -157.358
ENDCONSTRAINT
$end

$rem
JOBTYPE                   OPT
METHOD                    B3LYP
DFT_D                     d3_op
BASIS                     STO-3G
GEOM_OPT_MAX_CYCLES       100
GEOM_OPT_TOL_GRADIENT     300
GEOM_OPT_TOL_DISPLACEMENT 1200
GEOM_OPT_TOL_ENERGY       100
SYMMETRY                  False
THRESH                    12
SCF_CONVERGENCE           8
MAX_SUB_FILE_NUM          128
MEM_STATIC                400
MEM_TOTAL                 4000
$end
--------------------------------------------------------------

   16   -1510.0452723853      5.41E-09 Convergence criterion met
 Total energy in the final basis set = -1510.04527239
   15   -1510.1156903415      7.79E-09 Convergence criterion met
 Total energy in the final basis set = -1510.11569034
   14   -1510.1789585806      9.16E-09 Convergence criterion met
 Total energy in the final basis set = -1510.17895858
   14   -1510.2142759206      7.50E-09 Convergence criterion met
 Total energy in the final basis set = -1510.21427592
   14   -1510.2344270229      6.69E-09 Convergence criterion met
 Total energy in the final basis set = -1510.23442702
   14   -1510.2463117082      4.94E-09 Convergence criterion met
 Total energy in the final basis set = -1510.24631171
   13   -1510.2540264770      9.03E-09 Convergence criterion met
 Total energy in the final basis set = -1510.25402648
   14   -1510.2594870469      3.07E-09 Convergence criterion met
   11   -1510.2658737576      5.21E-09 Convergence criterion met
 Total energy in the final basis set = -1510.26587376
   11   -1510.2658886984      5.88E-09 Convergence criterion met
 Total energy in the final basis set = -1510.26588870
   10   -1510.2658922753      9.04E-09 Convergence criterion met
 Total energy in the final basis set = -1510.26589228
   10   -1510.2658959437      6.54E-09 Convergence criterion met
 Total energy in the final basis set = -1510.26589594
    9   -1510.2658949416      8.22E-09 Convergence criterion met
 Total energy in the final basis set = -1510.26589494
    9   -1510.2658976131      7.26E-09 Convergence criterion met
 Total energy in the final basis set = -1510.26589761

             Standard Nuclear Orientation (Angstroms)
    I     Atom           X                Y                Z
 ----------------------------------------------------------------
    1      O      -0.9427008566    -1.9214434681     0.9089759815
    2      C      -1.9733003022    -1.2406323619     1.1075753282
    3      C      -3.2466750122    -1.0758698655     0.1962189707
    4      C      -3.4227668111     0.4411051384    -0.2598920105
    5      C      -2.1085406545     1.2264052877     0.0946513699
    6      O      -2.4388479148     2.4679958326     0.7237588552
    7      C      -1.3737347482     3.2008968271     1.4663024407
    8      C       0.1699820291     3.0089492871     1.2057199544
    9      O       0.4966601055     1.5724302115     1.3105378761
   10      C       1.8616419864     1.2742790744     0.9484383726
   11      C       1.8669528904    -0.2651571418     0.6443052585
   12      C       2.2688102682    -0.7452114427    -0.8164813299
   13      C       3.0257144844     0.2198241155    -1.7956343256
   14      O       3.0331525609     0.1141910482    -3.0435093286
   15      O      -2.1996069682    -0.4132794143     2.2526945377
   16      O       3.8720452462     1.1155513353    -1.0767849164
   17      O       2.7597178432     2.1387884079     0.9344896090
   18      C       4.6567894530     1.9404686993    -2.0227447903
   19      C       2.8529724883    -1.1365366192     1.5423453727
   20      C       2.2003474914    -2.5708239722     1.6566169352
   21      C       2.4540983520    -3.1220720938     0.2051397236
   22      C       3.2684453592    -1.9329742697    -0.4433866914
   23      O       4.0372159536    -1.3658189306     0.6866493284
   24      H       0.8272188972    -0.5998162321     0.8136390998
   25      H       1.3781320585    -1.1185873211    -1.3527264128
   26      H       3.1513797865    -0.6673790581     2.4997763008
   27      H       2.7167458240    -3.1754505418     2.4192513432
   28      H       1.1247784308    -2.5185270389     1.8924560868
   29      H       3.0601792924    -4.0419150025     0.2171016688
   30      H       1.5148392199    -3.3210534978    -0.3355055855
   31      H       3.9478215751    -2.2258904144    -1.2674765989
   32      O      -0.9879917735     0.8757205087    -0.3308495802
   33      C      -0.9744958353    -0.2972657656     3.0817371576
   34      C      -3.1354285965    -1.8128469395    -1.2000703437
   35      C      -4.5940666181    -1.9443450453    -1.7880047612
   36      C      -4.8914295725    -0.4495343142    -2.1841270617
   37      C      -3.5153517270     0.2456596979    -1.8334431648
   38      O      -2.5060054577    -0.8074368484    -2.0887120767
   39      H      -4.1287258476    -1.4198582084     0.7665109575
   40      H      -4.3113767203     0.9248867188     0.1805166870
   41      H      -0.2762670628     0.4241807749     2.5934285013
   42      H      -2.5328401433    -2.7415587485    -1.1794323664
   43      H      -4.5929510665    -2.6011147422    -2.6724744019
   44      H      -5.3100200106    -2.3423709394    -1.0512730749
   45      H      -5.1113924818    -0.3502252353    -3.2588256049
   46      H      -5.7276531887    -0.0180356223    -1.6110166498
   47      H      -3.2823193757     1.1538665460    -2.4226194628
   48      H      -0.4760665280    -1.2777162822     3.2118347806
   49      H      -1.3026240367     0.0887001925     4.0639653451
   50      H       5.2897097933     2.5956693624    -1.3966535963
   51      H       4.0005327198     2.5621976468    -2.6656050361
   52      H       5.2981313493     1.3147858288    -2.6768944847
   53      H       0.4553277125     3.3903258314     0.2012516711
   54      H       0.7086628882     3.6131471143     1.9707098906
   55      H      -1.5513421927     2.9835429612     2.5440117953
   56      H      -1.6019976699     4.2762131197     1.3032459040
 ----------------------------------------------------------------

    8   -1510.2658929004      9.21E-09 Convergence criterion met
 Total energy in the final basis set = -1510.26589290
 Final energy is   -1510.26589290044
 **  OPTIMIZATION CONVERGED  **

                    Orbital Energies (a.u.)
 --------------------------------------------------------------

 Alpha MOs
 -- Occupied --
-18.934 -18.932 -18.931 -18.923 -18.887 -18.881 -18.880 -18.878
-18.874 -18.855 -10.103 -10.100 -10.097 -10.084 -10.084 -10.083
-10.061 -10.059 -10.052 -10.050 -10.050 -10.049 -10.038 -10.036
-10.025 -10.021 -10.021 -10.020 -10.008 -10.005  -1.017  -1.010
 -1.001  -0.996  -0.969  -0.960  -0.939  -0.938  -0.936  -0.919
 -0.763  -0.751  -0.728  -0.720  -0.708  -0.703  -0.692  -0.658
 -0.649  -0.622  -0.594  -0.577  -0.548  -0.538  -0.534  -0.527
 -0.511  -0.506  -0.478  -0.472  -0.461  -0.456  -0.450  -0.435
 -0.431  -0.429  -0.423  -0.413  -0.409  -0.405  -0.400  -0.398
 -0.392  -0.379  -0.371  -0.364  -0.360  -0.356  -0.354  -0.347
 -0.339  -0.335  -0.331  -0.328  -0.325  -0.321  -0.317  -0.311
 -0.306  -0.300  -0.297  -0.294  -0.288  -0.283  -0.278  -0.275
 -0.264  -0.254  -0.250  -0.242  -0.234  -0.233  -0.224  -0.189
 -0.175  -0.170  -0.163  -0.158  -0.151  -0.144  -0.137  -0.134
 -0.131

          Ground-State Mulliken Net Atomic Charges

     Atom                 Charge (a.u.)
  ----------------------------------------
      1 O                    -0.215332
      2 C                     0.215716
      3 C                    -0.077773
      4 C                    -0.076779
      5 C                     0.210672
      6 O                    -0.172780
      7 C                    -0.048273
      8 C                    -0.044736
      9 O                    -0.173782
     10 C                     0.214149
     11 C                    -0.084065
     12 C                    -0.076474
     13 C                     0.204358
     14 O                    -0.220929
     15 O                    -0.175586
     16 O                    -0.158756
     17 O                    -0.196602
     18 C                    -0.126120
     19 C                     0.024473
     20 C                    -0.145737
     21 C                    -0.144042
     22 C                     0.025513
     23 O                    -0.188827
     24 H                     0.101554
     25 H                     0.094675
     26 H                     0.078955
     27 H                     0.072203
     28 H                     0.083335
     29 H                     0.074595
     30 H                     0.079762
     31 H                     0.081307
     32 O                    -0.203975
     33 C                    -0.147436
     34 C                     0.023984
     35 C                    -0.142999
     36 C                    -0.144469
     37 C                     0.025429
     38 O                    -0.185062
     39 H                     0.084219
     40 H                     0.085849
     41 H                     0.105541
     42 H                     0.088358
     43 H                     0.078458
     44 H                     0.072902
     45 H                     0.078498
     46 H                     0.073560
     47 H                     0.083158
     48 H                     0.084764
     49 H                     0.082663
     50 H                     0.091842
     51 H                     0.085563
     52 H                     0.087166
     53 H                     0.091477
     54 H                     0.089854
     55 H                     0.085188
     56 H                     0.090794
  ----------------------------------------
  Sum of atomic charges =    -0.000000

                    Cartesian Multipole Moments
 -----------------------------------------------------------------
    Charge (ESU x 10^10)
                -0.0000
    Dipole Moment (Debye)
         X      -3.6703      Y       1.0765      Z       1.9977
       Tot       4.3152
    Quadrupole Moments (Debye-Ang)
        XX    -157.4675     XY       1.6826     YY    -149.0690
        XZ       0.7771     YZ       0.1871     ZZ    -159.7746

 Total job time:  71.82s(wall), 3423.41s(cpu)
        *  Thank you very much for using Q-Chem.  Have a nice day.  *
