 Q-Chem 5.0, Q-Chem, Inc., Pleasanton, CA (2017)
 Q-Chem 5.0.1 for Intel X86 EM64T Linux

User input:
--------------------------------------------------------------
$molecule
0  1
O -5.7569955939 2.0809357467 0.8465178184
C -5.1386790773 1.532466913 -0.0893514954
C -5.2574069665 0.0388998474 -0.5710206697
C -3.9584834408 -0.8345377929 -0.3501534417
C -2.8594518849 -0.118058438 0.5120812742
O -1.6822896491 -0.9564311008 0.665430093
C -0.5549491399 -0.3778499722 -0.105504738
C 0.7346800773 -0.3194884568 0.7991342077
O 1.8115803927 -1.009928727 0.0506360699
C 3.0893980114 -0.7522607773 0.6602851481
C 4.1981879616 -1.0733152387 -0.407444276
C 5.1081083317 0.1520323005 -0.8326789081
C 4.5869013337 1.6154330977 -0.6102270005
O 5.1536584457 2.6493710074 -1.0284910172
O -4.2990119536 2.2268660388 -1.0265763039
O 3.3028479392 1.6299893498 0.0195674861
O 3.2431844114 -0.41470128 1.852177853
C 2.8220709633 3.0230697423 0.1672688861
C 5.2958405997 -1.990164276 0.2889115224
C 6.331708245 -2.5059248023 -0.7883827625
C 7.2441576043 -1.2368390283 -0.9754248923
C 6.4741326366 -0.1910355573 -0.0795159348
O 6.0590016496 -1.0007119759 1.0860419829
H 3.7212470023 -1.54848413 -1.2822840428
H 5.2893291905 0.0885310527 -1.9224627883
H 4.8768058778 -2.7734574679 0.949794966
H 6.9016538889 -3.3638588644 -0.3985996798
H 5.8324945598 -2.8095421275 -1.7225385024
H 8.2566848735 -1.4080013995 -0.5759658139
H 7.3259368051 -0.9152448795 -2.0259411564
H 7.0610903376 0.6916213238 0.240626824
O -2.9551518437 1.0166271973 1.0265241682
C -4.1286967033 3.6317552457 -0.5963159983
C -6.3263892787 -0.7837151858 0.2624063726
C -6.7601010909 -2.031781719 -0.600127754
C -5.4676295352 -2.9254971809 -0.5016378464
C -4.5649383269 -2.0599550115 0.4649488082
O -5.5361950576 -1.3915742558 1.3600076377
H -5.5186609955 0.0581390003 -1.6446184345
H -3.494651407 -1.1584509658 -1.2993246966
H -3.5980733654 3.6922160987 0.3761179553
H -7.1489094951 -0.167968997 0.6751872449
H -7.6296737932 -2.5313403103 -0.1438448614
H -7.012212136 -1.7575616421 -1.6369627482
H -5.684946131 -3.9058723193 -0.0487263735
H -4.9865381069 -3.0879406159 -1.4795219798
H -3.815726248 -2.6287784065 1.0497942077
H -5.103075078 4.1527849163 -0.4986592232
H -3.522819523 4.1228383184 -1.3800106793
H 1.8331825937 2.9535331531 0.6565855549
H 2.7174805497 3.5233795419 -0.8172171268
H 3.5062311898 3.6247948749 0.7991517558
H 1.0273295878 0.7265690574 1.0261618292
H 0.5214147441 -0.8338795262 1.763664886
H -0.7933506401 0.6349389111 -0.4916472341
H -0.340010847 -1.0412491848 -0.9748683985
$end

$rem
JOBTYPE                   OPT
METHOD                    B3LYP
DFT_D                     d3_op
BASIS                     STO-3G
GEOM_OPT_MAX_CYCLES       100
GEOM_OPT_TOL_GRADIENT     300
GEOM_OPT_TOL_DISPLACEMENT 1200
GEOM_OPT_TOL_ENERGY       100
SYMMETRY                  False
THRESH                    12
SCF_CONVERGENCE           8
MAX_SUB_FILE_NUM          128
MEM_STATIC                400
MEM_TOTAL                 4000
$end
--------------------------------------------------------------

   16   -1510.2539346142      6.13E-09 Convergence criterion met
 Total energy in the final basis set = -1510.25393461
   13   -1510.2584659419      8.64E-09 Convergence criterion met
 Total energy in the final basis set = -1510.25846594
   13   -1510.2631654929      8.92E-09 Convergence criterion met
 Total energy in the final basis set = -1510.26316549
   14   -1510.2677945479      1.84E-09 Convergence criterion met
 Total energy in the final basis set = -1510.26779455
   14   -1510.2721481440      3.20E-09 Convergence criterion met
 Total energy in the final basis set = -1510.27214814
   13   -1510.2754554625      8.31E-09 Convergence criterion met
 Total energy in the final basis set = -1510.27545546
   14   -1510.2777489179      5.14E-09 Convergence criterion met
 Total energy in the final basis set = -1510.27774892
   13   -1510.2792579389      5.59E-09 Convergence criterion met
   12   -1510.2928594924      9.05E-09 Convergence criterion met
 Total energy in the final basis set = -1510.29285949
   12   -1510.2928845171      7.46E-09 Convergence criterion met
 Total energy in the final basis set = -1510.29288452
   11   -1510.2928876754      8.57E-09 Convergence criterion met
 Total energy in the final basis set = -1510.29288768
   10   -1510.2928843934      8.04E-09 Convergence criterion met
 Total energy in the final basis set = -1510.29288439
   10   -1510.2928889424      7.70E-09 Convergence criterion met
 Total energy in the final basis set = -1510.29288894
    9   -1510.2928840385      7.92E-09 Convergence criterion met
 Total energy in the final basis set = -1510.29288404

             Standard Nuclear Orientation (Angstroms)
    I     Atom           X                Y                Z
 ----------------------------------------------------------------
    1      O      -3.1372849562     1.8013386419     1.7720207983
    2      C      -3.5237740555     1.5613803818     0.6092720860
    3      C      -4.4679765540     0.3920712543     0.1407593275
    4      C      -3.7795194099    -0.7039855950    -0.7693496679
    5      C      -2.2462801153    -0.4723781575    -0.9638712168
    6      O      -1.8077468097    -1.2806353370    -2.0540060000
    7      C      -0.3422699180    -1.1621265000    -2.2660676642
    8      C       0.4655103130    -2.0219464063    -1.2268095954
    9      O       1.9114749014    -1.7928234506    -1.4507309016
   10      C       2.4881865797    -1.1444998979    -0.3014333993
   11      C       3.9887765429    -0.8386020817    -0.6192521571
   12      C       4.3386758703     0.7077388577    -0.5444695550
   13      C       3.1153989657     1.6302148657    -0.2034655197
   14      O       3.0711313505     2.5218326037     0.6714718302
   15      O      -3.2724124973     2.4102377065    -0.5209173068
   16      O       2.0364000023     1.2976398878    -1.0829207885
   17      O       1.8690877724    -0.9300448280     0.7634185150
   18      C       0.8257858907     2.0890596065    -0.7482407344
   19      C       4.9450895383    -1.4054016111     0.5181741617
   20      C       6.4314028818    -1.3782144902    -0.0185032225
   21      C       6.7649257860     0.1570719831     0.0817237388
   22      C       5.3999928940     0.7272643231     0.6316877587
   23      O       4.9205221933    -0.3385242827     1.5424642700
   24      H       4.2251222585    -1.2606170369    -1.6113777064
   25      H       4.7786941206     1.0514337077    -1.4989771464
   26      H       4.6173854463    -2.3690006663     0.9542402061
   27      H       7.0861119670    -1.9782045395     0.6334654230
   28      H       6.5083887865    -1.7638250647    -1.0477672248
   29      H       7.5792602005     0.3468976515     0.7987318647
   30      H       7.0380753165     0.5985778332    -0.8898018871
   31      H       5.4533942983     1.6965225492     1.1645312513
   32      O      -1.5093824278     0.2697976700    -0.2724603847
   33      C      -2.4197247401     3.5477554537    -0.1095144259
   34      C      -4.9445696531    -0.4881887791     1.3710590002
   35      C      -6.2182893229    -1.3090111486     0.9290484379
   36      C      -5.5686252293    -2.3893395118    -0.0126955889
   37      C      -4.0380283873    -2.0142344262     0.1004712066
   38      O      -3.8915615645    -1.5256421773     1.4879071130
   39      H      -5.3256668645     0.8436655818    -0.3901691737
   40      H      -4.2553952439    -0.7832117497    -1.7627414479
   41      H      -1.5222627235     3.2048130260     0.4423339248
   42      H      -5.0339174177     0.0758340603     2.3196760229
   43      H      -6.6995143766    -1.7740281655     1.8042673759
   44      H      -6.9595912437    -0.6807423986     0.4096614720
   45      H      -5.7418991625    -3.4108243236     0.3613710755
   46      H      -5.9329822834    -2.3261838315    -1.0505067768
   47      H      -3.3320870585    -2.8429686350    -0.1027935941
   48      H      -2.9767972191     4.2595071163     0.5342428765
   49      H      -2.1147296235     4.0584522659    -1.0413951509
   50      H      -0.0080455142     1.3862619070    -0.5180713543
   51      H       0.5589652382     2.7148565832    -1.6223450726
   52      H       1.0444630500     2.7376973973     0.1227732211
   53      H       0.2179125037    -1.7110669667    -0.1873676634
   54      H       0.2484080457    -3.1012024105    -1.3652476383
   55      H      -0.0112955808    -0.1052504818    -2.2008075383
   56      H      -0.1643222326    -1.5347568527    -3.2945847620
 ----------------------------------------------------------------

    9   -1510.2928852018      4.17E-09 Convergence criterion met
 Total energy in the final basis set = -1510.29288520
 Final energy is   -1510.29288520179
 **  OPTIMIZATION CONVERGED  **

                    Orbital Energies (a.u.)
 --------------------------------------------------------------

 Alpha MOs
 -- Occupied --
-18.950 -18.929 -18.927 -18.922 -18.896 -18.890 -18.885 -18.874
-18.873 -18.866 -10.116 -10.097 -10.096 -10.093 -10.078 -10.066
-10.064 -10.059 -10.058 -10.056 -10.055 -10.044 -10.037 -10.037
-10.036 -10.036 -10.023 -10.021 -10.019 -10.018  -1.027  -1.011
 -1.003  -1.001  -0.972  -0.968  -0.952  -0.934  -0.931  -0.927
 -0.766  -0.762  -0.729  -0.722  -0.714  -0.705  -0.696  -0.658
 -0.651  -0.621  -0.597  -0.581  -0.548  -0.543  -0.539  -0.535
 -0.514  -0.507  -0.484  -0.475  -0.463  -0.457  -0.456  -0.450
 -0.436  -0.432  -0.428  -0.412  -0.410  -0.409  -0.402  -0.399
 -0.393  -0.380  -0.376  -0.366  -0.363  -0.357  -0.354  -0.349
 -0.345  -0.337  -0.334  -0.331  -0.328  -0.327  -0.324  -0.314
 -0.309  -0.308  -0.305  -0.302  -0.292  -0.286  -0.280  -0.275
 -0.269  -0.262  -0.247  -0.245  -0.242  -0.236  -0.232  -0.196
 -0.175  -0.169  -0.167  -0.162  -0.158  -0.151  -0.147  -0.144
 -0.141

          Ground-State Mulliken Net Atomic Charges

     Atom                 Charge (a.u.)
  ----------------------------------------
      1 O                    -0.211654
      2 C                     0.215301
      3 C                    -0.080609
      4 C                    -0.077759
      5 C                     0.220978
      6 O                    -0.168542
      7 C                    -0.050982
      8 C                    -0.059971
      9 O                    -0.174099
     10 C                     0.214390
     11 C                    -0.078530
     12 C                    -0.078121
     13 C                     0.214669
     14 O                    -0.209662
     15 O                    -0.177651
     16 O                    -0.178347
     17 O                    -0.209618
     18 C                    -0.154420
     19 C                     0.026070
     20 C                    -0.144011
     21 C                    -0.144061
     22 C                     0.024411
     23 O                    -0.185633
     24 H                     0.086065
     25 H                     0.084223
     26 H                     0.083513
     27 H                     0.078125
     28 H                     0.073027
     29 H                     0.078396
     30 H                     0.072657
     31 H                     0.091788
     32 O                    -0.205877
     33 C                    -0.129498
     34 C                     0.025036
     35 C                    -0.143874
     36 C                    -0.143682
     37 C                     0.025727
     38 O                    -0.187019
     39 H                     0.084034
     40 H                     0.088264
     41 H                     0.095445
     42 H                     0.091516
     43 H                     0.078896
     44 H                     0.073521
     45 H                     0.078834
     46 H                     0.073805
     47 H                     0.083237
     48 H                     0.084641
     49 H                     0.085681
     50 H                     0.109911
     51 H                     0.074455
     52 H                     0.097561
     53 H                     0.106808
     54 H                     0.083111
     55 H                     0.097681
     56 H                     0.091839
  ----------------------------------------
  Sum of atomic charges =    -0.000000

                    Cartesian Multipole Moments
 -----------------------------------------------------------------
    Charge (ESU x 10^10)
                -0.0000
    Dipole Moment (Debye)
         X      -0.9741      Y      -1.2023      Z      -4.5783
       Tot       4.8327
    Quadrupole Moments (Debye-Ang)
        XX    -134.4994     XY      -1.1369     YY    -154.0656
        XZ      -3.8564     YZ      -1.7204     ZZ    -167.7745

 Total job time:  176.23s(wall), 7856.46s(cpu)
        *  Thank you very much for using Q-Chem.  Have a nice day.  *
