 Q-Chem 5.0, Q-Chem, Inc., Pleasanton, CA (2017)
 Q-Chem 5.0.1 for Intel X86 EM64T Linux

User input:
--------------------------------------------------------------
$molecule
0  1
O -3.94934 -3.66094 2.70899
C -3.26408 -4.56952 2.26188
C -3.36658 -6.02376 2.66595
C -2.16558 -6.63328 3.40753
C -1.07009 -5.67493 3.81929
O -0.06736 -6.35817 4.4463
C 1.13627 -6.42585 3.67432
C 2.33469 -6.0377 4.53412
O 3.33459 -7.06696 4.4732
C 4.54968 -6.72975 4.97219
C 5.65651 -7.63624 4.48859
C 6.75368 -6.93891 3.67113
C 6.78144 -5.42615 3.75752
O 7.48677 -4.69046 3.08236
O -2.36492 -4.28991 1.2807
O 6.05638 -4.75332 4.68528
O 4.61995 -6.1492 6.05095
C 6.02047 -3.38175 4.85178
C 6.51752 -8.24888 5.61675
C 7.18098 -9.53244 5.11832
C 8.19192 -8.96789 4.13926
C 8.00473 -7.46627 4.38652
O 7.6216 -7.38407 5.73881
H 5.19221 -8.47593 3.92053
H 6.6742 -7.19624 2.59209
H 5.94504 -8.44996 6.54853
H 7.73039 -9.96474 5.9855
H 6.49718 -10.30307 4.702
H 9.20618 -9.3035 4.44964
H 8.01311 -9.22309 3.0721
H 8.92135 -6.90291 4.10322
O -0.978 -4.48342 3.56656
C -2.14765 -3.03097 0.76104
C -4.47289 -6.25994 3.71888
C -4.91766 -7.72243 3.6971
C -3.72222 -8.38997 4.34059
C -2.86588 -7.16474 4.67167
O -3.80706 -6.15893 4.95292
H -3.62847 -6.58728 1.74244
H -1.68387 -7.44056 2.81126
H -1.80383 -2.34086 1.56096
H -5.35847 -5.60094 3.58457
H -5.78737 -7.81763 4.38617
H -5.19876 -8.1114 2.69482
H -4.0588 -8.88466 5.279
H -3.18168 -9.11998 3.69994
H -2.1553 -7.40843 5.49171
H -3.08095 -2.63976 0.30256
H -1.36302 -3.0908 -0.02076
H 5.33374 -3.13569 5.68738
H 5.64497 -2.89445 3.92666
H 7.03373 -2.99803 5.09686
H 2.71945 -5.04953 4.19377
H 2.02313 -5.9407 5.59843
H 1.12742 -5.88213 2.70008
H 1.24389 -7.50214 3.41705
$end

$opt
CONSTRAINT
tors           1           2           3           4    -113.698
tors           3           4           5           6    -179.118
tors           4           5           6           7    +110.197
tors           5           6           7           8    +131.582
tors           6           7           8           9    +126.476
tors           7           8           9          10    +167.356
tors           8           9          10          11    -161.053
tors           9          10          11          12    +118.068
tors          11          12          13          14    -172.308
ENDCONSTRAINT
$end

$rem
JOBTYPE                   OPT
METHOD                    B3LYP
DFT_D                     d3_op
BASIS                     STO-3G
GEOM_OPT_MAX_CYCLES       100
GEOM_OPT_TOL_GRADIENT     300
GEOM_OPT_TOL_DISPLACEMENT 1200
GEOM_OPT_TOL_ENERGY       100
SYMMETRY                  False
THRESH                    12
SCF_CONVERGENCE           8
MAX_SUB_FILE_NUM          128
MEM_STATIC                400
MEM_TOTAL                 4000
$end
--------------------------------------------------------------

   15   -1510.1008223201      8.82E-09 Convergence criterion met
 Total energy in the final basis set = -1510.10082232
   14   -1510.1754549492      4.92E-09 Convergence criterion met
 Total energy in the final basis set = -1510.17545495
   14   -1510.2160350019      6.28E-09 Convergence criterion met
 Total energy in the final basis set = -1510.21603500
   14   -1510.2341176127      6.03E-09 Convergence criterion met
 Total energy in the final basis set = -1510.23411761
   13   -1510.2430617114      9.58E-09 Convergence criterion met
 Total energy in the final basis set = -1510.24306171
   13   -1510.2465758458      5.55E-09 Convergence criterion met
 Total energy in the final basis set = -1510.24657585
   13   -1510.2484380195      2.25E-09 Convergence criterion met
 Total energy in the final basis set = -1510.24843802
   12   -1510.2491946433      9.25E-09 Convergence criterion met
   11   -1510.2538820537      8.95E-09 Convergence criterion met
 Total energy in the final basis set = -1510.25388205
   11   -1510.2539190831      5.69E-09 Convergence criterion met
 Total energy in the final basis set = -1510.25391908
   11   -1510.2539468264      3.24E-09 Convergence criterion met
 Total energy in the final basis set = -1510.25394683
   11   -1510.2539624819      3.00E-09 Convergence criterion met
 Total energy in the final basis set = -1510.25396248
   10   -1510.2539678792      9.94E-09 Convergence criterion met
 Total energy in the final basis set = -1510.25396788
    9   -1510.2539694130      4.37E-09 Convergence criterion met
 Total energy in the final basis set = -1510.25396941

             Standard Nuclear Orientation (Angstroms)
    I     Atom           X                Y                Z
 ----------------------------------------------------------------
    1      O      -5.7569955939     2.0809357467     0.8465178184
    2      C      -5.1386790773     1.5324669130    -0.0893514954
    3      C      -5.2574069665     0.0388998474    -0.5710206697
    4      C      -3.9584834408    -0.8345377929    -0.3501534417
    5      C      -2.8594518849    -0.1180584380     0.5120812742
    6      O      -1.6822896491    -0.9564311008     0.6654300930
    7      C      -0.5549491399    -0.3778499722    -0.1055047380
    8      C       0.7346800773    -0.3194884568     0.7991342077
    9      O       1.8115803927    -1.0099287270     0.0506360699
   10      C       3.0893980114    -0.7522607773     0.6602851481
   11      C       4.1981879616    -1.0733152387    -0.4074442760
   12      C       5.1081083317     0.1520323005    -0.8326789081
   13      C       4.5869013337     1.6154330977    -0.6102270005
   14      O       5.1536584457     2.6493710074    -1.0284910172
   15      O      -4.2990119536     2.2268660388    -1.0265763039
   16      O       3.3028479392     1.6299893498     0.0195674861
   17      O       3.2431844114    -0.4147012800     1.8521778530
   18      C       2.8220709633     3.0230697423     0.1672688861
   19      C       5.2958405997    -1.9901642760     0.2889115224
   20      C       6.3317082450    -2.5059248023    -0.7883827625
   21      C       7.2441576043    -1.2368390283    -0.9754248923
   22      C       6.4741326366    -0.1910355573    -0.0795159348
   23      O       6.0590016496    -1.0007119759     1.0860419829
   24      H       3.7212470023    -1.5484841300    -1.2822840428
   25      H       5.2893291905     0.0885310527    -1.9224627883
   26      H       4.8768058778    -2.7734574679     0.9497949660
   27      H       6.9016538889    -3.3638588644    -0.3985996798
   28      H       5.8324945598    -2.8095421275    -1.7225385024
   29      H       8.2566848735    -1.4080013995    -0.5759658139
   30      H       7.3259368051    -0.9152448795    -2.0259411564
   31      H       7.0610903376     0.6916213238     0.2406268240
   32      O      -2.9551518437     1.0166271973     1.0265241682
   33      C      -4.1286967033     3.6317552457    -0.5963159983
   34      C      -6.3263892787    -0.7837151858     0.2624063726
   35      C      -6.7601010909    -2.0317817190    -0.6001277540
   36      C      -5.4676295352    -2.9254971809    -0.5016378464
   37      C      -4.5649383269    -2.0599550115     0.4649488082
   38      O      -5.5361950576    -1.3915742558     1.3600076377
   39      H      -5.5186609955     0.0581390003    -1.6446184345
   40      H      -3.4946514070    -1.1584509658    -1.2993246966
   41      H      -3.5980733654     3.6922160987     0.3761179553
   42      H      -7.1489094951    -0.1679689970     0.6751872449
   43      H      -7.6296737932    -2.5313403103    -0.1438448614
   44      H      -7.0122121360    -1.7575616421    -1.6369627482
   45      H      -5.6849461310    -3.9058723193    -0.0487263735
   46      H      -4.9865381069    -3.0879406159    -1.4795219798
   47      H      -3.8157262480    -2.6287784065     1.0497942077
   48      H      -5.1030750780     4.1527849163    -0.4986592232
   49      H      -3.5228195230     4.1228383184    -1.3800106793
   50      H       1.8331825937     2.9535331531     0.6565855549
   51      H       2.7174805497     3.5233795419    -0.8172171268
   52      H       3.5062311898     3.6247948749     0.7991517558
   53      H       1.0273295878     0.7265690574     1.0261618292
   54      H       0.5214147441    -0.8338795262     1.7636648860
   55      H      -0.7933506401     0.6349389111    -0.4916472341
   56      H      -0.3400108470    -1.0412491848    -0.9748683985
 ----------------------------------------------------------------

    9   -1510.2539693447      2.89E-09 Convergence criterion met
 Total energy in the final basis set = -1510.25396934
 Final energy is   -1510.25396934473
 **  OPTIMIZATION CONVERGED  **

                    Orbital Energies (a.u.)
 --------------------------------------------------------------

 Alpha MOs
 -- Occupied --
-18.945 -18.922 -18.922 -18.913 -18.910 -18.890 -18.888 -18.877
-18.868 -18.866 -10.116 -10.105 -10.095 -10.094 -10.078 -10.072
-10.068 -10.063 -10.062 -10.060 -10.058 -10.058 -10.043 -10.041
-10.037 -10.036 -10.023 -10.022 -10.021 -10.021  -1.019  -1.018
 -1.002  -1.000  -0.972  -0.972  -0.945  -0.941  -0.929  -0.928
 -0.765  -0.764  -0.727  -0.724  -0.713  -0.706  -0.697  -0.668
 -0.657  -0.614  -0.600  -0.581  -0.548  -0.547  -0.539  -0.539
 -0.516  -0.514  -0.488  -0.482  -0.463  -0.458  -0.456  -0.448
 -0.434  -0.433  -0.423  -0.417  -0.413  -0.408  -0.404  -0.401
 -0.397  -0.386  -0.378  -0.370  -0.364  -0.356  -0.355  -0.352
 -0.344  -0.339  -0.335  -0.334  -0.331  -0.329  -0.326  -0.316
 -0.313  -0.310  -0.308  -0.302  -0.297  -0.293  -0.281  -0.276
 -0.274  -0.255  -0.251  -0.248  -0.242  -0.235  -0.234  -0.185
 -0.169  -0.169  -0.168  -0.165  -0.158  -0.148  -0.147  -0.145
 -0.141

          Ground-State Mulliken Net Atomic Charges

     Atom                 Charge (a.u.)
  ----------------------------------------
      1 O                    -0.214477
      2 C                     0.215165
      3 C                    -0.082465
      4 C                    -0.079108
      5 C                     0.227169
      6 O                    -0.195580
      7 C                    -0.046876
      8 C                    -0.047492
      9 O                    -0.180815
     10 C                     0.217999
     11 C                    -0.079664
     12 C                    -0.079942
     13 C                     0.209273
     14 O                    -0.214797
     15 O                    -0.179003
     16 O                    -0.168816
     17 O                    -0.208039
     18 C                    -0.126218
     19 C                     0.025985
     20 C                    -0.145644
     21 C                    -0.141987
     22 C                     0.026242
     23 O                    -0.184456
     24 H                     0.084561
     25 H                     0.085072
     26 H                     0.083976
     27 H                     0.078573
     28 H                     0.073229
     29 H                     0.078769
     30 H                     0.074001
     31 H                     0.086816
     32 O                    -0.178426
     33 C                    -0.129072
     34 C                     0.024420
     35 C                    -0.143387
     36 C                    -0.144008
     37 C                     0.024992
     38 O                    -0.188869
     39 H                     0.083485
     40 H                     0.084630
     41 H                     0.091219
     42 H                     0.090670
     43 H                     0.078716
     44 H                     0.073163
     45 H                     0.079021
     46 H                     0.073122
     47 H                     0.088096
     48 H                     0.087847
     49 H                     0.085289
     50 H                     0.090132
     51 H                     0.090496
     52 H                     0.094097
     53 H                     0.087685
     54 H                     0.093032
     55 H                     0.084601
     56 H                     0.087595
  ----------------------------------------
  Sum of atomic charges =    -0.000000

                    Cartesian Multipole Moments
 -----------------------------------------------------------------
    Charge (ESU x 10^10)
                -0.0000
    Dipole Moment (Debye)
         X       0.0303      Y      -1.1971      Z      -4.7345
       Tot       4.8836
    Quadrupole Moments (Debye-Ang)
        XX    -165.5333     XY      -0.3067     YY    -152.9201
        XZ       4.7362     YZ       2.9803     ZZ    -167.1336

 Total job time:  65.10s(wall), 3092.00s(cpu)
        *  Thank you very much for using Q-Chem.  Have a nice day.  *
