 Q-Chem 5.0, Q-Chem, Inc., Pleasanton, CA (2017)
 Q-Chem 5.0.1 for Intel X86 EM64T Linux

User input:
--------------------------------------------------------------
$molecule
0  1
O -5.5987790236 0.6789782743 2.0234717426
C -5.6694000038 1.176445001 0.8802623473
C -5.6158961168 0.4298609318 -0.5041589056
C -4.281497764 -0.3811800209 -0.7526099654
C -3.078257717 0.0586866787 0.1496349717
O -1.9138699705 -0.6616927868 -0.2781331122
C -0.6900331123 0.0175265049 0.2166219692
C 0.5306348922 -0.8683573997 -0.2070755419
O 1.6636272625 0.0538184126 -0.4592603943
C 2.9210702513 -0.5886497354 -0.1659953948
C 3.9888539843 0.560330663 -0.2100016512
C 5.3557561107 0.39601212 0.5672851793
C 5.8644809293 -1.0605970742 0.8690310329
O 5.5235816234 -2.1535846687 0.3759232316
O -5.8389930056 2.5771427113 0.6197992305
O 6.8874151504 -0.9258277881 1.8715892729
O 3.0127097185 -1.7980618879 0.1245598342
C 7.4633573925 -2.2537531118 2.1822201886
C 4.5032134108 0.9371583571 -1.678625102
C 4.793727936 2.4870654595 -1.6762977785
C 6.0593184152 2.5389573297 -0.7411214416
C 6.3513072377 1.000020083 -0.5230769834
O 5.8587843221 0.3526300499 -1.7619580632
H 3.4618452475 1.4387860007 0.2040192514
H 5.3638089686 0.9728474908 1.5087856644
H 3.8647301412 0.569899786 -2.5052744312
H 5.0334790852 2.8319502317 -2.6951911793
H 3.9470785826 3.0771626583 -1.2911622121
H 6.9126188222 3.0304823048 -1.2345185304
H 5.8592980309 3.0533928186 0.2126419772
H 7.4147167467 0.7467966468 -0.3464992194
O -3.0529101152 0.9793780695 0.9953749213
C -5.8577742971 3.3237912317 1.8980300942
C -6.6565627917 -0.7719219166 -0.4520334506
C -6.7784680804 -1.4377269642 -1.8813267724
C -5.468875033 -2.3095793285 -1.9306930544
C -4.7821902114 -1.884293334 -0.574639655
O -5.9270179436 -1.7788621928 0.355432896
H -5.8221950363 1.150808842 -1.313630807
H -3.9416866688 -0.2335845738 -1.7946322632
H -4.9183406698 3.1726534003 2.4681393451
H -7.6203852527 -0.5189562529 0.0304459078
H -7.684200094 -2.0614327602 -1.9426416773
H -6.8162101885 -0.6829240744 -2.6833112823
H -5.7031091318 -3.386173175 -1.91703558
H -4.8399492494 -2.094555156 -2.8093249148
H -4.0182604556 -2.584689706 -0.1848936021
H -6.710274856 3.0184733865 2.5390147591
H -5.9622560582 4.3909672333 1.6288572044
H 8.2399540264 -2.0785009885 2.9493627796
H 7.9244413156 -2.720563763 1.2876943526
H 6.696944447 -2.9487757934 2.5824548719
H 0.8013790966 -1.6148369771 0.5687621323
H 0.2704377694 -1.4210061528 -1.1379325464
H -0.7265377071 0.1584564583 1.3181103802
H -0.5935030167 1.0217719104 -0.2533232586
$end

$rem
JOBTYPE                   OPT
METHOD                    B3LYP
DFT_D                     d3_op
BASIS                     STO-3G
GEOM_OPT_MAX_CYCLES       100
GEOM_OPT_TOL_GRADIENT     300
GEOM_OPT_TOL_DISPLACEMENT 1200
GEOM_OPT_TOL_ENERGY       100
SYMMETRY                  False
THRESH                    12
SCF_CONVERGENCE           8
MAX_SUB_FILE_NUM          128
MEM_STATIC                400
MEM_TOTAL                 4000
$end
--------------------------------------------------------------

   16   -1510.2644835239      4.91E-09 Convergence criterion met
 Total energy in the final basis set = -1510.26448352
   13   -1510.2678291872      6.05E-09 Convergence criterion met
 Total energy in the final basis set = -1510.26782919
   14   -1510.2702448098      1.48E-09 Convergence criterion met
 Total energy in the final basis set = -1510.27024481
   13   -1510.2719671955      6.13E-09 Convergence criterion met
 Total energy in the final basis set = -1510.27196720
   13   -1510.2732925072      5.49E-09 Convergence criterion met
 Total energy in the final basis set = -1510.27329251
   12   -1510.2745447715      9.49E-09 Convergence criterion met
 Total energy in the final basis set = -1510.27454477
   13   -1510.2757828266      3.12E-09 Convergence criterion met
 Total energy in the final basis set = -1510.27578283
   13   -1510.2770027423      3.90E-09 Convergence criterion met
   12   -1510.3008817267      2.50E-09 Convergence criterion met
 Total energy in the final basis set = -1510.30088173
   11   -1510.3009057574      9.82E-09 Convergence criterion met
 Total energy in the final basis set = -1510.30090576
   11   -1510.3009112454      8.65E-09 Convergence criterion met
 Total energy in the final basis set = -1510.30091125
   10   -1510.3009126922      5.37E-09 Convergence criterion met
 Total energy in the final basis set = -1510.30091269
    9   -1510.3009122082      5.10E-09 Convergence criterion met
 Total energy in the final basis set = -1510.30091221
    9   -1510.3009152231      7.74E-09 Convergence criterion met
 Total energy in the final basis set = -1510.30091522

             Standard Nuclear Orientation (Angstroms)
    I     Atom           X                Y                Z
 ----------------------------------------------------------------
    1      O      -3.0270695185     0.3322414477     2.8677627002
    2      C      -3.6043973751     0.2702061197     1.7622207493
    3      C      -3.5264949906    -0.8877551569     0.6998849768
    4      C      -2.6729011956    -0.5208633008    -0.5828313501
    5      C      -2.1153566478     0.9375542821    -0.5790115419
    6      O      -1.7864024273     1.2825329897    -1.9260796093
    7      C      -1.1037337628     2.5959488762    -1.9860868497
    8      C       0.1890101773     2.4548379530    -2.8764696471
    9      O       1.4636299067     2.4209082598    -2.1215107073
   10      C       1.6439982093     1.1742395270    -1.4384704302
   11      C       3.1115775184     1.1411380001    -0.9008417624
   12      C       3.3121798186     0.2575341653     0.3953583226
   13      C       1.9855708294    -0.2786615806     1.0523598623
   14      O       1.6485693229    -1.4746956049     1.1854744591
   15      O      -4.5595537466     1.2304036667     1.2885766400
   16      O       1.2659602993     0.8487778511     1.5427562767
   17      O       0.7794181230     0.2738146723    -1.3764396908
   18      C       0.0542670123     0.4219404978     2.2891552181
   19      C       4.0248358460     0.3434340411    -1.9352620244
   20      C       5.5410967291     0.5686781649    -1.5483276823
   21      C       5.6882911338    -0.3928116565    -0.3110243839
   22      C       4.2093164044    -0.9217926805    -0.1666434213
   23      O       3.7653603802    -1.0668853948    -1.5743902721
   24      H       3.4590355506     2.1795990715    -0.7614678484
   25      H       3.8521783585     0.8401693107     1.1637482208
   26      H       3.7789904376     0.5271486614    -2.9994880152
   27      H       6.2000019717     0.2679972903    -2.3782702904
   28      H       5.7477251401     1.6209816775    -1.2959388561
   29      H       6.3763858163    -1.2251213345    -0.5288723509
   30      H       6.0374793175     0.1275203147     0.5949647282
   31      H       4.0820322498    -1.8781920280     0.3768403074
   32      O      -1.9507121707     1.6964026459     0.4029282279
   33      C      -4.6084738048     2.3835712393     2.2140683538
   34      C      -2.7149190045    -2.1262257717     1.2555213145
   35      C      -2.9575582141    -3.3632350370     0.3053582062
   36      C      -2.0557173227    -2.9876422444    -0.9315512212
   37      C      -1.4887631066    -1.5872112488    -0.4843199726
   38      O      -1.3053225487    -1.7632414623     0.9742169599
   39      H      -4.5573570620    -1.1633008598     0.4138615695
   40      H      -3.2503354454    -0.6650144617    -1.5129893964
   41      H      -3.6367366080     2.9183143581     2.2360503897
   42      H      -2.8523879832    -2.3127058980     2.3381467924
   43      H      -2.6135112602    -4.2922641297     0.7867519467
   44      H      -4.0204436019    -3.4757289574     0.0373662762
   45      H      -1.2320224301    -3.7075015767    -1.0617874801
   46      H      -2.6254966718    -2.9267998483    -1.8725652034
   47      H      -0.5405701236    -1.2488557422    -0.9531038138
   48      H      -4.8631992228     2.0704017839     3.2472387205
   49      H      -5.3939277948     3.0576821449     1.8256645888
   50      H      -0.6214487053     1.2960078902     2.3020147825
   51      H       0.3251812399     0.1503805797     3.3294708932
   52      H      -0.4609784932    -0.4432531132     1.7979556304
   53      H       0.0773008096     1.5434677857    -3.5044769116
   54      H       0.2834674023     3.3405624254    -3.5362098580
   55      H      -0.8617605883     2.9351864575    -0.9546847413
   56      H      -1.7955213233     3.3305874608    -2.4513077262
 ----------------------------------------------------------------

    9   -1510.3009151387      8.33E-09 Convergence criterion met
 Total energy in the final basis set = -1510.30091514
 Final energy is   -1510.30091513867
 **  OPTIMIZATION CONVERGED  **

                    Orbital Energies (a.u.)
 --------------------------------------------------------------

 Alpha MOs
 -- Occupied --
-18.939 -18.937 -18.922 -18.904 -18.898 -18.883 -18.882 -18.882
-18.864 -18.851 -10.105 -10.104 -10.091 -10.080 -10.078 -10.073
-10.059 -10.058 -10.055 -10.052 -10.051 -10.037 -10.036 -10.033
-10.026 -10.018 -10.018 -10.016 -10.016 -10.009  -1.021  -1.013
 -1.000  -0.985  -0.972  -0.966  -0.943  -0.940  -0.926  -0.911
 -0.762  -0.758  -0.727  -0.719  -0.711  -0.701  -0.695  -0.655
 -0.632  -0.618  -0.593  -0.577  -0.544  -0.539  -0.535  -0.531
 -0.513  -0.504  -0.482  -0.463  -0.459  -0.449  -0.448  -0.444
 -0.437  -0.429  -0.426  -0.411  -0.404  -0.401  -0.398  -0.392
 -0.379  -0.375  -0.373  -0.361  -0.357  -0.350  -0.350  -0.345
 -0.341  -0.336  -0.329  -0.328  -0.326  -0.321  -0.318  -0.307
 -0.306  -0.301  -0.297  -0.295  -0.294  -0.278  -0.272  -0.270
 -0.265  -0.257  -0.250  -0.245  -0.240  -0.231  -0.217  -0.191
 -0.173  -0.166  -0.162  -0.156  -0.154  -0.144  -0.141  -0.140
 -0.130

          Ground-State Mulliken Net Atomic Charges

     Atom                 Charge (a.u.)
  ----------------------------------------
      1 O                    -0.214502
      2 C                     0.214920
      3 C                    -0.081495
      4 C                    -0.078977
      5 C                     0.220226
      6 O                    -0.169634
      7 C                    -0.055019
      8 C                    -0.049753
      9 O                    -0.171855
     10 C                     0.217939
     11 C                    -0.077747
     12 C                    -0.080723
     13 C                     0.209356
     14 O                    -0.213596
     15 O                    -0.175912
     16 O                    -0.182708
     17 O                    -0.213584
     18 C                    -0.154661
     19 C                     0.025098
     20 C                    -0.144043
     21 C                    -0.143610
     22 C                     0.024001
     23 O                    -0.189494
     24 H                     0.087315
     25 H                     0.082516
     26 H                     0.079888
     27 H                     0.077193
     28 H                     0.073496
     29 H                     0.077336
     30 H                     0.073448
     31 H                     0.091084
     32 O                    -0.212894
     33 C                    -0.128720
     34 C                     0.027177
     35 C                    -0.143541
     36 C                    -0.142523
     37 C                     0.021197
     38 O                    -0.178892
     39 H                     0.084800
     40 H                     0.087465
     41 H                     0.091751
     42 H                     0.090224
     43 H                     0.079848
     44 H                     0.072740
     45 H                     0.082622
     46 H                     0.073377
     47 H                     0.112908
     48 H                     0.087441
     49 H                     0.086419
     50 H                     0.086812
     51 H                     0.070119
     52 H                     0.118800
     53 H                     0.095005
     54 H                     0.090707
     55 H                     0.105575
     56 H                     0.085080
  ----------------------------------------
  Sum of atomic charges =    -0.000000

                    Cartesian Multipole Moments
 -----------------------------------------------------------------
    Charge (ESU x 10^10)
                -0.0000
    Dipole Moment (Debye)
         X      -0.6761      Y       1.8862      Z      -2.4123
       Tot       3.1359
    Quadrupole Moments (Debye-Ang)
        XX    -141.7061     XY       5.7873     YY    -154.2329
        XZ       0.9338     YZ      -3.8517     ZZ    -158.4252

 Total job time:  272.71s(wall), 12352.90s(cpu)
        *  Thank you very much for using Q-Chem.  Have a nice day.  *
