 Q-Chem 5.0, Q-Chem, Inc., Pleasanton, CA (2017)
 Q-Chem 5.0.1 for Intel X86 EM64T Linux

User input:
--------------------------------------------------------------
$molecule
0  1
O -3.94934 -3.66094 2.70899
C -3.26408 -4.56952 2.26188
C -3.36658 -6.02376 2.66595
C -3.11933 -6.36102 4.14547
C -2.97254 -5.188 5.08917
O -2.63166 -5.634 6.33428
C -2.07066 -4.6117 7.1646
C -1.79714 -5.16011 8.56122
O -0.64434 -4.51389 9.12365
C -0.64435 -4.39351 10.47445
C 0.45665 -3.49478 10.98507
C 0.19987 -2.87812 12.36785
C -0.91438 -3.51094 13.17698
O -1.41314 -4.60605 12.96124
O -2.34766 -4.28218 1.30027
O -1.26882 -2.84622 14.30815
O -1.78615 -4.16896 10.84951
C -2.21935 -3.28859 15.20414
C 1.76551 -4.25937 11.27676
C 2.94519 -3.29018 11.21318
C 2.69855 -2.4627 12.4599
C 1.51946 -3.23167 13.069
O 1.71823 -4.56034 12.65045
H 0.66939 -2.73001 10.20228
H -0.02598 -1.79204 12.28658
H 1.93504 -5.11961 10.59264
H 3.86477 -3.89963 11.36737
H 3.04982 -2.70886 10.27194
H 3.60152 -2.52518 13.10668
H 2.42798 -1.39977 12.27846
H 1.46982 -3.06972 14.16866
O -2.8906 -4.00555 4.79738
C -2.11909 -3.01846 0.7974
C -4.803 -6.55071 2.49636
C -4.79302 -8.07421 2.37392
C -4.46923 -8.46961 3.79949
C -4.43478 -7.09271 4.46984
O -5.39281 -6.34798 3.75724
H -2.67937 -6.60075 2.00557
H -2.22222 -7.00745 4.27689
H -1.78784 -2.33743 1.61037
H -5.33205 -6.0986 1.6285
H -5.83375 -8.39783 2.14542
H -4.10428 -8.47633 1.60006
H -5.31895 -9.06659 4.19962
H -3.51723 -9.02714 3.93493
H -4.61169 -7.19448 5.56333
H -3.04369 -2.62061 0.32704
H -1.32146 -3.07165 0.02834
H -2.30996 -2.55422 16.03056
H -1.91797 -4.26991 15.62904
H -3.20484 -3.38385 14.69997
H -2.73692 -5.24743 9.15102
H -1.45951 -6.2084 8.40557
H -2.71552 -3.70842 7.25674
H -1.09613 -4.32093 6.70814
$end

$opt
CONSTRAINT
tors           1           2           3           4     -59.954
tors           3           4           5           6    -174.203
tors           4           5           6           7    +161.508
tors           5           6           7           8    +176.462
tors           6           7           8           9    +147.647
tors           7           8           9          10    +149.809
tors           8           9          10          11    -169.586
tors           9          10          11          12    +156.918
tors          11          12          13          14     +16.461
ENDCONSTRAINT
$end

$rem
JOBTYPE                   OPT
METHOD                    B3LYP
DFT_D                     d3_op
BASIS                     STO-3G
GEOM_OPT_MAX_CYCLES       100
GEOM_OPT_TOL_GRADIENT     300
GEOM_OPT_TOL_DISPLACEMENT 1200
GEOM_OPT_TOL_ENERGY       100
SYMMETRY                  False
THRESH                    12
SCF_CONVERGENCE           8
MAX_SUB_FILE_NUM          128
MEM_STATIC                400
MEM_TOTAL                 4000
$end
--------------------------------------------------------------

   16   -1510.0731733670      4.71E-09 Convergence criterion met
 Total energy in the final basis set = -1510.07317337
   14   -1510.1544654260      9.35E-09 Convergence criterion met
 Total energy in the final basis set = -1510.15446543
   14   -1510.2000488056      8.26E-09 Convergence criterion met
 Total energy in the final basis set = -1510.20004881
   14   -1510.2284689053      7.31E-09 Convergence criterion met
 Total energy in the final basis set = -1510.22846891
   13   -1510.2432278694      9.04E-09 Convergence criterion met
 Total energy in the final basis set = -1510.24322787
   13   -1510.2517740843      8.13E-09 Convergence criterion met
 Total energy in the final basis set = -1510.25177408
   12   -1510.2570439981      8.90E-09 Convergence criterion met
 Total energy in the final basis set = -1510.25704400
   13   -1510.2602437717      3.74E-09 Convergence criterion met
   11   -1510.2645799401      5.96E-09 Convergence criterion met
 Total energy in the final basis set = -1510.26457994
   10   -1510.2646028952      8.69E-09 Convergence criterion met
 Total energy in the final basis set = -1510.26460290
   11   -1510.2646162105      1.89E-09 Convergence criterion met
 Total energy in the final basis set = -1510.26461621
   10   -1510.2646238821      8.77E-09 Convergence criterion met
 Total energy in the final basis set = -1510.26462388
    9   -1510.2646285180      7.22E-09 Convergence criterion met
 Total energy in the final basis set = -1510.26462852
    9   -1510.2646311958      9.43E-09 Convergence criterion met
 Total energy in the final basis set = -1510.26463120

             Standard Nuclear Orientation (Angstroms)
    I     Atom           X                Y                Z
 ----------------------------------------------------------------
    1      O      -5.5987790236     0.6789782743     2.0234717426
    2      C      -5.6694000038     1.1764450010     0.8802623473
    3      C      -5.6158961168     0.4298609318    -0.5041589056
    4      C      -4.2814977640    -0.3811800209    -0.7526099654
    5      C      -3.0782577170     0.0586866787     0.1496349717
    6      O      -1.9138699705    -0.6616927868    -0.2781331122
    7      C      -0.6900331123     0.0175265049     0.2166219692
    8      C       0.5306348922    -0.8683573997    -0.2070755419
    9      O       1.6636272625     0.0538184126    -0.4592603943
   10      C       2.9210702513    -0.5886497354    -0.1659953948
   11      C       3.9888539843     0.5603306630    -0.2100016512
   12      C       5.3557561107     0.3960121200     0.5672851793
   13      C       5.8644809293    -1.0605970742     0.8690310329
   14      O       5.5235816234    -2.1535846687     0.3759232316
   15      O      -5.8389930056     2.5771427113     0.6197992305
   16      O       6.8874151504    -0.9258277881     1.8715892729
   17      O       3.0127097185    -1.7980618879     0.1245598342
   18      C       7.4633573925    -2.2537531118     2.1822201886
   19      C       4.5032134108     0.9371583571    -1.6786251020
   20      C       4.7937279360     2.4870654595    -1.6762977785
   21      C       6.0593184152     2.5389573297    -0.7411214416
   22      C       6.3513072377     1.0000200830    -0.5230769834
   23      O       5.8587843221     0.3526300499    -1.7619580632
   24      H       3.4618452475     1.4387860007     0.2040192514
   25      H       5.3638089686     0.9728474908     1.5087856644
   26      H       3.8647301412     0.5698997860    -2.5052744312
   27      H       5.0334790852     2.8319502317    -2.6951911793
   28      H       3.9470785826     3.0771626583    -1.2911622121
   29      H       6.9126188222     3.0304823048    -1.2345185304
   30      H       5.8592980309     3.0533928186     0.2126419772
   31      H       7.4147167467     0.7467966468    -0.3464992194
   32      O      -3.0529101152     0.9793780695     0.9953749213
   33      C      -5.8577742971     3.3237912317     1.8980300942
   34      C      -6.6565627917    -0.7719219166    -0.4520334506
   35      C      -6.7784680804    -1.4377269642    -1.8813267724
   36      C      -5.4688750330    -2.3095793285    -1.9306930544
   37      C      -4.7821902114    -1.8842933340    -0.5746396550
   38      O      -5.9270179436    -1.7788621928     0.3554328960
   39      H      -5.8221950363     1.1508088420    -1.3136308070
   40      H      -3.9416866688    -0.2335845738    -1.7946322632
   41      H      -4.9183406698     3.1726534003     2.4681393451
   42      H      -7.6203852527    -0.5189562529     0.0304459078
   43      H      -7.6842000940    -2.0614327602    -1.9426416773
   44      H      -6.8162101885    -0.6829240744    -2.6833112823
   45      H      -5.7031091318    -3.3861731750    -1.9170355800
   46      H      -4.8399492494    -2.0945551560    -2.8093249148
   47      H      -4.0182604556    -2.5846897060    -0.1848936021
   48      H      -6.7102748560     3.0184733865     2.5390147591
   49      H      -5.9622560582     4.3909672333     1.6288572044
   50      H       8.2399540264    -2.0785009885     2.9493627796
   51      H       7.9244413156    -2.7205637630     1.2876943526
   52      H       6.6969444470    -2.9487757934     2.5824548719
   53      H       0.8013790966    -1.6148369771     0.5687621323
   54      H       0.2704377694    -1.4210061528    -1.1379325464
   55      H      -0.7265377071     0.1584564583     1.3181103802
   56      H      -0.5935030167     1.0217719104    -0.2533232586
 ----------------------------------------------------------------

    9   -1510.2646314902      6.34E-09 Convergence criterion met
 Total energy in the final basis set = -1510.26463149
 Final energy is   -1510.26463149019
 **  OPTIMIZATION CONVERGED  **

                    Orbital Energies (a.u.)
 --------------------------------------------------------------

 Alpha MOs
 -- Occupied --
-18.935 -18.928 -18.925 -18.923 -18.891 -18.888 -18.884 -18.883
-18.875 -18.861 -10.104 -10.101 -10.094 -10.089 -10.077 -10.073
-10.063 -10.062 -10.061 -10.060 -10.059 -10.055 -10.040 -10.039
-10.039 -10.034 -10.023 -10.022 -10.021 -10.020  -1.017  -1.012
 -1.005  -0.999  -0.974  -0.970  -0.943  -0.937  -0.929  -0.923
 -0.765  -0.763  -0.728  -0.723  -0.718  -0.707  -0.695  -0.659
 -0.656  -0.616  -0.596  -0.578  -0.546  -0.545  -0.540  -0.538
 -0.520  -0.512  -0.474  -0.472  -0.463  -0.458  -0.450  -0.449
 -0.437  -0.434  -0.428  -0.411  -0.409  -0.407  -0.403  -0.401
 -0.393  -0.387  -0.369  -0.364  -0.361  -0.359  -0.352  -0.351
 -0.343  -0.337  -0.333  -0.332  -0.330  -0.324  -0.318  -0.315
 -0.314  -0.306  -0.303  -0.300  -0.298  -0.290  -0.281  -0.273
 -0.269  -0.257  -0.255  -0.247  -0.245  -0.237  -0.233  -0.182
 -0.178  -0.175  -0.169  -0.165  -0.156  -0.148  -0.145  -0.138
 -0.134

          Ground-State Mulliken Net Atomic Charges

     Atom                 Charge (a.u.)
  ----------------------------------------
      1 O                    -0.211047
      2 C                     0.213094
      3 C                    -0.080257
      4 C                    -0.079048
      5 C                     0.211489
      6 O                    -0.176067
      7 C                    -0.047500
      8 C                    -0.050744
      9 O                    -0.180487
     10 C                     0.207899
     11 C                    -0.080682
     12 C                    -0.077870
     13 C                     0.208936
     14 O                    -0.196029
     15 O                    -0.172956
     16 O                    -0.176300
     17 O                    -0.196568
     18 C                    -0.129355
     19 C                     0.027045
     20 C                    -0.141799
     21 C                    -0.145286
     22 C                     0.025334
     23 O                    -0.188481
     24 H                     0.085936
     25 H                     0.086815
     26 H                     0.085218
     27 H                     0.078269
     28 H                     0.074834
     29 H                     0.078747
     30 H                     0.074342
     31 H                     0.084749
     32 O                    -0.206097
     33 C                    -0.128676
     34 C                     0.025942
     35 C                    -0.145336
     36 C                    -0.142294
     37 C                     0.026409
     38 O                    -0.184730
     39 H                     0.085201
     40 H                     0.085265
     41 H                     0.092430
     42 H                     0.083086
     43 H                     0.078198
     44 H                     0.073473
     45 H                     0.078514
     46 H                     0.073585
     47 H                     0.086957
     48 H                     0.086104
     49 H                     0.086836
     50 H                     0.088245
     51 H                     0.088068
     52 H                     0.089162
     53 H                     0.097024
     54 H                     0.088664
     55 H                     0.092546
     56 H                     0.089193
  ----------------------------------------
  Sum of atomic charges =     0.000000

                    Cartesian Multipole Moments
 -----------------------------------------------------------------
    Charge (ESU x 10^10)
                 0.0000
    Dipole Moment (Debye)
         X       0.4646      Y       2.5887      Z      -1.2936
       Tot       2.9310
    Quadrupole Moments (Debye-Ang)
        XX    -151.1027     XY       5.1259     YY    -158.6705
        XZ      20.1778     YZ       0.7849     ZZ    -159.3952

 Total job time:  63.75s(wall), 2871.40s(cpu)
        *  Thank you very much for using Q-Chem.  Have a nice day.  *
