 Q-Chem 5.0, Q-Chem, Inc., Pleasanton, CA (2017)
 Q-Chem 5.0.1 for Intel X86 EM64T Linux

User input:
--------------------------------------------------------------
$molecule
0  1
O -4.5244642866 1.8488602484 2.2006791341
C -4.1042003769 1.408606333 1.1099375992
C -4.9880467769 0.9161647887 -0.0924942877
C -4.4643575462 -0.3424546154 -0.9053905142
C -3.19391872 -1.0178783873 -0.2686402027
O -2.1743045307 -1.3025731038 -1.2709842278
C -1.0494803512 -0.3487382061 -1.1080390911
C 0.2759588532 -1.1368900804 -0.8206068481
O 1.3579022882 -0.1246013878 -0.7408552703
C 2.5268947848 -0.6835685148 -0.1178725082
C 3.5505185264 0.5017196521 -0.0071996424
C 4.9376334763 0.254714687 0.7042620031
C 5.5037889371 -1.2132008122 0.6536576817
O 5.0811195361 -2.2159638069 0.0450967029
O -2.7195868811 1.444544655 0.7263032155
O 6.6843670382 -1.2212541765 1.4742257074
O 2.5778393072 -1.8466530767 0.3304925197
C 7.2988556698 -2.5677593583 1.4551648162
C 4.0112574509 1.1537174654 -1.3905339349
C 4.2235226437 2.6920800768 -1.1177671104
C 5.4975732173 2.644131846 -0.1937433788
C 5.8766346191 1.110058908 -0.2590906664
O 5.3953467947 0.6699490037 -1.5920630702
H 3.0086140333 1.2766141007 0.5670346965
H 4.9478752876 0.6153628789 1.7480182791
H 3.3720542312 0.9014574725 -2.2585972955
H 4.431167006 3.2227069345 -2.0610495615
H 3.3533703191 3.1594892936 -0.6297052091
H 6.3159636299 3.262994602 -0.594001834
H 5.2846118732 2.9678873535 0.8378907601
H 6.9549223047 0.8875568804 -0.1404623637
O -3.0736031974 -1.3403824865 0.9313240532
C -1.8970034301 1.9333544364 1.8578875206
C -6.4075178471 0.40394657 0.3999457209
C -7.4043731281 0.474603723 -0.8207256968
C -6.8887992583 -0.7261561935 -1.6980007747
C -5.7319797559 -1.2994618071 -0.7873006195
O -6.2066820056 -1.0511580025 0.5920465121
H -5.1010823246 1.7785360989 -0.7771237949
H -4.2354086997 -0.0863595467 -1.9539897097
H -1.8718647941 1.1921041362 2.6827601735
H -6.7505625419 0.8801508788 1.3392670729
H -8.4391446665 0.3096026624 -0.4805619968
H -7.3556290217 1.441232441 -1.3470540705
H -7.6727356344 -1.4854131133 -1.8466144571
H -6.5170853343 -0.4037272801 -2.6837944567
H -5.5084999896 -2.374305221 -0.9329096698
H -2.2817255669 2.8940772829 2.2548538393
H -0.8762207472 2.0741999165 1.457276833
H 8.191111193 -2.5055766679 2.1050965232
H 7.6059833706 -2.8637128546 0.4310517138
H 6.606048621 -3.3395627185 1.8488173645
H 0.1957776998 -1.7071270135 0.1300091264
H 0.4748474988 -1.8623959964 -1.6395217384
H -1.2558760569 0.3838996671 -0.3003691688
H -0.9346098014 0.2117032597 -2.0628058263
$end

$rem
JOBTYPE                   OPT
METHOD                    B3LYP
DFT_D                     d3_op
BASIS                     STO-3G
GEOM_OPT_MAX_CYCLES       100
GEOM_OPT_TOL_GRADIENT     300
GEOM_OPT_TOL_DISPLACEMENT 1200
GEOM_OPT_TOL_ENERGY       100
SYMMETRY                  False
THRESH                    12
SCF_CONVERGENCE           8
MAX_SUB_FILE_NUM          128
MEM_STATIC                400
MEM_TOTAL                 4000
$end
--------------------------------------------------------------

   16   -1510.2526432716      5.78E-09 Convergence criterion met
 Total energy in the final basis set = -1510.25264327
   13   -1510.2549606179      8.71E-09 Convergence criterion met
 Total energy in the final basis set = -1510.25496062
   13   -1510.2575432111      7.86E-09 Convergence criterion met
 Total energy in the final basis set = -1510.25754321
   14   -1510.2603840783      3.67E-09 Convergence criterion met
 Total energy in the final basis set = -1510.26038408
   14   -1510.2547928741      8.97E-09 Convergence criterion met
 Total energy in the final basis set = -1510.25479287
   14   -1510.2627052300      2.05E-09 Convergence criterion met
 Total energy in the final basis set = -1510.26270523
   13   -1510.2694844733      6.90E-09 Convergence criterion met
 Total energy in the final basis set = -1510.26948447
   14   -1510.2735092057      4.75E-09 Convergence criterion met
   14   -1510.2873468041      6.48E-09 Convergence criterion met
 Total energy in the final basis set = -1510.28734680
   13   -1510.2873923344      4.95E-09 Convergence criterion met
 Total energy in the final basis set = -1510.28739233
   12   -1510.2875843831      4.23E-09 Convergence criterion met
 Total energy in the final basis set = -1510.28758438
   12   -1510.2876698142      3.58E-09 Convergence criterion met
 Total energy in the final basis set = -1510.28766981
   12   -1510.2876922109      9.50E-09 Convergence criterion met
 Total energy in the final basis set = -1510.28769221
   12   -1510.2877165049      4.97E-09 Convergence criterion met
 Total energy in the final basis set = -1510.28771650

             Standard Nuclear Orientation (Angstroms)
    I     Atom           X                Y                Z
 ----------------------------------------------------------------
    1      O      -5.4839416478     2.5226036267     0.6299843691
    2      C      -4.8607628111     1.8278017624    -0.1986311219
    3      C      -5.1742003507     0.3568837854    -0.6493106453
    4      C      -3.9459472872    -0.6311162799    -0.4529134943
    5      C      -2.6806238641     0.0789715104     0.1376926093
    6      O      -1.5983867636    -0.1078475419    -0.7856291017
    7      C      -0.3842331422     0.6025124423    -0.3165479262
    8      C       0.3099390120    -0.1367701316     0.8896899352
    9      O       1.6066485147     0.5097970211     1.2088102089
   10      C       2.6560386356    -0.0613925754     0.4216622801
   11      C       3.9784057608     0.7178184831     0.7173498919
   12      C       5.2426801020     0.0681050564     0.0207993576
   13      C       4.9538625209    -1.2825791691    -0.7343959819
   14      O       4.9359153972    -1.4692807468    -1.9691036127
   15      O      -3.7053944517     2.2724156143    -0.9241087646
   16      O       4.8540713356    -2.3242560089     0.2492197125
   17      O       2.4984485637    -1.0143130631    -0.3748466238
   18      C       4.5123161697    -3.6022812699    -0.4127601084
   19      C       3.9491243538     2.1436331215     0.0085534125
   20      C       5.1440634614     3.0110739549     0.5699284199
   21      C       6.3693346631     2.3610246509    -0.1742374163
   22      C       5.6537654430     1.2160611119    -0.9919633618
   23      O       4.3591773881     1.8271118905    -1.3768490767
   24      H       4.1021795346     0.8105572119     1.8111386365
   25      H       6.0358192402    -0.1184731214     0.7664084262
   26      H       2.9577774273     2.6375091152     0.0232313903
   27      H       5.0142890136     4.0688457913     0.2909771768
   28      H       5.2254294868     2.9426526213     1.6665926600
   29      H       6.8529920681     3.0782241213    -0.8562953152
   30      H       7.1276035035     1.9632028143     0.5189281519
   31      H       6.1892149242     0.8548529981    -1.8911844695
   32      O      -2.5808694289     0.6925636666     1.2228631202
   33      C      -3.2803902172     3.6032999327    -0.4358242378
   34      C      -6.2590597291    -0.3095168524     0.2922002506
   35      C      -6.8026961590    -1.6128724292    -0.4130079103
   36      C      -5.5863552938    -2.5926055511    -0.2187723468
   37      C      -4.5750420351    -1.6718222691     0.5727574089
   38      O      -5.4521601775    -0.8339783584     1.4194443003
   39      H      -5.4963717576     0.3734139600    -1.7068210423
   40      H      -3.6578856446    -1.1128730062    -1.4032527454
   41      H      -2.9407847820     3.5496109720     0.6192354021
   42      H      -7.0261818667     0.3976039970     0.6636703441
   43      H      -7.7045548497    -1.9818952718     0.1006278596
   44      H      -7.0452910533    -1.4405858841    -1.4738107170
   45      H      -5.8654909013    -3.4673745008     0.3897934987
   46      H      -5.1658994029    -2.9456635678    -1.1739300196
   47      H      -3.8342090440    -2.2096283610     1.1956772117
   48      H      -4.0984802394     4.3483627463    -0.5077461231
   49      H      -2.4376284757     3.9117108589    -1.0814918318
   50      H       4.4863851030    -4.3661632717     0.3862085392
   51      H       5.2677015088    -3.8864034857    -1.1740041188
   52      H       3.5196774677    -3.5452924430    -0.9049133702
   53      H      -0.3206822823    -0.0458667662     1.7962224082
   54      H       0.4627083725    -1.2056162908     0.6300333420
   55      H      -0.6278185442     1.6451295418    -0.0204803573
   56      H       0.3030365874     0.6163488423    -1.1865564795
 ----------------------------------------------------------------

   11   -1510.2877170115      6.43E-09 Convergence criterion met
 Total energy in the final basis set = -1510.28771701
 Final energy is   -1510.28771701153
 **  OPTIMIZATION CONVERGED  **

                    Orbital Energies (a.u.)
 --------------------------------------------------------------

 Alpha MOs
 -- Occupied --
-18.943 -18.937 -18.935 -18.919 -18.888 -18.888 -18.888 -18.880
-18.873 -18.860 -10.108 -10.101 -10.101 -10.090 -10.074 -10.072
-10.065 -10.063 -10.062 -10.058 -10.057 -10.054 -10.042 -10.039
-10.038 -10.033 -10.022 -10.021 -10.020 -10.020  -1.022  -1.016
 -1.008  -0.997  -0.971  -0.971  -0.946  -0.939  -0.937  -0.924
 -0.765  -0.763  -0.729  -0.724  -0.714  -0.706  -0.696  -0.663
 -0.654  -0.623  -0.597  -0.583  -0.548  -0.546  -0.538  -0.538
 -0.511  -0.511  -0.487  -0.474  -0.463  -0.455  -0.454  -0.452
 -0.439  -0.431  -0.430  -0.414  -0.413  -0.408  -0.403  -0.396
 -0.394  -0.384  -0.375  -0.365  -0.363  -0.356  -0.355  -0.351
 -0.344  -0.342  -0.334  -0.333  -0.331  -0.329  -0.325  -0.314
 -0.311  -0.307  -0.306  -0.303  -0.295  -0.288  -0.276  -0.275
 -0.272  -0.266  -0.255  -0.249  -0.244  -0.235  -0.235  -0.195
 -0.179  -0.171  -0.164  -0.163  -0.159  -0.151  -0.146  -0.145
 -0.141

          Ground-State Mulliken Net Atomic Charges

     Atom                 Charge (a.u.)
  ----------------------------------------
      1 O                    -0.205779
      2 C                     0.213958
      3 C                    -0.078334
      4 C                    -0.079217
      5 C                     0.211162
      6 O                    -0.167892
      7 C                    -0.050552
      8 C                    -0.055806
      9 O                    -0.170728
     10 C                     0.214255
     11 C                    -0.077862
     12 C                    -0.081535
     13 C                     0.215850
     14 O                    -0.216453
     15 O                    -0.173592
     16 O                    -0.176947
     17 O                    -0.206835
     18 C                    -0.128478
     19 C                     0.025084
     20 C                    -0.143791
     21 C                    -0.143833
     22 C                     0.024784
     23 O                    -0.190033
     24 H                     0.088321
     25 H                     0.083961
     26 H                     0.083216
     27 H                     0.078287
     28 H                     0.074194
     29 H                     0.078130
     30 H                     0.073561
     31 H                     0.089980
     32 O                    -0.219062
     33 C                    -0.129635
     34 C                     0.024499
     35 C                    -0.144047
     36 C                    -0.143772
     37 C                     0.025592
     38 O                    -0.186463
     39 H                     0.085601
     40 H                     0.087595
     41 H                     0.092320
     42 H                     0.090710
     43 H                     0.078624
     44 H                     0.073381
     45 H                     0.078305
     46 H                     0.074102
     47 H                     0.082462
     48 H                     0.091109
     49 H                     0.089261
     50 H                     0.085726
     51 H                     0.086583
     52 H                     0.091493
     53 H                     0.099344
     54 H                     0.096143
     55 H                     0.089516
     56 H                     0.093535
  ----------------------------------------
  Sum of atomic charges =    -0.000000

                    Cartesian Multipole Moments
 -----------------------------------------------------------------
    Charge (ESU x 10^10)
                -0.0000
    Dipole Moment (Debye)
         X       0.5823      Y      -0.1171      Z       0.0075
       Tot       0.5940
    Quadrupole Moments (Debye-Ang)
        XX    -152.2686     XY      10.9529     YY    -149.7061
        XZ      22.0726     YZ      -2.3250     ZZ    -170.1166

 Total job time:  119.69s(wall), 5693.53s(cpu)
        *  Thank you very much for using Q-Chem.  Have a nice day.  *
