 Q-Chem 5.0, Q-Chem, Inc., Pleasanton, CA (2017)
 Q-Chem 5.0.1 for Intel X86 EM64T Linux

User input:
--------------------------------------------------------------
$molecule
0  1
O -3.94934 -3.66094 2.70899
C -3.26408 -4.56952 2.26188
C -3.36658 -6.02376 2.66595
C -2.05474 -6.81931 2.76614
C -0.77351 -6.0278 2.62455
O 0.0774 -6.67103 1.77153
C 0.19455 -6.02489 0.49951
C 1.64456 -5.62738 0.24344
O 1.76787 -5.03999 -1.06141
C 2.90919 -4.34114 -1.2808
C 2.94005 -3.67518 -2.63587
C 4.18104 -2.81145 -2.90454
C 5.34773 -3.01904 -1.95985
O 5.4134 -3.87828 -1.09269
O -2.57823 -4.32537 1.11652
O 6.4274 -2.22067 -2.16997
O 3.25915 -3.65881 -0.32137
C 7.59474 -2.28366 -1.43834
C 3.02 -4.65757 -3.81918
C 2.4715 -3.98461 -5.07627
C 3.5645 -2.97066 -5.35631
C 4.58617 -3.36159 -4.28143
O 4.3938 -4.74691 -4.11365
H 2.01008 -3.06569 -2.71365
H 3.93519 -1.7267 -2.88457
H 2.49429 -5.61923 -3.63232
H 2.48459 -4.75233 -5.88311
H 1.44627 -3.56473 -4.98986
H 3.96591 -3.16098 -6.37634
H 3.26182 -1.90569 -5.25609
H 5.60943 -3.04446 -4.58091
O -0.47479 -5.01785 3.24555
C -2.46584 -3.08448 0.52234
C -3.91242 -6.19384 4.09664
C -4.48203 -7.60155 4.27959
C -3.20693 -8.41296 4.35499
C -2.16145 -7.30271 4.22608
O -2.7544 -6.21422 4.89242
H -4.05741 -6.49021 1.92854
H -2.03134 -7.69231 2.07332
H -1.9688 -2.37339 1.21634
H -4.68201 -5.43923 4.36884
H -4.98788 -7.64727 5.27041
H -5.19522 -7.9075 3.48406
H -3.13658 -8.86283 5.37074
H -3.09942 -9.20669 3.58454
H -1.18478 -7.64944 4.63155
H -3.46987 -2.69942 0.24342
H -1.8518 -3.17392 -0.39716
H 8.3048 -1.52164 -1.81995
H 8.05796 -3.28815 -1.5423
H 7.38658 -2.07462 -0.36719
H 1.89021 -4.90798 1.05673
H 2.31693 -6.50955 0.32215
H -0.4255 -5.11162 0.4016
H -0.1278 -6.74061 -0.28621
$end

$opt
CONSTRAINT
tors           1           2           3           4    -142.358
tors           3           4           5           6    -133.838
tors           4           5           6           7    +107.154
tors           5           6           7           8    +120.563
tors           6           7           8           9    +177.143
tors           7           8           9          10    +163.794
tors           8           9          10          11    -176.298
tors           9          10          11          12    +176.995
tors          11          12          13          14      +6.311
ENDCONSTRAINT
$end

$rem
JOBTYPE                   OPT
METHOD                    B3LYP
DFT_D                     d3_op
BASIS                     STO-3G
GEOM_OPT_MAX_CYCLES       100
GEOM_OPT_TOL_GRADIENT     300
GEOM_OPT_TOL_DISPLACEMENT 1200
GEOM_OPT_TOL_ENERGY       100
SYMMETRY                  False
THRESH                    12
SCF_CONVERGENCE           8
MAX_SUB_FILE_NUM          128
MEM_STATIC                400
MEM_TOTAL                 4000
$end
--------------------------------------------------------------

   16   -1510.0897814418      5.55E-09 Convergence criterion met
 Total energy in the final basis set = -1510.08978144
   14   -1510.1663240606      7.19E-09 Convergence criterion met
 Total energy in the final basis set = -1510.16632406
   14   -1510.2083978339      9.56E-09 Convergence criterion met
 Total energy in the final basis set = -1510.20839783
   14   -1510.2315636790      9.16E-09 Convergence criterion met
 Total energy in the final basis set = -1510.23156368
   14   -1510.2427411955      5.19E-09 Convergence criterion met
 Total energy in the final basis set = -1510.24274120
   14   -1510.2480767827      2.72E-09 Convergence criterion met
 Total energy in the final basis set = -1510.24807678
   13   -1510.2509081151      8.15E-09 Convergence criterion met
 Total energy in the final basis set = -1510.25090812
   13   -1510.2518452090      9.64E-09 Convergence criterion met
   11   -1510.2526821168      7.92E-09 Convergence criterion met
 Total energy in the final basis set = -1510.25268212
   11   -1510.2526834752      3.62E-09 Convergence criterion met
 Total energy in the final basis set = -1510.25268348
    9   -1510.2526880323      8.62E-09 Convergence criterion met
 Total energy in the final basis set = -1510.25268803
    9   -1510.2526900226      7.68E-09 Convergence criterion met
 Total energy in the final basis set = -1510.25269002
    9   -1510.2526920568      5.93E-09 Convergence criterion met
 Total energy in the final basis set = -1510.25269206
    9   -1510.2526933612      4.26E-09 Convergence criterion met
 Total energy in the final basis set = -1510.25269336

             Standard Nuclear Orientation (Angstroms)
    I     Atom           X                Y                Z
 ----------------------------------------------------------------
    1      O      -4.5244642866     1.8488602484     2.2006791341
    2      C      -4.1042003769     1.4086063330     1.1099375992
    3      C      -4.9880467769     0.9161647887    -0.0924942877
    4      C      -4.4643575462    -0.3424546154    -0.9053905142
    5      C      -3.1939187200    -1.0178783873    -0.2686402027
    6      O      -2.1743045307    -1.3025731038    -1.2709842278
    7      C      -1.0494803512    -0.3487382061    -1.1080390911
    8      C       0.2759588532    -1.1368900804    -0.8206068481
    9      O       1.3579022882    -0.1246013878    -0.7408552703
   10      C       2.5268947848    -0.6835685148    -0.1178725082
   11      C       3.5505185264     0.5017196521    -0.0071996424
   12      C       4.9376334763     0.2547146870     0.7042620031
   13      C       5.5037889371    -1.2132008122     0.6536576817
   14      O       5.0811195361    -2.2159638069     0.0450967029
   15      O      -2.7195868811     1.4445446550     0.7263032155
   16      O       6.6843670382    -1.2212541765     1.4742257074
   17      O       2.5778393072    -1.8466530767     0.3304925197
   18      C       7.2988556698    -2.5677593583     1.4551648162
   19      C       4.0112574509     1.1537174654    -1.3905339349
   20      C       4.2235226437     2.6920800768    -1.1177671104
   21      C       5.4975732173     2.6441318460    -0.1937433788
   22      C       5.8766346191     1.1100589080    -0.2590906664
   23      O       5.3953467947     0.6699490037    -1.5920630702
   24      H       3.0086140333     1.2766141007     0.5670346965
   25      H       4.9478752876     0.6153628789     1.7480182791
   26      H       3.3720542312     0.9014574725    -2.2585972955
   27      H       4.4311670060     3.2227069345    -2.0610495615
   28      H       3.3533703191     3.1594892936    -0.6297052091
   29      H       6.3159636299     3.2629946020    -0.5940018340
   30      H       5.2846118732     2.9678873535     0.8378907601
   31      H       6.9549223047     0.8875568804    -0.1404623637
   32      O      -3.0736031974    -1.3403824865     0.9313240532
   33      C      -1.8970034301     1.9333544364     1.8578875206
   34      C      -6.4075178471     0.4039465700     0.3999457209
   35      C      -7.4043731281     0.4746037230    -0.8207256968
   36      C      -6.8887992583    -0.7261561935    -1.6980007747
   37      C      -5.7319797559    -1.2994618071    -0.7873006195
   38      O      -6.2066820056    -1.0511580025     0.5920465121
   39      H      -5.1010823246     1.7785360989    -0.7771237949
   40      H      -4.2354086997    -0.0863595467    -1.9539897097
   41      H      -1.8718647941     1.1921041362     2.6827601735
   42      H      -6.7505625419     0.8801508788     1.3392670729
   43      H      -8.4391446665     0.3096026624    -0.4805619968
   44      H      -7.3556290217     1.4412324410    -1.3470540705
   45      H      -7.6727356344    -1.4854131133    -1.8466144571
   46      H      -6.5170853343    -0.4037272801    -2.6837944567
   47      H      -5.5084999896    -2.3743052210    -0.9329096698
   48      H      -2.2817255669     2.8940772829     2.2548538393
   49      H      -0.8762207472     2.0741999165     1.4572768330
   50      H       8.1911111930    -2.5055766679     2.1050965232
   51      H       7.6059833706    -2.8637128546     0.4310517138
   52      H       6.6060486210    -3.3395627185     1.8488173645
   53      H       0.1957776998    -1.7071270135     0.1300091264
   54      H       0.4748474988    -1.8623959964    -1.6395217384
   55      H      -1.2558760569     0.3838996671    -0.3003691688
   56      H      -0.9346098014     0.2117032597    -2.0628058263
 ----------------------------------------------------------------

    9   -1510.2526939661      3.28E-09 Convergence criterion met
 Total energy in the final basis set = -1510.25269397
 Final energy is   -1510.25269396607
 **  OPTIMIZATION CONVERGED  **

                    Orbital Energies (a.u.)
 --------------------------------------------------------------

 Alpha MOs
 -- Occupied --
-18.945 -18.924 -18.924 -18.898 -18.896 -18.891 -18.888 -18.886
-18.877 -18.873 -10.109 -10.106 -10.097 -10.092 -10.072 -10.065
-10.064 -10.063 -10.062 -10.061 -10.060 -10.058 -10.045 -10.039
-10.038 -10.037 -10.024 -10.022 -10.022 -10.021  -1.021  -1.009
 -1.004  -1.002  -0.973  -0.971  -0.945  -0.937  -0.931  -0.926
 -0.766  -0.763  -0.726  -0.723  -0.715  -0.708  -0.692  -0.670
 -0.658  -0.611  -0.600  -0.577  -0.550  -0.544  -0.542  -0.538
 -0.517  -0.512  -0.488  -0.468  -0.461  -0.458  -0.452  -0.449
 -0.436  -0.434  -0.432  -0.419  -0.417  -0.409  -0.405  -0.399
 -0.388  -0.384  -0.373  -0.370  -0.364  -0.358  -0.357  -0.351
 -0.343  -0.340  -0.336  -0.334  -0.330  -0.326  -0.316  -0.314
 -0.313  -0.309  -0.304  -0.298  -0.296  -0.293  -0.291  -0.274
 -0.269  -0.267  -0.254  -0.246  -0.238  -0.237  -0.235  -0.187
 -0.176  -0.171  -0.167  -0.161  -0.155  -0.152  -0.146  -0.145
 -0.133

          Ground-State Mulliken Net Atomic Charges

     Atom                 Charge (a.u.)
  ----------------------------------------
      1 O                    -0.206571
      2 C                     0.214829
      3 C                    -0.079223
      4 C                    -0.081958
      5 C                     0.224205
      6 O                    -0.200639
      7 C                    -0.052389
      8 C                    -0.050473
      9 O                    -0.183152
     10 C                     0.209493
     11 C                    -0.080129
     12 C                    -0.077296
     13 C                     0.211639
     14 O                    -0.198841
     15 O                    -0.176149
     16 O                    -0.176583
     17 O                    -0.198973
     18 C                    -0.129049
     19 C                     0.026071
     20 C                    -0.141481
     21 C                    -0.145710
     22 C                     0.024326
     23 O                    -0.190811
     24 H                     0.082297
     25 H                     0.086188
     26 H                     0.087027
     27 H                     0.077698
     28 H                     0.073005
     29 H                     0.078371
     30 H                     0.073506
     31 H                     0.085689
     32 O                    -0.184506
     33 C                    -0.129356
     34 C                     0.024548
     35 C                    -0.143467
     36 C                    -0.144210
     37 C                     0.026029
     38 O                    -0.186028
     39 H                     0.085318
     40 H                     0.085160
     41 H                     0.094536
     42 H                     0.092190
     43 H                     0.079355
     44 H                     0.073207
     45 H                     0.079344
     46 H                     0.074208
     47 H                     0.085071
     48 H                     0.093776
     49 H                     0.089996
     50 H                     0.088020
     51 H                     0.088084
     52 H                     0.089680
     53 H                     0.093070
     54 H                     0.086117
     55 H                     0.095957
     56 H                     0.078981
  ----------------------------------------
  Sum of atomic charges =     0.000000

                    Cartesian Multipole Moments
 -----------------------------------------------------------------
    Charge (ESU x 10^10)
                 0.0000
    Dipole Moment (Debye)
         X      -0.1093      Y       3.8386      Z      -1.1181
       Tot       3.9996
    Quadrupole Moments (Debye-Ang)
        XX    -149.2960     XY       0.4270     YY    -160.2464
        XZ      21.1862     YZ       0.0230     ZZ    -162.4075

 Total job time:  58.02s(wall), 2754.55s(cpu)
        *  Thank you very much for using Q-Chem.  Have a nice day.  *
