 Q-Chem 5.0, Q-Chem, Inc., Pleasanton, CA (2017)
 Q-Chem 5.0.1 for Intel X86 EM64T Linux

User input:
--------------------------------------------------------------
$molecule
0  1
O -3.94934 -3.66094 2.70899
C -3.26408 -4.56952 2.26188
C -3.36658 -6.02376 2.66595
C -2.12836 -6.66087 3.31767
C -0.98754 -5.72649 3.65466
O -0.21205 -5.52335 2.54888
C 0.6159 -4.35974 2.64775
C 2.08283 -4.76526 2.74673
O 2.91681 -3.71413 2.23441
C 2.65555 -2.47437 2.71804
C 3.44418 -1.39218 2.01976
C 2.89423 -0.9728 0.64864
C 1.47868 -1.41759 0.34028
O 0.58009 -1.54112 1.15995
O -2.5592 -4.33672 1.12947
O 1.29665 -1.80729 -0.94709
O 2.08407 -2.26552 3.78157
C 0.16308 -2.38171 -1.45723
C 3.42393 -0.03276 2.75709
C 4.62354 0.81023 2.32475
C 4.21586 1.1752 0.91418
C 2.81714 0.55184 0.86549
O 2.34652 0.66129 2.18576
H 4.50157 -1.7389 1.97641
H 3.55741 -1.22002 -0.21051
H 3.41528 -0.12628 3.86487
H 4.61666 1.73478 2.94581
H 5.61281 0.31313 2.42009
H 4.15048 2.28383 0.84363
H 4.87362 0.77995 0.11006
H 2.19967 1.0563 0.08858
O -0.69994 -5.34153 4.78323
C -2.63635 -3.15172 0.43136
C -4.4122 -6.23784 3.78254
C -4.88833 -7.69029 3.78796
C -3.67251 -8.37985 4.36256
C -2.77005 -7.17146 4.62838
O -3.66914 -6.1472 4.96998
H -3.69934 -6.57674 1.75891
H -1.70864 -7.52305 2.75203
H -2.16669 -2.32778 1.00939
H -5.29141 -5.56181 3.702
H -5.7207 -7.77124 4.52335
H -5.23001 -8.07021 2.80111
H -3.96108 -8.8536 5.32754
H -3.1933 -9.13302 3.70049
H -2.01406 -7.43526 5.4009
H -3.69701 -2.9034 0.21012
H -2.14779 -3.28737 -0.54326
H 0.30609 -2.56211 -2.54222
H -0.69929 -1.6953 -1.32287
H 0.00063 -3.36024 -0.96104
H 2.33921 -5.03236 3.79475
H 2.26941 -5.65204 2.10418
H 0.28105 -3.63336 3.41851
H 0.47168 -3.86746 1.66899
$end

$opt
CONSTRAINT
tors           1           2           3           4    -117.934
tors           3           4           5           6     -83.245
tors           4           5           6           7    +161.508
tors           5           6           7           8    +111.653
tors           6           7           8           9    +153.328
tors           7           8           9          10     +49.458
tors           8           9          10          11    -172.870
tors           9          10          11          12     +78.677
tors          11          12          13          14     +32.879
ENDCONSTRAINT
$end

$rem
JOBTYPE                   OPT
METHOD                    B3LYP
DFT_D                     d3_op
BASIS                     STO-3G
GEOM_OPT_MAX_CYCLES       100
GEOM_OPT_TOL_GRADIENT     300
GEOM_OPT_TOL_DISPLACEMENT 1200
GEOM_OPT_TOL_ENERGY       100
SYMMETRY                  False
THRESH                    12
SCF_CONVERGENCE           8
MAX_SUB_FILE_NUM          128
MEM_STATIC                400
MEM_TOTAL                 4000
$end
--------------------------------------------------------------

   15   -1510.1427161741      6.90E-09 Convergence criterion met
 Total energy in the final basis set = -1510.14271617
   14   -1510.2130049607      7.86E-09 Convergence criterion met
 Total energy in the final basis set = -1510.21300496
   15   -1510.2461139246      2.73E-09 Convergence criterion met
 Total energy in the final basis set = -1510.24611392
   15   -1510.2678135539      2.43E-09 Convergence criterion met
 Total energy in the final basis set = -1510.26781355
   14   -1510.2756695650      2.75E-09 Convergence criterion met
 Total energy in the final basis set = -1510.27566956
   14   -1510.2795829580      3.32E-09 Convergence criterion met
 Total energy in the final basis set = -1510.27958296
   14   -1510.2816009475      3.12E-09 Convergence criterion met
 Total energy in the final basis set = -1510.28160095
    2   -1510.2816009474      1.26E-09 Convergence criterion met
   11   -1510.2854532807      7.01E-09 Convergence criterion met
 Total energy in the final basis set = -1510.28545328
   10   -1510.2854635519      9.62E-09 Convergence criterion met
 Total energy in the final basis set = -1510.28546355
   10   -1510.2854728976      9.38E-09 Convergence criterion met
 Total energy in the final basis set = -1510.28547290
    9   -1510.2854779669      6.59E-09 Convergence criterion met
 Total energy in the final basis set = -1510.28547797
   10   -1510.2854812642      6.14E-09 Convergence criterion met
 Total energy in the final basis set = -1510.28548126
   10   -1510.2854823004      9.01E-09 Convergence criterion met
 Total energy in the final basis set = -1510.28548230

             Standard Nuclear Orientation (Angstroms)
    I     Atom           X                Y                Z
 ----------------------------------------------------------------
    1      O      -3.2892002884     1.6937376251     2.1806777812
    2      C      -3.1061742189     1.3900073331     0.9817565216
    3      C      -4.2014814421     0.8775369941    -0.0300865668
    4      C      -3.9714153110    -0.5870777053    -0.6173672971
    5      C      -2.5777902018    -1.2010382661    -0.2557615102
    6      O      -1.6257106054    -0.7018011570    -1.2032338134
    7      C      -0.2472074169    -0.8636834273    -0.6913366306
    8      C       0.5545668588    -1.9337850781    -1.5216916543
    9      O       2.0226338934    -1.6919217414    -1.4920486825
   10      C       2.5208623800    -1.4892068782    -0.1628174134
   11      C       4.0294083521    -1.0657687881    -0.2955244955
   12      C       4.2493819792     0.4550836895    -0.6959591814
   13      C       2.9240999512     1.2745375856    -0.8227227552
   14      O       1.8721175261     1.1205852071    -0.1578011583
   15      O      -1.8520880432     1.5117063747     0.3079515906
   16      O       3.0917519262     2.2827306593    -1.8176309989
   17      O       1.8890970047    -1.7129085154     0.8908927357
   18      C       1.8549901331     3.0939729514    -1.9325954533
   19      C       4.7609928361    -1.1194924456     1.1084802818
   20      C       6.3193566746    -1.1232056995     0.8588864126
   21      C       6.5609295949     0.3743135010     0.4362633395
   22      C       5.0996737591     0.9642715148     0.5537301983
   23      O       4.5063904201     0.2222119401     1.6852761784
   24      H       4.5087213694    -1.7288822878    -1.0377339867
   25      H       4.8141706396     0.5567122920    -1.6392087505
   26      H       4.3766324887    -1.9058919535     1.7864305945
   27      H       6.8580181784    -1.3718422210     1.7870966759
   28      H       6.6135516481    -1.8400614600     0.0755248042
   29      H       7.2386600977     0.8892053529     1.1355410998
   30      H       6.9652667130     0.4704958069    -0.5840602847
   31      H       5.0450163381     2.0563457836     0.7298177638
   32      O      -2.2958016757    -1.9337978892     0.7166330666
   33      C      -0.8031565673     1.9808324694     1.2471469887
   34      C      -5.5651771497     0.6627707798     0.7458582869
   35      C      -6.7367736016     0.4668295010    -0.2954101881
   36      C      -6.4916160309    -1.0171418784    -0.7607613113
   37      C      -5.1821623080    -1.3705068180     0.0459409419
   38      O      -5.3877088489    -0.6832341808     1.3409600362
   39      H      -4.2886397341     1.6124605409    -0.8514572279
   40      H      -4.0592271682    -0.5641134494    -1.7185086696
   41      H      -0.8193583454     1.3992759304     2.1900766480
   42      H      -5.7456840557     1.4122357473     1.5404543338
   43      H      -7.7152456651     0.5807279236     0.1972885577
   44      H      -6.6751635696     1.1866089562    -1.1275628057
   45      H      -7.3193950463    -1.6762742641    -0.4539017771
   46      H      -6.3525966835    -1.1075197895    -1.8499889330
   47      H      -4.9934036204    -2.4495173700     0.2074871579
   48      H      -0.9414706271     3.0534437292     1.4939378115
   49      H       0.1673163622     1.8295025049     0.7311246918
   50      H       2.0416618280     3.8184165704    -2.7461995021
   51      H       1.6378744727     3.6394220393    -0.9915317597
   52      H       0.9776008127     2.4648011463    -2.1865992207
   53      H       0.3221232363    -2.9567477132    -1.1523530407
   54      H       0.2769509717    -1.8712275097    -2.5937644225
   55      H      -0.2686691469    -1.1681902918     0.3736192182
   56      H       0.2689630531     0.1158550927    -0.7798713143
 ----------------------------------------------------------------

    9   -1510.2854830295      5.02E-09 Convergence criterion met
 Total energy in the final basis set = -1510.28548303
 Final energy is   -1510.28548302952
 **  OPTIMIZATION CONVERGED  **

                    Orbital Energies (a.u.)
 --------------------------------------------------------------

 Alpha MOs
 -- Occupied --
-18.954 -18.928 -18.925 -18.922 -18.893 -18.893 -18.880 -18.876
-18.870 -18.866 -10.116 -10.100 -10.093 -10.090 -10.076 -10.067
-10.066 -10.061 -10.053 -10.051 -10.049 -10.047 -10.045 -10.040
-10.033 -10.032 -10.025 -10.023 -10.016 -10.015  -1.028  -1.008
 -1.005  -0.998  -0.975  -0.963  -0.951  -0.936  -0.929  -0.926
 -0.768  -0.757  -0.729  -0.719  -0.713  -0.701  -0.690  -0.674
 -0.650  -0.616  -0.597  -0.580  -0.550  -0.541  -0.539  -0.531
 -0.518  -0.503  -0.479  -0.471  -0.463  -0.458  -0.454  -0.445
 -0.437  -0.432  -0.424  -0.421  -0.416  -0.410  -0.403  -0.392
 -0.388  -0.381  -0.373  -0.367  -0.359  -0.358  -0.354  -0.350
 -0.346  -0.337  -0.335  -0.333  -0.326  -0.325  -0.323  -0.315
 -0.309  -0.306  -0.304  -0.299  -0.289  -0.285  -0.280  -0.274
 -0.268  -0.266  -0.250  -0.242  -0.239  -0.237  -0.227  -0.194
 -0.181  -0.171  -0.168  -0.157  -0.152  -0.150  -0.149  -0.142
 -0.137

          Ground-State Mulliken Net Atomic Charges

     Atom                 Charge (a.u.)
  ----------------------------------------
      1 O                    -0.211236
      2 C                     0.206056
      3 C                    -0.076944
      4 C                    -0.078695
      5 C                     0.210061
      6 O                    -0.174648
      7 C                    -0.064361
      8 C                    -0.052450
      9 O                    -0.178299
     10 C                     0.212500
     11 C                    -0.079446
     12 C                    -0.078246
     13 C                     0.217579
     14 O                    -0.215628
     15 O                    -0.173048
     16 O                    -0.163825
     17 O                    -0.205418
     18 C                    -0.129183
     19 C                     0.025465
     20 C                    -0.143854
     21 C                    -0.143573
     22 C                     0.026140
     23 O                    -0.185875
     24 H                     0.086200
     25 H                     0.088885
     26 H                     0.091250
     27 H                     0.079439
     28 H                     0.074072
     29 H                     0.079381
     30 H                     0.074391
     31 H                     0.082838
     32 O                    -0.209276
     33 C                    -0.139904
     34 C                     0.024078
     35 C                    -0.144978
     36 C                    -0.143468
     37 C                     0.024422
     38 O                    -0.187128
     39 H                     0.083129
     40 H                     0.083290
     41 H                     0.092348
     42 H                     0.089588
     43 H                     0.077481
     44 H                     0.071663
     45 H                     0.077260
     46 H                     0.071707
     47 H                     0.086107
     48 H                     0.078697
     49 H                     0.105709
     50 H                     0.094665
     51 H                     0.090973
     52 H                     0.094059
     53 H                     0.085215
     54 H                     0.088375
     55 H                     0.109172
     56 H                     0.097287
  ----------------------------------------
  Sum of atomic charges =    -0.000000

                    Cartesian Multipole Moments
 -----------------------------------------------------------------
    Charge (ESU x 10^10)
                -0.0000
    Dipole Moment (Debye)
         X       2.6075      Y       1.6601      Z      -4.7014
       Tot       5.6265
    Quadrupole Moments (Debye-Ang)
        XX    -139.4794     XY      -1.9923     YY    -152.8989
        XZ       8.8931     YZ       0.6787     ZZ    -168.2893

 Total job time:  71.60s(wall), 3409.33s(cpu)
        *  Thank you very much for using Q-Chem.  Have a nice day.  *
