 Q-Chem 5.0, Q-Chem, Inc., Pleasanton, CA (2017)
 Q-Chem 5.0.1 for Intel X86 EM64T Linux

User input:
--------------------------------------------------------------
$molecule
0  1
O -3.2892002884 1.6937376251 2.1806777812
C -3.1061742189 1.3900073331 0.9817565216
C -4.2014814421 0.8775369941 -0.0300865668
C -3.971415311 -0.5870777053 -0.6173672971
C -2.5777902018 -1.2010382661 -0.2557615102
O -1.6257106054 -0.701801157 -1.2032338134
C -0.2472074169 -0.8636834273 -0.6913366306
C 0.5545668588 -1.9337850781 -1.5216916543
O 2.0226338934 -1.6919217414 -1.4920486825
C 2.52086238 -1.4892068782 -0.1628174134
C 4.0294083521 -1.0657687881 -0.2955244955
C 4.2493819792 0.4550836895 -0.6959591814
C 2.9240999512 1.2745375856 -0.8227227552
O 1.8721175261 1.1205852071 -0.1578011583
O -1.8520880432 1.5117063747 0.3079515906
O 3.0917519262 2.2827306593 -1.8176309989
O 1.8890970047 -1.7129085154 0.8908927357
C 1.8549901331 3.0939729514 -1.9325954533
C 4.7609928361 -1.1194924456 1.1084802818
C 6.3193566746 -1.1232056995 0.8588864126
C 6.5609295949 0.374313501 0.4362633395
C 5.0996737591 0.9642715148 0.5537301983
O 4.5063904201 0.2222119401 1.6852761784
H 4.5087213694 -1.7288822878 -1.0377339867
H 4.8141706396 0.556712292 -1.6392087505
H 4.3766324887 -1.9058919535 1.7864305945
H 6.8580181784 -1.371842221 1.7870966759
H 6.6135516481 -1.84006146 0.0755248042
H 7.2386600977 0.8892053529 1.1355410998
H 6.965266713 0.4704958069 -0.5840602847
H 5.0450163381 2.0563457836 0.7298177638
O -2.2958016757 -1.9337978892 0.7166330666
C -0.8031565673 1.9808324694 1.2471469887
C -5.5651771497 0.6627707798 0.7458582869
C -6.7367736016 0.466829501 -0.2954101881
C -6.4916160309 -1.0171418784 -0.7607613113
C -5.182162308 -1.370506818 0.0459409419
O -5.3877088489 -0.6832341808 1.3409600362
H -4.2886397341 1.6124605409 -0.8514572279
H -4.0592271682 -0.5641134494 -1.7185086696
H -0.8193583454 1.3992759304 2.190076648
H -5.7456840557 1.4122357473 1.5404543338
H -7.7152456651 0.5807279236 0.1972885577
H -6.6751635696 1.1866089562 -1.1275628057
H -7.3193950463 -1.6762742641 -0.4539017771
H -6.3525966835 -1.1075197895 -1.849988933
H -4.9934036204 -2.44951737 0.2074871579
H -0.9414706271 3.0534437292 1.4939378115
H 0.1673163622 1.8295025049 0.7311246918
H 2.041661828 3.8184165704 -2.7461995021
H 1.6378744727 3.6394220393 -0.9915317597
H 0.9776008127 2.4648011463 -2.1865992207
H 0.3221232363 -2.9567477132 -1.1523530407
H 0.2769509717 -1.8712275097 -2.5937644225
H -0.2686691469 -1.1681902918 0.3736192182
H 0.2689630531 0.1158550927 -0.7798713143
$end

$rem
JOBTYPE                   OPT
METHOD                    B3LYP
DFT_D                     d3_op
BASIS                     STO-3G
GEOM_OPT_MAX_CYCLES       100
GEOM_OPT_TOL_GRADIENT     300
GEOM_OPT_TOL_DISPLACEMENT 1200
GEOM_OPT_TOL_ENERGY       100
SYMMETRY                  False
THRESH                    12
SCF_CONVERGENCE           8
MAX_SUB_FILE_NUM          128
MEM_STATIC                400
MEM_TOTAL                 4000
$end
--------------------------------------------------------------

   16   -1510.2855109298      6.08E-09 Convergence criterion met
 Total energy in the final basis set = -1510.28551093
   14   -1510.2847715500      8.09E-09 Convergence criterion met
 Total energy in the final basis set = -1510.28477155
   14   -1510.2854618691      6.70E-09 Convergence criterion met
 Total energy in the final basis set = -1510.28546187
   15   -1510.2847126715      2.17E-09 Convergence criterion met
 Total energy in the final basis set = -1510.28471267
   14   -1510.2856945526      9.98E-09 Convergence criterion met
 Total energy in the final basis set = -1510.28569455
   15   -1510.2869283964      4.56E-09 Convergence criterion met
 Total energy in the final basis set = -1510.28692840
   13   -1510.2880412880      6.51E-09 Convergence criterion met
 Total energy in the final basis set = -1510.28804129
   14   -1510.2894099609      7.70E-09 Convergence criterion met
   12   -1510.2999438963      8.06E-09 Convergence criterion met
 Total energy in the final basis set = -1510.29994390
   12   -1510.3001342512      6.53E-09 Convergence criterion met
 Total energy in the final basis set = -1510.30013425
   12   -1510.3001098942      7.44E-09 Convergence criterion met
 Total energy in the final basis set = -1510.30010989
   11   -1510.3002036520      9.82E-09 Convergence criterion met
 Total energy in the final basis set = -1510.30020365
   12   -1510.3002239234      3.29E-09 Convergence criterion met
 Total energy in the final basis set = -1510.30022392
   12   -1510.3002352546      2.78E-09 Convergence criterion met
 Total energy in the final basis set = -1510.30023525

             Standard Nuclear Orientation (Angstroms)
    I     Atom           X                Y                Z
 ----------------------------------------------------------------
    1      O      -3.4281333852     2.2118413462     2.2711290821
    2      C      -2.9671035046     1.7184652398     1.2215503127
    3      C      -3.7261682442     1.3953973740    -0.1166374910
    4      C      -3.3855523927    -0.0402833064    -0.7073585601
    5      C      -2.4153817867    -0.8674818211     0.2045800822
    6      O      -1.1689055952    -1.0668796075    -0.4962875697
    7      C      -0.2051800327    -1.7847575197     0.3773785330
    8      C       0.7297279658    -2.6733662703    -0.5138172324
    9      O       1.8971381243    -1.8914084544    -0.9943475348
   10      C       2.9984190732    -2.0515685286    -0.0863891039
   11      C       4.1728591810    -1.1166357703    -0.5407276445
   12      C       3.7703093366     0.4123952119    -0.6905860375
   13      C       2.2582896495     0.6920618640    -0.3834721011
   14      O       1.6788749854     0.5500673016     0.7211221576
   15      O      -1.6032376838     1.3497253104     1.0162604472
   16      O       1.6519906184     1.1612428168    -1.5793321865
   17      O       2.9989378571    -2.8395019794     0.8835668855
   18      C       0.1950455251     1.3828912510    -1.3983927364
   19      C       5.2778864938    -1.0325936909     0.5912528439
   20      C       6.5950647429    -0.4303870850    -0.0359663268
   21      C       6.1962690716     1.0859650433    -0.1779402699
   22      C       4.7248744415     1.0705978509     0.3971305696
   23      O       4.7787692755     0.0517622073     1.4687144630
   24      H       4.5811137542    -1.5060400097    -1.4917496851
   25      H       3.9842031079     0.7832450676    -1.7078616096
   26      H       5.3962588922    -1.9712101037     1.1669842660
   27      H       7.4453347978    -0.5619498157     0.6517485567
   28      H       6.8447339669    -0.8978092328    -1.0016799710
   29      H       6.8418532355     1.7328458941     0.4373040063
   30      H       6.2314215149     1.4400727074    -1.2207140814
   31      H       4.3641148008     2.0368531493     0.7999255993
   32      O      -2.6659197150    -1.3646789224     1.3229624549
   33      C      -0.7845622214     1.5174416810     2.2377239089
   34      C      -5.2890401729     1.2770263064     0.1078600559
   35      C      -6.0015210334     1.3780170616    -1.2965410629
   36      C      -5.6583174034    -0.0307427754    -1.9100278563
   37      C      -4.8367619872    -0.6887650975    -0.7313704233
   38      O      -5.4737931411    -0.1434406243     0.4883312532
   39      H      -3.4807522226     2.1836021782    -0.8525391108
   40      H      -2.9433788562     0.0326679227    -1.7161695109
   41      H      -1.1251719159     0.8333183564     3.0410396916
   42      H      -5.6782716634     1.9450774781     0.9008644435
   43      H      -7.0879427193     1.5087566463    -1.1694313327
   44      H      -5.6124610197     2.2128178645    -1.9008966544
   45      H      -6.5692176842    -0.6149297866    -2.1168153528
   46      H      -5.0677189599     0.0406431849    -2.8376385654
   47      H      -4.8454253916    -1.7957651518    -0.7094140068
   48      H      -0.8247119492     2.5597716852     2.6129543431
   49      H       0.2454037163     1.2535227446     1.9157374724
   50      H      -0.1723596099     1.7359399722    -2.3789799050
   51      H      -0.0042300246     2.1563803276    -0.6306978962
   52      H      -0.3346406649     0.4428778823    -1.1019601742
   53      H       1.0915256134    -3.5373624245     0.0838695828
   54      H       0.1855940902    -3.0274320380    -1.4127594882
   55      H      -0.7719695033    -2.3930856242     1.1137508524
   56      H       0.4163143229    -1.0297986877     0.9129992243
 ----------------------------------------------------------------

   11   -1510.3002349604      2.52E-09 Convergence criterion met
 Total energy in the final basis set = -1510.30023496
 Final energy is   -1510.30023496041
 **  OPTIMIZATION CONVERGED  **

                    Orbital Energies (a.u.)
 --------------------------------------------------------------

 Alpha MOs
 -- Occupied --
-18.937 -18.936 -18.936 -18.933 -18.889 -18.888 -18.883 -18.879
-18.876 -18.873 -10.104 -10.103 -10.103 -10.100 -10.073 -10.062
-10.062 -10.061 -10.059 -10.058 -10.049 -10.042 -10.041 -10.040
-10.038 -10.038 -10.022 -10.022 -10.021 -10.020  -1.019  -1.015
 -1.008  -1.006  -0.972  -0.970  -0.944  -0.938  -0.936  -0.935
 -0.766  -0.764  -0.729  -0.724  -0.712  -0.707  -0.698  -0.656
 -0.655  -0.618  -0.598  -0.581  -0.548  -0.545  -0.539  -0.537
 -0.512  -0.512  -0.487  -0.474  -0.459  -0.459  -0.454  -0.453
 -0.437  -0.432  -0.429  -0.418  -0.415  -0.409  -0.401  -0.397
 -0.391  -0.383  -0.372  -0.367  -0.364  -0.362  -0.354  -0.351
 -0.342  -0.341  -0.338  -0.332  -0.331  -0.327  -0.324  -0.312
 -0.311  -0.307  -0.306  -0.302  -0.293  -0.290  -0.285  -0.275
 -0.273  -0.263  -0.254  -0.245  -0.241  -0.236  -0.234  -0.185
 -0.178  -0.174  -0.171  -0.163  -0.158  -0.153  -0.151  -0.145
 -0.144

          Ground-State Mulliken Net Atomic Charges

     Atom                 Charge (a.u.)
  ----------------------------------------
      1 O                    -0.206185
      2 C                     0.213229
      3 C                    -0.078525
      4 C                    -0.079049
      5 C                     0.216782
      6 O                    -0.175154
      7 C                    -0.062774
      8 C                    -0.054107
      9 O                    -0.173968
     10 C                     0.211254
     11 C                    -0.078238
     12 C                    -0.079266
     13 C                     0.218703
     14 O                    -0.228495
     15 O                    -0.175736
     16 O                    -0.166465
     17 O                    -0.208757
     18 C                    -0.148236
     19 C                     0.024413
     20 C                    -0.144177
     21 C                    -0.143728
     22 C                     0.025505
     23 O                    -0.186874
     24 H                     0.086079
     25 H                     0.087123
     26 H                     0.091104
     27 H                     0.078799
     28 H                     0.073258
     29 H                     0.078401
     30 H                     0.073784
     31 H                     0.083192
     32 O                    -0.212136
     33 C                    -0.140663
     34 C                     0.023940
     35 C                    -0.143842
     36 C                    -0.144069
     37 C                     0.025807
     38 O                    -0.185763
     39 H                     0.083507
     40 H                     0.084495
     41 H                     0.088764
     42 H                     0.091154
     43 H                     0.078773
     44 H                     0.072777
     45 H                     0.078429
     46 H                     0.072839
     47 H                     0.083730
     48 H                     0.084433
     49 H                     0.113347
     50 H                     0.078907
     51 H                     0.083510
     52 H                     0.113447
     53 H                     0.100553
     54 H                     0.092102
     55 H                     0.099322
     56 H                     0.104741
  ----------------------------------------
  Sum of atomic charges =    -0.000000

                    Cartesian Multipole Moments
 -----------------------------------------------------------------
    Charge (ESU x 10^10)
                -0.0000
    Dipole Moment (Debye)
         X       1.5475      Y       0.7965      Z      -4.5197
       Tot       4.8433
    Quadrupole Moments (Debye-Ang)
        XX    -152.7173     XY      -0.0717     YY    -155.8756
        XZ       6.9498     YZ       1.8169     ZZ    -167.1299

 Total job time:  106.92s(wall), 5096.19s(cpu)
        *  Thank you very much for using Q-Chem.  Have a nice day.  *
