 Q-Chem 5.0, Q-Chem, Inc., Pleasanton, CA (2017)
 Q-Chem 5.0.1 for Intel X86 EM64T Linux

User input:
--------------------------------------------------------------
$molecule
0  1
O -5.4739873669 1.6430007039 1.83057544
C -4.7236797202 1.3329997465 0.881150752
C -5.1175051763 0.5071353662 -0.392746703
C -3.9467301805 -0.2780271596 -1.1182697511
C -2.6212070416 -0.3476766645 -0.2803583998
O -1.566625685 0.2546270038 -1.052024705
C -0.4322292688 0.6160090393 -0.1705441541
C 0.636795129 -0.5449021332 -0.1372412375
O 1.9542298461 -0.0966283181 0.3781088943
C 2.6429967524 0.6951876343 -0.5914264075
C 4.0677664322 1.1211233201 -0.0612566553
C 4.9349109086 -0.0262622091 0.6066882797
C 4.1658289587 -1.2534683672 1.2092781688
O 4.2941129545 -2.4568479137 0.8963590948
O -3.3822112511 1.8158064985 0.7313997891
O 3.4523749643 -0.7992379462 2.3677448624
O 2.1652666549 0.9990898111 -1.7069006904
C 2.7227089568 -1.928935863 2.9844291207
C 4.9400686605 1.3940784768 -1.3577079756
C 6.3566594787 1.9745567116 -0.9669205498
C 7.1135322577 0.6711406981 -0.5077236786
C 5.9400807286 -0.3814524931 -0.5693504165
O 5.2231348344 0.0075261477 -1.8060346828
H 3.9666602238 1.997021969 0.6057306669
H 5.4929524049 0.4152184936 1.4533834334
H 4.3905417189 1.9463121734 -2.1445855967
H 6.8389090925 2.440136129 -1.8409075721
H 6.28368727 2.7253795886 -0.1635206236
H 7.9101554829 0.3979194378 -1.2183195385
H 7.5508382367 0.7605979653 0.4994211776
H 6.2376707205 -1.4475688584 -0.6076646185
O -2.4565495342 -0.8547365653 0.84985645
C -2.9803791416 2.5969546932 1.9231305985
C -6.1403446096 -0.6663213563 -0.0754202303
C -6.9245257699 -0.9976594054 -1.4033485194
C -5.7922643662 -1.6904481216 -2.2488075057
C -4.6027241976 -1.7247250759 -1.2076304195
O -5.2749675956 -1.8540122591 0.1059057645
H -5.5736249728 1.2250447501 -1.1010912981
H -3.7171635238 0.1504663397 -2.1091091163
H -2.8256077863 1.9356717401 2.8004689495
H -6.762949588 -0.4900450326 0.8237071447
H -7.7520749536 -1.6938183971 -1.1928784066
H -7.3340085652 -0.0973900296 -1.8886827845
H -6.0754950172 -2.7116776593 -2.5491052825
H -5.5279255341 -1.1171255508 -3.151705542
H -3.8760456376 -2.5474784092 -1.3520270368
H -3.7413676235 3.359482931 2.1848810247
H -2.0272279606 3.0913888584 1.6603253226
H 2.2502828196 -1.5261417188 3.8991601099
H 3.4049012702 -2.7619505535 3.2516521668
H 1.9373968153 -2.3211539895 2.3067063204
H 0.3042142531 -1.3489827098 0.5487442289
H 0.7401843455 -0.9551845436 -1.1652197874
H -0.7806292694 0.8440684053 0.8570006833
H 0.0266404948 1.5165445921 -0.6266766672
$end

$rem
JOBTYPE                   OPT
METHOD                    B3LYP
DFT_D                     d3_op
BASIS                     STO-3G
GEOM_OPT_MAX_CYCLES       100
GEOM_OPT_TOL_GRADIENT     300
GEOM_OPT_TOL_DISPLACEMENT 1200
GEOM_OPT_TOL_ENERGY       100
SYMMETRY                  False
THRESH                    12
SCF_CONVERGENCE           8
MAX_SUB_FILE_NUM          128
MEM_STATIC                400
MEM_TOTAL                 4000
$end
--------------------------------------------------------------

   16   -1510.2751924590      5.89E-09 Convergence criterion met
 Total energy in the final basis set = -1510.27519246
   13   -1510.2781851376      9.24E-09 Convergence criterion met
 Total energy in the final basis set = -1510.27818514
   13   -1510.2801084063      9.95E-09 Convergence criterion met
 Total energy in the final basis set = -1510.28010841
   14   -1510.2815705416      3.06E-09 Convergence criterion met
 Total energy in the final basis set = -1510.28157054
   14   -1510.2826298736      2.94E-09 Convergence criterion met
 Total energy in the final basis set = -1510.28262987
   13   -1510.2835198094      4.37E-09 Convergence criterion met
 Total energy in the final basis set = -1510.28351981
   13   -1510.2841961584      6.03E-09 Convergence criterion met
 Total energy in the final basis set = -1510.28419616
   13   -1510.2848698719      7.86E-09 Convergence criterion met
   12   -1510.3079090617      4.14E-09 Convergence criterion met
 Total energy in the final basis set = -1510.30790906
   10   -1510.3079152865      3.97E-09 Convergence criterion met
 Total energy in the final basis set = -1510.30791529
   11   -1510.3079196521      2.63E-09 Convergence criterion met
 Total energy in the final basis set = -1510.30791965
    9   -1510.3079209291      7.81E-09 Convergence criterion met
 Total energy in the final basis set = -1510.30792093
    9   -1510.3079240118      6.91E-09 Convergence criterion met
 Total energy in the final basis set = -1510.30792401
    9   -1510.3079243303      3.94E-09 Convergence criterion met
 Total energy in the final basis set = -1510.30792433

             Standard Nuclear Orientation (Angstroms)
    I     Atom           X                Y                Z
 ----------------------------------------------------------------
    1      O      -2.8764892014    -1.7853025035     2.2190941262
    2      C      -3.4233250963    -0.8729945037     1.5635254319
    3      C      -3.3130868378    -0.6128935330     0.0144625059
    4      C      -2.4068229949     0.6246691473    -0.3715576308
    5      C      -1.7588463777     1.3355798504     0.8631693804
    6      O      -1.1294969514     2.5179193635     0.3786182352
    7      C      -0.3048129979     3.1696303433     1.4207424490
    8      C       0.9633253639     3.7763881790     0.7150498575
    9      O       2.0991961170     2.8337267777     0.6246793062
   10      C       1.9241635560     1.9070738671    -0.4636936855
   11      C       3.2160363480     0.9976894183    -0.5272586409
   12      C       3.1254542033    -0.3358909570     0.3182582450
   13      C       1.7180461818    -0.4740513731     0.9832435990
   14      O       0.8288363487     0.4132361989     0.9562265016
   15      O      -4.3923450530     0.0424372307     2.0948298833
   16      O       1.5578972307    -1.7429832164     1.5805448183
   17      O       1.0170211578     1.9774845630    -1.3245957593
   18      C       0.1282687752    -1.9160570233     1.9684005202
   19      C       3.4115345502     0.4103135673    -1.9874774749
   20      C       4.8963241580    -0.1062981958    -2.1232947693
   21      C       4.8385254227    -1.4231928454    -1.2625649401
   22      C       3.3239017635    -1.4306877698    -0.8158919322
   23      O       2.6110873705    -0.8375780332    -1.9704471450
   24      H       4.0780111402     1.6094565095    -0.2084469378
   25      H       3.9112715547    -0.3977206660     1.0930020791
   26      H       3.0590957013     1.0795759594    -2.7958877418
   27      H       5.1335443895    -0.3237230409    -3.1768245207
   28      H       5.6271376662     0.6232350484    -1.7391139244
   29      H       5.0662425873    -2.3144392390    -1.8687120852
   30      H       5.5230674283    -1.3982757183    -0.3996850441
   31      H       2.9029856380    -2.4225287759    -0.5599620294
   32      O      -1.7629517184     0.9535811621     2.0553901080
   33      C      -4.4804489315    -0.1231611056     3.5619528728
   34      C      -2.5439489026    -1.7901835903    -0.7146346216
   35      C      -2.8148162796    -1.6924912927    -2.2643751083
   36      C      -1.9206861816    -0.4549182052    -2.6518940457
   37      C      -1.2868547221    -0.0726379452    -1.2598742349
   38      O      -1.1194241741    -1.3930380965    -0.5993263562
   39      H      -4.3349088893    -0.4844286994    -0.3849146829
   40      H      -2.9634916738     1.3780792540    -0.9566377068
   41      H      -3.5186533845     0.1347262537     4.0509204992
   42      H      -2.7004561615    -2.7863605652    -0.2574565284
   43      H      -2.4769870575    -2.6098341974    -2.7721718153
   44      H      -3.8818875318    -1.5356224627    -2.4892561973
   45      H      -1.1299273993    -0.7351543950    -3.3658675093
   46      H      -2.5054115606     0.3749547541    -3.0797134656
   47      H      -0.3291290798     0.4962739315    -1.3075522593
   48      H      -4.7526183650    -1.1613051222     3.8426896582
   49      H      -5.2685021497     0.5727502466     3.9040613584
   50      H       0.0346207097    -2.9593750865     2.3177706788
   51      H      -0.5140079740    -1.7253603497     1.0704875085
   52      H      -0.1538354510    -1.2201676769     2.7833637460
   53      H       0.6648001405     4.1342848675    -0.2947171119
   54      H       1.3401394939     4.6301476601     1.3141395123
   55      H      -0.0183966382     2.4331548039     2.2020545435
   56      H      -0.8893910510     3.9881163392     1.8971240785
 ----------------------------------------------------------------

    8   -1510.3079249663      9.84E-09 Convergence criterion met
 Total energy in the final basis set = -1510.30792497
 Final energy is   -1510.30792496632
 **  OPTIMIZATION CONVERGED  **

                    Orbital Energies (a.u.)
 --------------------------------------------------------------

 Alpha MOs
 -- Occupied --
-18.933 -18.928 -18.918 -18.917 -18.892 -18.883 -18.875 -18.870
-18.857 -18.856 -10.099 -10.096 -10.092 -10.087 -10.068 -10.065
-10.056 -10.055 -10.054 -10.052 -10.046 -10.035 -10.030 -10.029
-10.028 -10.028 -10.018 -10.017 -10.015 -10.011  -1.013  -1.006
 -0.996  -0.993  -0.968  -0.967  -0.933  -0.931  -0.924  -0.921
 -0.759  -0.757  -0.722  -0.717  -0.708  -0.701  -0.690  -0.651
 -0.643  -0.611  -0.590  -0.573  -0.541  -0.538  -0.533  -0.529
 -0.507  -0.502  -0.478  -0.466  -0.456  -0.451  -0.446  -0.444
 -0.429  -0.428  -0.424  -0.408  -0.403  -0.399  -0.396  -0.391
 -0.386  -0.372  -0.367  -0.360  -0.354  -0.350  -0.344  -0.342
 -0.339  -0.335  -0.334  -0.327  -0.325  -0.320  -0.316  -0.309
 -0.305  -0.300  -0.297  -0.295  -0.289  -0.276  -0.267  -0.267
 -0.264  -0.251  -0.245  -0.241  -0.238  -0.231  -0.226  -0.181
 -0.172  -0.162  -0.157  -0.151  -0.149  -0.143  -0.141  -0.138
 -0.137

          Ground-State Mulliken Net Atomic Charges

     Atom                 Charge (a.u.)
  ----------------------------------------
      1 O                    -0.221842
      2 C                     0.215673
      3 C                    -0.082744
      4 C                    -0.078140
      5 C                     0.224951
      6 O                    -0.168418
      7 C                    -0.048591
      8 C                    -0.047791
      9 O                    -0.178309
     10 C                     0.220556
     11 C                    -0.082307
     12 C                    -0.078899
     13 C                     0.220080
     14 O                    -0.215894
     15 O                    -0.175211
     16 O                    -0.168336
     17 O                    -0.227590
     18 C                    -0.144689
     19 C                     0.024157
     20 C                    -0.144104
     21 C                    -0.143964
     22 C                     0.024686
     23 O                    -0.190206
     24 H                     0.083089
     25 H                     0.086063
     26 H                     0.086110
     27 H                     0.077296
     28 H                     0.072838
     29 H                     0.077802
     30 H                     0.073329
     31 H                     0.089644
     32 O                    -0.214447
     33 C                    -0.128192
     34 C                     0.025472
     35 C                    -0.143823
     36 C                    -0.142809
     37 C                     0.020477
     38 O                    -0.190430
     39 H                     0.083684
     40 H                     0.087034
     41 H                     0.091745
     42 H                     0.087125
     43 H                     0.077709
     44 H                     0.072637
     45 H                     0.081371
     46 H                     0.073865
     47 H                     0.112459
     48 H                     0.085788
     49 H                     0.085735
     50 H                     0.083230
     51 H                     0.120212
     52 H                     0.086326
     53 H                     0.094942
     54 H                     0.085951
     55 H                     0.103802
     56 H                     0.080899
  ----------------------------------------
  Sum of atomic charges =     0.000000

                    Cartesian Multipole Moments
 -----------------------------------------------------------------
    Charge (ESU x 10^10)
                 0.0000
    Dipole Moment (Debye)
         X       0.7292      Y       1.1972      Z      -0.2242
       Tot       1.4196
    Quadrupole Moments (Debye-Ang)
        XX    -143.0687     XY       1.1736     YY    -154.6947
        XZ       0.4143     YZ       4.5330     ZZ    -158.3553

 Total job time:  263.10s(wall), 12377.95s(cpu)
        *  Thank you very much for using Q-Chem.  Have a nice day.  *
