 Q-Chem 5.0, Q-Chem, Inc., Pleasanton, CA (2017)
 Q-Chem 5.0.1 for Intel X86 EM64T Linux

User input:
--------------------------------------------------------------
$molecule
0  1
O -3.94934 -3.66094 2.70899
C -3.26408 -4.56952 2.26188
C -3.36658 -6.02376 2.66595
C -2.10919 -6.89142 2.49281
C -0.83925 -6.16822 2.1025
O -0.36217 -6.67068 0.92549
C 0.5662 -5.7964 0.27511
C 1.99415 -6.15774 0.67073
O 2.92159 -5.57701 -0.25959
C 2.98315 -6.17812 -1.47368
C 4.01354 -5.55675 -2.38629
C 5.38067 -5.29684 -1.73693
C 5.63162 -6.00323 -0.41984
O 6.54638 -6.78297 -0.19675
O -2.53885 -4.30572 1.14148
O 5.07706 -5.42983 0.68187
O 2.41556 -7.2308 -1.7425
C 5.3043 -5.83038 1.98365
C 4.41816 -6.40807 -3.60519
C 4.95457 -5.49835 -4.70873
C 6.27518 -5.06863 -4.10405
C 6.2832 -5.91686 -2.82648
O 5.57857 -7.08194 -3.18531
H 3.56021 -4.60095 -2.73355
H 5.59334 -4.21626 -1.57898
H 3.59576 -7.04205 -4.00156
H 5.16192 -6.14536 -5.5913
H 4.28067 -4.66914 -5.01399
H 7.09268 -5.38254 -4.79059
H 6.36391 -3.98445 -3.87546
H 7.32945 -6.0659 -2.47999
O -0.34383 -5.23615 2.7273
C -2.39265 -3.05573 0.57665
C -3.56546 -6.16794 4.19319
C -4.1979 -7.52226 4.51475
C -3.02775 -8.44741 4.25901
C -1.93688 -7.42619 3.92313
O -2.2654 -6.30876 4.71007
H -4.26472 -6.43434 2.15308
H -2.29202 -7.71887 1.76891
H -1.91193 -2.36432 1.30136
H -4.18002 -5.35523 4.63839
H -4.42357 -7.53364 5.60531
H -5.12368 -7.75558 3.94614
H -2.78052 -8.97302 5.20826
H -3.17555 -9.18776 3.44325
H -0.92848 -7.86543 4.09211
H -3.38214 -2.65369 0.27128
H -1.74694 -3.13644 -0.32169
H 4.71514 -5.18768 2.66937
H 6.38133 -5.72819 2.23587
H 4.98322 -6.8854 2.11858
H 2.18692 -5.76832 1.69203
H 2.13866 -7.26161 0.71012
H 0.35288 -4.71068 0.40778
H 0.42609 -5.98753 -0.80765
$end

$opt
CONSTRAINT
tors           1           2           3           4    -154.442
tors           3           4           5           6    -121.419
tors           4           5           6           7    +161.508
tors           5           6           7           8     +93.660
tors           6           7           8           9    +162.684
tors           7           8           9          10     -74.193
tors           8           9          10          11    -177.721
tors           9          10          11          12     +46.264
tors          11          12          13          14    +121.449
ENDCONSTRAINT
$end

$rem
JOBTYPE                   OPT
METHOD                    B3LYP
DFT_D                     d3_op
BASIS                     STO-3G
GEOM_OPT_MAX_CYCLES       100
GEOM_OPT_TOL_GRADIENT     300
GEOM_OPT_TOL_DISPLACEMENT 1200
GEOM_OPT_TOL_ENERGY       100
SYMMETRY                  False
THRESH                    12
SCF_CONVERGENCE           8
MAX_SUB_FILE_NUM          128
MEM_STATIC                400
MEM_TOTAL                 4000
$end
--------------------------------------------------------------

   15   -1510.1400304025      6.64E-09 Convergence criterion met
 Total energy in the final basis set = -1510.14003040
   14   -1510.2108220139      9.13E-09 Convergence criterion met
 Total energy in the final basis set = -1510.21082201
   15   -1510.2475662736      1.12E-09 Convergence criterion met
 Total energy in the final basis set = -1510.24756627
   15   -1510.2628297448      1.88E-09 Convergence criterion met
 Total energy in the final basis set = -1510.26282974
   14   -1510.2697107669      6.51E-09 Convergence criterion met
 Total energy in the final basis set = -1510.26971077
   12   -1510.2716530721      9.43E-09 Convergence criterion met
 Total energy in the final basis set = -1510.27165307
   12   -1510.2722848717      6.36E-09 Convergence criterion met
 Total energy in the final basis set = -1510.27228487
   12   -1510.2724097424      4.31E-09 Convergence criterion met
   12   -1510.2746670530      4.79E-09 Convergence criterion met
 Total energy in the final basis set = -1510.27466705
   12   -1510.2748344422      6.21E-09 Convergence criterion met
 Total energy in the final basis set = -1510.27483444
   13   -1510.2749391073      4.86E-09 Convergence criterion met
 Total energy in the final basis set = -1510.27493911
   12   -1510.2749970714      3.33E-09 Convergence criterion met
 Total energy in the final basis set = -1510.27499707
   11   -1510.2750244805      7.60E-09 Convergence criterion met
 Total energy in the final basis set = -1510.27502448
   11   -1510.2750342122      9.63E-09 Convergence criterion met
 Total energy in the final basis set = -1510.27503421

             Standard Nuclear Orientation (Angstroms)
    I     Atom           X                Y                Z
 ----------------------------------------------------------------
    1      O      -5.4739873669     1.6430007039     1.8305754400
    2      C      -4.7236797202     1.3329997465     0.8811507520
    3      C      -5.1175051763     0.5071353662    -0.3927467030
    4      C      -3.9467301805    -0.2780271596    -1.1182697511
    5      C      -2.6212070416    -0.3476766645    -0.2803583998
    6      O      -1.5666256850     0.2546270038    -1.0520247050
    7      C      -0.4322292688     0.6160090393    -0.1705441541
    8      C       0.6367951290    -0.5449021332    -0.1372412375
    9      O       1.9542298461    -0.0966283181     0.3781088943
   10      C       2.6429967524     0.6951876343    -0.5914264075
   11      C       4.0677664322     1.1211233201    -0.0612566553
   12      C       4.9349109086    -0.0262622091     0.6066882797
   13      C       4.1658289587    -1.2534683672     1.2092781688
   14      O       4.2941129545    -2.4568479137     0.8963590948
   15      O      -3.3822112511     1.8158064985     0.7313997891
   16      O       3.4523749643    -0.7992379462     2.3677448624
   17      O       2.1652666549     0.9990898111    -1.7069006904
   18      C       2.7227089568    -1.9289358630     2.9844291207
   19      C       4.9400686605     1.3940784768    -1.3577079756
   20      C       6.3566594787     1.9745567116    -0.9669205498
   21      C       7.1135322577     0.6711406981    -0.5077236786
   22      C       5.9400807286    -0.3814524931    -0.5693504165
   23      O       5.2231348344     0.0075261477    -1.8060346828
   24      H       3.9666602238     1.9970219690     0.6057306669
   25      H       5.4929524049     0.4152184936     1.4533834334
   26      H       4.3905417189     1.9463121734    -2.1445855967
   27      H       6.8389090925     2.4401361290    -1.8409075721
   28      H       6.2836872700     2.7253795886    -0.1635206236
   29      H       7.9101554829     0.3979194378    -1.2183195385
   30      H       7.5508382367     0.7605979653     0.4994211776
   31      H       6.2376707205    -1.4475688584    -0.6076646185
   32      O      -2.4565495342    -0.8547365653     0.8498564500
   33      C      -2.9803791416     2.5969546932     1.9231305985
   34      C      -6.1403446096    -0.6663213563    -0.0754202303
   35      C      -6.9245257699    -0.9976594054    -1.4033485194
   36      C      -5.7922643662    -1.6904481216    -2.2488075057
   37      C      -4.6027241976    -1.7247250759    -1.2076304195
   38      O      -5.2749675956    -1.8540122591     0.1059057645
   39      H      -5.5736249728     1.2250447501    -1.1010912981
   40      H      -3.7171635238     0.1504663397    -2.1091091163
   41      H      -2.8256077863     1.9356717401     2.8004689495
   42      H      -6.7629495880    -0.4900450326     0.8237071447
   43      H      -7.7520749536    -1.6938183971    -1.1928784066
   44      H      -7.3340085652    -0.0973900296    -1.8886827845
   45      H      -6.0754950172    -2.7116776593    -2.5491052825
   46      H      -5.5279255341    -1.1171255508    -3.1517055420
   47      H      -3.8760456376    -2.5474784092    -1.3520270368
   48      H      -3.7413676235     3.3594829310     2.1848810247
   49      H      -2.0272279606     3.0913888584     1.6603253226
   50      H       2.2502828196    -1.5261417188     3.8991601099
   51      H       3.4049012702    -2.7619505535     3.2516521668
   52      H       1.9373968153    -2.3211539895     2.3067063204
   53      H       0.3042142531    -1.3489827098     0.5487442289
   54      H       0.7401843455    -0.9551845436    -1.1652197874
   55      H      -0.7806292694     0.8440684053     0.8570006833
   56      H       0.0266404948     1.5165445921    -0.6266766672
 ----------------------------------------------------------------

   11   -1510.2750344615      2.60E-09 Convergence criterion met
 Total energy in the final basis set = -1510.27503446
 Final energy is   -1510.27503446154
 **  OPTIMIZATION CONVERGED  **

                    Orbital Energies (a.u.)
 --------------------------------------------------------------

 Alpha MOs
 -- Occupied --
-18.942 -18.940 -18.927 -18.927 -18.888 -18.883 -18.882 -18.878
-18.870 -18.869 -10.106 -10.102 -10.098 -10.096 -10.071 -10.070
-10.068 -10.060 -10.060 -10.059 -10.056 -10.056 -10.041 -10.040
-10.037 -10.035 -10.021 -10.020 -10.020 -10.018  -1.019  -1.017
 -1.005  -1.004  -0.971  -0.968  -0.943  -0.940  -0.932  -0.930
 -0.765  -0.762  -0.727  -0.723  -0.710  -0.703  -0.696  -0.667
 -0.658  -0.620  -0.598  -0.585  -0.547  -0.543  -0.538  -0.536
 -0.512  -0.508  -0.488  -0.476  -0.464  -0.457  -0.453  -0.448
 -0.433  -0.431  -0.429  -0.416  -0.414  -0.408  -0.406  -0.398
 -0.392  -0.380  -0.378  -0.369  -0.362  -0.358  -0.354  -0.350
 -0.343  -0.337  -0.336  -0.331  -0.330  -0.328  -0.326  -0.313
 -0.310  -0.306  -0.305  -0.300  -0.293  -0.292  -0.285  -0.274
 -0.271  -0.257  -0.254  -0.249  -0.242  -0.234  -0.232  -0.191
 -0.182  -0.170  -0.165  -0.161  -0.156  -0.150  -0.147  -0.143
 -0.142

          Ground-State Mulliken Net Atomic Charges

     Atom                 Charge (a.u.)
  ----------------------------------------
      1 O                    -0.210136
      2 C                     0.213630
      3 C                    -0.078771
      4 C                    -0.078698
      5 C                     0.215505
      6 O                    -0.172598
      7 C                    -0.050577
      8 C                    -0.051284
      9 O                    -0.168833
     10 C                     0.210150
     11 C                    -0.075929
     12 C                    -0.081014
     13 C                     0.213310
     14 O                    -0.215632
     15 O                    -0.170698
     16 O                    -0.167949
     17 O                    -0.212520
     18 C                    -0.126874
     19 C                     0.023325
     20 C                    -0.145832
     21 C                    -0.141993
     22 C                     0.022355
     23 O                    -0.191129
     24 H                     0.085259
     25 H                     0.084066
     26 H                     0.090482
     27 H                     0.078372
     28 H                     0.072492
     29 H                     0.077998
     30 H                     0.072618
     31 H                     0.089794
     32 O                    -0.217719
     33 C                    -0.129167
     34 C                     0.024790
     35 C                    -0.142934
     36 C                    -0.144878
     37 C                     0.025561
     38 O                    -0.186562
     39 H                     0.085811
     40 H                     0.087511
     41 H                     0.091300
     42 H                     0.090163
     43 H                     0.078758
     44 H                     0.073386
     45 H                     0.078401
     46 H                     0.073887
     47 H                     0.083153
     48 H                     0.094273
     49 H                     0.090392
     50 H                     0.088962
     51 H                     0.088369
     52 H                     0.086777
     53 H                     0.093299
     54 H                     0.094338
     55 H                     0.090798
     56 H                     0.092442
  ----------------------------------------
  Sum of atomic charges =    -0.000000

                    Cartesian Multipole Moments
 -----------------------------------------------------------------
    Charge (ESU x 10^10)
                -0.0000
    Dipole Moment (Debye)
         X       0.2213      Y       2.4682      Z       0.2924
       Tot       2.4953
    Quadrupole Moments (Debye-Ang)
        XX    -151.1663     XY       5.8546     YY    -158.5201
        XZ      19.0870     YZ       2.6082     ZZ    -161.9000

 Total job time:  72.02s(wall), 3426.41s(cpu)
        *  Thank you very much for using Q-Chem.  Have a nice day.  *
