 Q-Chem 5.0, Q-Chem, Inc., Pleasanton, CA (2017)
 Q-Chem 5.0.1 for Intel X86 EM64T Linux

User input:
--------------------------------------------------------------
$molecule
0  1
O -2.7286297064 1.0749461599 1.7860388813
C -3.2676263921 1.3807230826 0.7004270526
C -4.5225585015 0.7159820719 0.0334642766
C -4.1873393458 -0.5736856571 -0.8369383708
C -2.6857913499 -1.0158293652 -0.7008169722
O -1.8737434405 0.0351355126 -1.2386610178
C -0.4624501695 -0.0596313007 -0.7782374595
C 0.2617413662 -1.2939085937 -1.4429393531
O 1.7113231175 -1.521301744 -1.1892340193
C 2.3365004369 -0.7292094772 -0.1779217782
C 3.8699548672 -1.0444222045 -0.2582804068
C 4.7690731731 0.2502949163 -0.4823785447
C 3.9691018127 1.5865605857 -0.2840589927
O 3.7130148135 2.1790071102 0.7845546847
O -2.8608932603 2.4916697126 -0.1094609255
O 3.4536393261 1.9876846631 -1.5638203692
O 1.7720688212 0.0545831595 0.6143042967
C 2.5620341135 3.1585293262 -1.3988050248
C 4.4856806754 -1.6110649804 1.0972875214
C 5.8227005083 -2.3651993575 0.7292180675
C 6.7593314533 -1.1507644778 0.3744171502
C 5.8139979868 0.0745641678 0.696540858
O 4.9646272902 -0.4081591985 1.8105687831
H 4.0156359548 -1.7605629497 -1.0855002621
H 5.2340867181 0.245231729 -1.4839247179
H 3.7746757005 -2.1803251037 1.726929815
H 6.1992768483 -2.9183285489 1.6044743571
H 5.6938646295 -3.0700182013 -0.1075258812
H 7.6543440215 -1.1288155749 1.0156947624
H 7.0798421379 -1.1559759273 -0.6797717276
H 6.3307427388 1.0091891855 0.9879710488
O -2.2496361933 -2.0649896017 -0.1800389371
C -1.6972374742 3.1670174733 0.5110919029
C -5.5246917169 0.0979624455 1.099207642
C -6.9255973643 -0.0891164884 0.3957759041
C -6.6319583029 -1.3239117183 -0.5365838343
C -5.1329669662 -1.6458357595 -0.157564901
O -5.0447422363 -1.2906784822 1.2787537093
H -5.0148189963 1.4810431465 -0.5923430055
H -4.4216450168 -0.4039506664 -1.9036520623
H -0.8316234411 2.4825670243 0.6178633305
H -5.544259242 0.6279364915 2.0709647147
H -7.7000796693 -0.3252492297 1.1428540051
H -7.2361583021 0.8069295301 -0.16483174
H -7.2835639505 -2.1783592547 -0.2946295554
H -6.7460993154 -1.085540132 -1.6063266755
H -4.8093204499 -2.693000245 -0.3146076131
H -1.9473831253 3.5710329078 1.5133505324
H -1.4309322099 3.9987249004 -0.1666929088
H 2.1805548599 3.3985684124 -2.4083955787
H 3.1044167532 4.0352821623 -0.9896945952
H 1.712050231 2.9278810713 -0.7237280312
H -0.2863547375 -2.2006403701 -1.103077957
H 0.1582344956 -1.216374352 -2.5464796438
H -0.4234256262 -0.1370723287 0.3270595331
H 0.0036679729 0.8944396341 -1.0935494198
$end

$rem
JOBTYPE                   OPT
METHOD                    B3LYP
DFT_D                     d3_op
BASIS                     STO-3G
GEOM_OPT_MAX_CYCLES       100
GEOM_OPT_TOL_GRADIENT     300
GEOM_OPT_TOL_DISPLACEMENT 1200
GEOM_OPT_TOL_ENERGY       100
SYMMETRY                  False
THRESH                    12
SCF_CONVERGENCE           8
MAX_SUB_FILE_NUM          128
MEM_STATIC                400
MEM_TOTAL                 4000
$end
--------------------------------------------------------------

   15   -1510.2717544538      9.96E-09 Convergence criterion met
 Total energy in the final basis set = -1510.27175445
   14   -1510.2737881197      5.52E-09 Convergence criterion met
 Total energy in the final basis set = -1510.27378812
   14   -1510.2756359833      8.35E-09 Convergence criterion met
 Total energy in the final basis set = -1510.27563598
   14   -1510.2775316734      8.26E-09 Convergence criterion met
 Total energy in the final basis set = -1510.27753167
   14   -1510.2790498620      2.79E-09 Convergence criterion met
 Total energy in the final basis set = -1510.27904986
   13   -1510.2805828992      4.99E-09 Convergence criterion met
 Total energy in the final basis set = -1510.28058290
   13   -1510.2823442903      9.83E-09 Convergence criterion met
 Total energy in the final basis set = -1510.28234429
   14   -1510.2841883453      4.66E-09 Convergence criterion met
   13   -1510.2931059926      5.39E-09 Convergence criterion met
 Total energy in the final basis set = -1510.29310599
   12   -1510.2932566927      5.05E-09 Convergence criterion met
 Total energy in the final basis set = -1510.29325669
   11   -1510.2932448548      9.26E-09 Convergence criterion met
 Total energy in the final basis set = -1510.29324485
   11   -1510.2932683315      5.45E-09 Convergence criterion met
 Total energy in the final basis set = -1510.29326833
   10   -1510.2932641871      7.89E-09 Convergence criterion met
 Total energy in the final basis set = -1510.29326419
    9   -1510.2932690786      7.11E-09 Convergence criterion met
 Total energy in the final basis set = -1510.29326908

             Standard Nuclear Orientation (Angstroms)
    I     Atom           X                Y                Z
 ----------------------------------------------------------------
    1      O      -1.8061197707     2.3056867924    -0.2454543425
    2      C      -2.8011810233     1.9241516374    -0.9050510830
    3      C      -3.9752329562     0.9914953493    -0.4471965840
    4      C      -3.5883557069    -0.5437346722    -0.3226933296
    5      C      -2.0680824930    -0.8418512683    -0.5750453009
    6      O      -1.6656334204    -0.1787828015    -1.7781990147
    7      C      -0.1892297401    -0.1897012622    -1.9309271038
    8      C       0.4305144559    -1.6006503623    -2.2655999481
    9      O       1.9011668649    -1.4314006479    -2.1864960929
   10      C       2.3291312807    -1.6219388550    -0.8243329517
   11      C       3.7223420233    -0.9433147088    -0.6519186635
   12      C       3.7177196604     0.1259816275     0.5246507996
   13      C       2.3962035461     0.1678794667     1.3841000709
   14      O       2.2956307146    -0.1606704525     2.5850692177
   15      O      -3.0913397661     2.3856217999    -2.2269058292
   16      O       1.3128188686     0.7222031698     0.6196303243
   17      O       1.6529969958    -2.1992173063     0.0541464103
   18      C       0.1033474427     0.8305793220     1.4813442349
   19      C       4.8559633238    -1.9393425835    -0.1458509885
   20      C       6.2543927794    -1.2604402649    -0.4242870498
   21      C       6.2736184451    -0.1469402673     0.6892075384
   22      C       4.9020460142    -0.4215092867     1.4219702891
   23      O       4.7369248197    -1.8910756266     1.3265437498
   24      H       3.9966075749    -0.4770304693    -1.6140286475
   25      H       3.9172200676     1.1394196182     0.1310448516
   26      H       4.7518101911    -2.9794831502    -0.5111279551
   27      H       7.0686953940    -1.9882018715    -0.2801342093
   28      H       6.3238967691    -0.8484501141    -1.4436543634
   29      H       7.1176969778    -0.2844981541     1.3831958639
   30      H       6.3217064904     0.8710893446     0.2707643585
   31      H       4.8446117054    -0.0998806701     2.4797078913
   32      O      -1.3168100414    -1.5301816324     0.1483020350
   33      C      -2.0056806356     3.2723442842    -2.7053956867
   34      C      -4.4232938567     1.2992762722     1.0481032158
   35      C      -5.8557451957     0.6725326311     1.2720971330
   36      C      -5.5044973908    -0.8594101834     1.3654783873
   37      C      -3.9364228988    -0.8240384323     1.1959120794
   38      O      -3.5360050070     0.4386353174     1.8612754985
   39      H      -4.8063204065     1.1291686802    -1.1606777423
   40      H      -4.1950618048    -1.1586713232    -1.0131326008
   41      H      -1.0395421342     2.7319846831    -2.7676743195
   42      H      -4.3162019018     2.3591169665     1.3501770855
   43      H      -6.2930555519     1.0441189419     2.2124256115
   44      H      -6.5458592077     0.9032973531     0.4449822417
   45      H      -5.7770354268    -1.2778476276     2.3472413075
   46      H      -5.9925706098    -1.4565149735     0.5786029527
   47      H      -3.3798365922    -1.6797360107     1.6255833239
   48      H      -1.8745593743     4.1523983665    -2.0432883926
   49      H      -2.3083447009     3.6075055749    -3.7144307131
   50      H      -0.6467759325     1.4147810607     0.8999393642
   51      H       0.3409392819     1.3432111030     2.4332432630
   52      H      -0.3034151464    -0.1765050797     1.7042572365
   53      H       0.0868258264    -2.3431607671    -1.5147312339
   54      H       0.1828895166    -1.9315381225    -3.2931136409
   55      H       0.3147955068     0.1880516581    -1.0060992226
   56      H       0.0139848331     0.5122641827    -2.7636328588
 ----------------------------------------------------------------

    9   -1510.2932694975      3.98E-09 Convergence criterion met
 Total energy in the final basis set = -1510.29326950
 Final energy is   -1510.29326949745
 **  OPTIMIZATION CONVERGED  **

                    Orbital Energies (a.u.)
 --------------------------------------------------------------

 Alpha MOs
 -- Occupied --
-18.941 -18.940 -18.925 -18.920 -18.890 -18.885 -18.883 -18.880
-18.876 -18.865 -10.108 -10.105 -10.095 -10.088 -10.068 -10.063
-10.063 -10.062 -10.060 -10.057 -10.052 -10.042 -10.041 -10.034
-10.032 -10.026 -10.023 -10.021 -10.017 -10.016  -1.021  -1.013
 -1.007  -0.996  -0.973  -0.965  -0.944  -0.940  -0.933  -0.922
 -0.767  -0.758  -0.728  -0.720  -0.710  -0.704  -0.692  -0.668
 -0.641  -0.617  -0.597  -0.581  -0.548  -0.541  -0.539  -0.532
 -0.514  -0.504  -0.485  -0.473  -0.462  -0.454  -0.453  -0.445
 -0.435  -0.432  -0.426  -0.419  -0.413  -0.407  -0.396  -0.390
 -0.384  -0.380  -0.377  -0.367  -0.360  -0.356  -0.351  -0.348
 -0.345  -0.337  -0.333  -0.329  -0.328  -0.324  -0.319  -0.312
 -0.307  -0.305  -0.300  -0.299  -0.295  -0.286  -0.276  -0.274
 -0.271  -0.258  -0.256  -0.244  -0.237  -0.237  -0.229  -0.190
 -0.182  -0.165  -0.164  -0.162  -0.154  -0.151  -0.147  -0.141
 -0.139

          Ground-State Mulliken Net Atomic Charges

     Atom                 Charge (a.u.)
  ----------------------------------------
      1 O                    -0.220612
      2 C                     0.219696
      3 C                    -0.079996
      4 C                    -0.078630
      5 C                     0.213084
      6 O                    -0.174463
      7 C                    -0.061645
      8 C                    -0.058909
      9 O                    -0.176469
     10 C                     0.208078
     11 C                    -0.080771
     12 C                    -0.078791
     13 C                     0.211661
     14 O                    -0.205314
     15 O                    -0.165273
     16 O                    -0.180796
     17 O                    -0.199738
     18 C                    -0.149759
     19 C                     0.026047
     20 C                    -0.143384
     21 C                    -0.144870
     22 C                     0.025499
     23 O                    -0.185160
     24 H                     0.084847
     25 H                     0.082849
     26 H                     0.083200
     27 H                     0.077639
     28 H                     0.072765
     29 H                     0.077878
     30 H                     0.072377
     31 H                     0.090610
     32 O                    -0.201486
     33 C                    -0.127642
     34 C                     0.025121
     35 C                    -0.143596
     36 C                    -0.144237
     37 C                     0.023808
     38 O                    -0.187901
     39 H                     0.087382
     40 H                     0.086266
     41 H                     0.088725
     42 H                     0.084113
     43 H                     0.079013
     44 H                     0.073747
     45 H                     0.079668
     46 H                     0.073592
     47 H                     0.093010
     48 H                     0.090312
     49 H                     0.091057
     50 H                     0.110328
     51 H                     0.082538
     52 H                     0.093069
     53 H                     0.106378
     54 H                     0.084552
     55 H                     0.108536
     56 H                     0.081995
  ----------------------------------------
  Sum of atomic charges =    -0.000000

                    Cartesian Multipole Moments
 -----------------------------------------------------------------
    Charge (ESU x 10^10)
                 0.0000
    Dipole Moment (Debye)
         X      -1.7901      Y       2.1457      Z      -3.9242
       Tot       4.8174
    Quadrupole Moments (Debye-Ang)
        XX    -135.3006     XY       4.8578     YY    -158.5804
        XZ      -5.5830     YZ       2.9146     ZZ    -164.2253

 Total job time:  104.98s(wall), 4701.60s(cpu)
        *  Thank you very much for using Q-Chem.  Have a nice day.  *
