 Q-Chem 5.0, Q-Chem, Inc., Pleasanton, CA (2017)
 Q-Chem 5.0.1 for Intel X86 EM64T Linux

User input:
--------------------------------------------------------------
$molecule
0  1
O -3.94934 -3.66094 2.70899
C -3.26408 -4.56952 2.26188
C -3.36658 -6.02376 2.66595
C -2.58262 -6.46334 3.91336
C -1.92684 -5.36435 4.71975
O -0.967 -4.74755 3.96896
C -0.59687 -3.46062 4.47499
C 0.18759 -3.61237 5.77411
O 0.63766 -2.32589 6.22718
C 0.12001 -1.26095 5.56604
C 0.75618 0.04796 5.9694
C 1.36918 0.85289 4.81415
C 0.95473 0.4279 3.41975
O -0.07079 0.77111 2.8496
O -2.39478 -4.29302 1.25457
O 1.81595 -0.39984 2.7725
O -1.06588 -1.11684 5.30595
C 1.62987 -0.85894 1.48535
C -0.17849 1.11098 6.5903
C 0.64379 2.07418 7.45033
C 1.38665 2.84535 6.37844
C 0.76244 2.23681 5.11785
O -0.55383 1.92295 5.50646
H 1.53128 -0.19229 6.73423
H 2.48179 0.86734 4.8401
H -1.00411 0.67054 7.19094
H -0.06972 2.76363 7.95472
H 1.28868 1.59268 8.21759
H 1.11404 3.9202 6.46732
H 2.49268 2.73127 6.3883
H 0.86386 2.93633 4.25884
O -2.32641 -4.99528 5.81875
C -2.18718 -3.03239 0.73477
C -4.79721 -6.42153 3.07815
C -4.9812 -7.93427 2.93619
C -4.16866 -8.4291 4.11302
C -3.73108 -7.09804 4.72696
O -4.81471 -6.23778 4.4718
H -3.07231 -6.62099 1.77303
H -1.7916 -7.2127 3.68728
H -1.81507 -2.34884 1.52783
H -5.58136 -5.88466 2.50067
H -6.05312 -8.16796 3.12563
H -4.68283 -8.34668 1.94838
H -4.85216 -8.95573 4.81638
H -3.30757 -9.08499 3.86055
H -3.4668 -7.24952 5.79706
H -3.13283 -2.63358 0.30886
H -1.42882 -3.09121 -0.07249
H 2.46899 -1.53135 1.21351
H 1.6119 -0.0041 0.77575
H 0.67792 -1.42705 1.41319
H -0.35602 -4.09878 6.60373
H 1.08587 -4.22785 5.55453
H -1.58482 -2.96689 4.51228
H 0.04373 -2.98362 3.69916
$end

$opt
CONSTRAINT
tors           1           2           3           4     -85.025
tors           3           4           5           6     -64.062
tors           4           5           6           7    +161.508
tors           5           6           7           8     +70.558
tors           6           7           8           9    +175.933
tors           7           8           9          10      +9.877
tors           8           9          10          11    -172.870
tors           9          10          11          12    +123.566
tors          11          12          13          14     +82.977
ENDCONSTRAINT
$end

$rem
JOBTYPE                   OPT
METHOD                    B3LYP
DFT_D                     d3_op
BASIS                     STO-3G
GEOM_OPT_MAX_CYCLES       100
GEOM_OPT_TOL_GRADIENT     300
GEOM_OPT_TOL_DISPLACEMENT 1200
GEOM_OPT_TOL_ENERGY       100
SYMMETRY                  False
THRESH                    12
SCF_CONVERGENCE           8
MAX_SUB_FILE_NUM          128
MEM_STATIC                400
MEM_TOTAL                 4000
$end
--------------------------------------------------------------

   15   -1510.1101128373      9.07E-09 Convergence criterion met
 Total energy in the final basis set = -1510.11011284
   14   -1510.1862579541      9.22E-09 Convergence criterion met
 Total energy in the final basis set = -1510.18625795
   14   -1510.2278593817      7.87E-09 Convergence criterion met
 Total energy in the final basis set = -1510.22785938
   15   -1510.2525342209      1.75E-09 Convergence criterion met
 Total energy in the final basis set = -1510.25253422
   14   -1510.2633235661      3.39E-09 Convergence criterion met
 Total energy in the final basis set = -1510.26332357
   14   -1510.2683382053      2.70E-09 Convergence criterion met
 Total energy in the final basis set = -1510.26833821
   14   -1510.2706708867      2.10E-09 Convergence criterion met
 Total energy in the final basis set = -1510.27067089
   13   -1510.2714389956      7.72E-09 Convergence criterion met
 Total energy in the final basis set = -1510.27143900
   12   -1510.2716683267      7.30E-09 Convergence criterion met
 Total energy in the final basis set = -1510.27166833
   12   -1510.2717502785      4.73E-09 Convergence criterion met
 Total energy in the final basis set = -1510.27175028
   11   -1510.2717684275      6.07E-09 Convergence criterion met
 Total energy in the final basis set = -1510.27176843
   11   -1510.2717742748      3.32E-09 Convergence criterion met
 Total energy in the final basis set = -1510.27177427
   11   -1510.2717792223      2.71E-09 Convergence criterion met
 Total energy in the final basis set = -1510.27177922

             Standard Nuclear Orientation (Angstroms)
    I     Atom           X                Y                Z
 ----------------------------------------------------------------
    1      O      -2.7286297064     1.0749461599     1.7860388813
    2      C      -3.2676263921     1.3807230826     0.7004270526
    3      C      -4.5225585015     0.7159820719     0.0334642766
    4      C      -4.1873393458    -0.5736856571    -0.8369383708
    5      C      -2.6857913499    -1.0158293652    -0.7008169722
    6      O      -1.8737434405     0.0351355126    -1.2386610178
    7      C      -0.4624501695    -0.0596313007    -0.7782374595
    8      C       0.2617413662    -1.2939085937    -1.4429393531
    9      O       1.7113231175    -1.5213017440    -1.1892340193
   10      C       2.3365004369    -0.7292094772    -0.1779217782
   11      C       3.8699548672    -1.0444222045    -0.2582804068
   12      C       4.7690731731     0.2502949163    -0.4823785447
   13      C       3.9691018127     1.5865605857    -0.2840589927
   14      O       3.7130148135     2.1790071102     0.7845546847
   15      O      -2.8608932603     2.4916697126    -0.1094609255
   16      O       3.4536393261     1.9876846631    -1.5638203692
   17      O       1.7720688212     0.0545831595     0.6143042967
   18      C       2.5620341135     3.1585293262    -1.3988050248
   19      C       4.4856806754    -1.6110649804     1.0972875214
   20      C       5.8227005083    -2.3651993575     0.7292180675
   21      C       6.7593314533    -1.1507644778     0.3744171502
   22      C       5.8139979868     0.0745641678     0.6965408580
   23      O       4.9646272902    -0.4081591985     1.8105687831
   24      H       4.0156359548    -1.7605629497    -1.0855002621
   25      H       5.2340867181     0.2452317290    -1.4839247179
   26      H       3.7746757005    -2.1803251037     1.7269298150
   27      H       6.1992768483    -2.9183285489     1.6044743571
   28      H       5.6938646295    -3.0700182013    -0.1075258812
   29      H       7.6543440215    -1.1288155749     1.0156947624
   30      H       7.0798421379    -1.1559759273    -0.6797717276
   31      H       6.3307427388     1.0091891855     0.9879710488
   32      O      -2.2496361933    -2.0649896017    -0.1800389371
   33      C      -1.6972374742     3.1670174733     0.5110919029
   34      C      -5.5246917169     0.0979624455     1.0992076420
   35      C      -6.9255973643    -0.0891164884     0.3957759041
   36      C      -6.6319583029    -1.3239117183    -0.5365838343
   37      C      -5.1329669662    -1.6458357595    -0.1575649010
   38      O      -5.0447422363    -1.2906784822     1.2787537093
   39      H      -5.0148189963     1.4810431465    -0.5923430055
   40      H      -4.4216450168    -0.4039506664    -1.9036520623
   41      H      -0.8316234411     2.4825670243     0.6178633305
   42      H      -5.5442592420     0.6279364915     2.0709647147
   43      H      -7.7000796693    -0.3252492297     1.1428540051
   44      H      -7.2361583021     0.8069295301    -0.1648317400
   45      H      -7.2835639505    -2.1783592547    -0.2946295554
   46      H      -6.7460993154    -1.0855401320    -1.6063266755
   47      H      -4.8093204499    -2.6930002450    -0.3146076131
   48      H      -1.9473831253     3.5710329078     1.5133505324
   49      H      -1.4309322099     3.9987249004    -0.1666929088
   50      H       2.1805548599     3.3985684124    -2.4083955787
   51      H       3.1044167532     4.0352821623    -0.9896945952
   52      H       1.7120502310     2.9278810713    -0.7237280312
   53      H      -0.2863547375    -2.2006403701    -1.1030779570
   54      H       0.1582344956    -1.2163743520    -2.5464796438
   55      H      -0.4234256262    -0.1370723287     0.3270595331
   56      H       0.0036679729     0.8944396341    -1.0935494198
 ----------------------------------------------------------------

    9   -1510.2717801308      8.28E-09 Convergence criterion met
 Total energy in the final basis set = -1510.27178013
 Final energy is   -1510.27178013080
 **  OPTIMIZATION CONVERGED  **

                    Orbital Energies (a.u.)
 --------------------------------------------------------------

 Alpha MOs
 -- Occupied --
-18.937 -18.936 -18.931 -18.930 -18.887 -18.886 -18.886 -18.877
-18.875 -18.871 -10.106 -10.104 -10.096 -10.095 -10.074 -10.070
-10.064 -10.061 -10.060 -10.059 -10.058 -10.058 -10.040 -10.038
-10.036 -10.036 -10.020 -10.020 -10.019 -10.019  -1.018  -1.012
 -1.006  -1.006  -0.969  -0.969  -0.944  -0.940  -0.932  -0.932
 -0.764  -0.762  -0.728  -0.722  -0.712  -0.705  -0.696  -0.663
 -0.661  -0.623  -0.596  -0.587  -0.548  -0.546  -0.538  -0.536
 -0.511  -0.510  -0.480  -0.471  -0.462  -0.457  -0.451  -0.450
 -0.441  -0.430  -0.430  -0.414  -0.412  -0.410  -0.408  -0.392
 -0.387  -0.381  -0.374  -0.367  -0.363  -0.358  -0.355  -0.350
 -0.347  -0.340  -0.337  -0.332  -0.331  -0.330  -0.328  -0.311
 -0.308  -0.306  -0.305  -0.302  -0.296  -0.285  -0.281  -0.278
 -0.274  -0.266  -0.253  -0.251  -0.238  -0.233  -0.233  -0.186
 -0.178  -0.175  -0.172  -0.158  -0.155  -0.148  -0.145  -0.143
 -0.142

          Ground-State Mulliken Net Atomic Charges

     Atom                 Charge (a.u.)
  ----------------------------------------
      1 O                    -0.212605
      2 C                     0.206287
      3 C                    -0.079347
      4 C                    -0.077134
      5 C                     0.211779
      6 O                    -0.174400
      7 C                    -0.051509
      8 C                    -0.059972
      9 O                    -0.170275
     10 C                     0.208574
     11 C                    -0.079371
     12 C                    -0.078561
     13 C                     0.207490
     14 O                    -0.201084
     15 O                    -0.168313
     16 O                    -0.174633
     17 O                    -0.211462
     18 C                    -0.129746
     19 C                     0.026247
     20 C                    -0.142745
     21 C                    -0.145024
     22 C                     0.026276
     23 O                    -0.182899
     24 H                     0.086895
     25 H                     0.085392
     26 H                     0.085535
     27 H                     0.078627
     28 H                     0.074014
     29 H                     0.078248
     30 H                     0.073102
     31 H                     0.085324
     32 O                    -0.205262
     33 C                    -0.129693
     34 C                     0.025273
     35 C                    -0.143437
     36 C                    -0.144579
     37 C                     0.024417
     38 O                    -0.185934
     39 H                     0.085750
     40 H                     0.085679
     41 H                     0.090500
     42 H                     0.086402
     43 H                     0.078374
     44 H                     0.073192
     45 H                     0.078435
     46 H                     0.072684
     47 H                     0.088726
     48 H                     0.089343
     49 H                     0.087862
     50 H                     0.088217
     51 H                     0.088878
     52 H                     0.087308
     53 H                     0.100631
     54 H                     0.085321
     55 H                     0.108128
     56 H                     0.089079
  ----------------------------------------
  Sum of atomic charges =    -0.000000

                    Cartesian Multipole Moments
 -----------------------------------------------------------------
    Charge (ESU x 10^10)
                 0.0000
    Dipole Moment (Debye)
         X      -0.3035      Y       0.6519      Z      -4.1590
       Tot       4.2207
    Quadrupole Moments (Debye-Ang)
        XX    -136.7107     XY      -8.1652     YY    -155.0037
        XZ      -0.5487     YZ      -0.0026     ZZ    -167.2214

 Total job time:  41.95s(wall), 1961.11s(cpu)
        *  Thank you very much for using Q-Chem.  Have a nice day.  *
