 Q-Chem 5.0, Q-Chem, Inc., Pleasanton, CA (2017)
 Q-Chem 5.0.1 for Intel X86 EM64T Linux

User input:
--------------------------------------------------------------
$molecule
0  1
O -3.94934 -3.66094 2.70899
C -3.26408 -4.56952 2.26188
C -3.36658 -6.02376 2.66595
C -2.12836 -6.66087 3.31767
C -0.98754 -5.72649 3.65466
O -0.21205 -5.52335 2.54888
C 0.6159 -4.35974 2.64775
C 1.79666 -4.47177 1.68892
O 2.62223 -3.30085 1.79028
C 3.44149 -3.25671 2.8701
C 4.20944 -1.96046 2.97339
C 3.50921 -0.74211 2.35406
C 2.03338 -0.91025 2.05345
O 1.47966 -1.96791 1.79016
O -2.38175 -4.28837 1.2676
O 1.32695 0.23695 1.86378
O 3.73291 -4.24189 3.5376
C -0.00981 0.28181 1.52624
C 4.36195 -1.48909 4.43643
C 5.57215 -0.56518 4.55061
C 5.06156 0.65271 3.81277
C 3.61072 0.22544 3.55662
O 3.29351 -0.60452 4.64419
H 5.22771 -2.15286 2.56716
H 4.00524 -0.33115 1.44811
H 4.45235 -2.32185 5.16768
H 5.67959 -0.30919 5.62941
H 6.53395 -0.97755 4.17678
H 5.10849 1.52444 4.5027
H 5.58565 0.88784 2.86107
H 2.97475 1.13021 3.44327
O -0.7406 -5.29286 4.77504
C -2.21783 -3.03962 0.70379
C -4.42179 -6.24735 3.76817
C -4.88307 -7.70475 3.76862
C -3.67 -8.38074 4.36554
C -2.77695 -7.16513 4.62882
O -3.68783 -6.14705 4.96044
H -3.67298 -6.57115 1.74672
H -1.70917 -7.53026 2.76275
H -1.91651 -2.30367 1.47873
H -5.30485 -5.57777 3.67703
H -5.72853 -7.79726 4.48738
H -5.19965 -8.08571 2.77379
H -3.96623 -8.84007 5.33524
H -3.18238 -9.14352 3.7209
H -2.02459 -7.41921 5.40818
H -3.16452 -2.70927 0.22571
H -1.42386 -3.09061 -0.06926
H -0.3273 1.34083 1.43703
H -0.61835 -0.20872 2.31576
H -0.17766 -0.22592 0.55231
H 2.38151 -5.40633 1.84431
H 1.38013 -4.51493 0.6601
H 1.0732 -4.28258 3.65945
H -0.03354 -3.47816 2.4946
$end

$opt
CONSTRAINT
tors           1           2           3           4    -117.934
tors           3           4           5           6     -83.245
tors           4           5           6           7    +161.508
tors           5           6           7           8    +158.333
tors           6           7           8           9    +179.884
tors           7           8           9          10     +77.634
tors           8           9          10          11    -175.881
tors           9          10          11          12     +28.353
tors          11          12          13          14     -28.269
ENDCONSTRAINT
$end

$rem
JOBTYPE                   OPT
METHOD                    B3LYP
DFT_D                     d3_op
BASIS                     STO-3G
GEOM_OPT_MAX_CYCLES       100
GEOM_OPT_TOL_GRADIENT     300
GEOM_OPT_TOL_DISPLACEMENT 1200
GEOM_OPT_TOL_ENERGY       100
SYMMETRY                  False
THRESH                    12
SCF_CONVERGENCE           8
MAX_SUB_FILE_NUM          128
MEM_STATIC                400
MEM_TOTAL                 4000
$end
--------------------------------------------------------------

   16   -1510.0571194197      4.85E-09 Convergence criterion met
 Total energy in the final basis set = -1510.05711942
   14   -1510.1438605458      7.47E-09 Convergence criterion met
 Total energy in the final basis set = -1510.14386055
   14   -1510.2008441418      7.32E-09 Convergence criterion met
 Total energy in the final basis set = -1510.20084414
   14   -1510.2345468480      5.22E-09 Convergence criterion met
 Total energy in the final basis set = -1510.23454685
   14   -1510.2523971395      3.75E-09 Convergence criterion met
 Total energy in the final basis set = -1510.25239714
   13   -1510.2614532712      9.36E-09 Convergence criterion met
 Total energy in the final basis set = -1510.26145327
   13   -1510.2660753419      9.55E-09 Convergence criterion met
 Total energy in the final basis set = -1510.26607534
   13   -1510.2679430428      3.58E-09 Convergence criterion met
   12   -1510.2705125432      2.40E-09 Convergence criterion met
 Total energy in the final basis set = -1510.27051254
   11   -1510.2705300299      7.74E-09 Convergence criterion met
 Total energy in the final basis set = -1510.27053003
   12   -1510.2705368679      2.71E-09 Convergence criterion met
 Total energy in the final basis set = -1510.27053687
   12   -1510.2705404663      2.84E-09 Convergence criterion met
 Total energy in the final basis set = -1510.27054047
   11   -1510.2705451364      2.83E-09 Convergence criterion met
 Total energy in the final basis set = -1510.27054514
   11   -1510.2705488095      3.90E-09 Convergence criterion met
 Total energy in the final basis set = -1510.27054881

             Standard Nuclear Orientation (Angstroms)
    I     Atom           X                Y                Z
 ----------------------------------------------------------------
    1      O      -4.0731321682     2.4046185212     1.0328756051
    2      C      -3.7129241337     1.6169229318     0.1318317964
    3      C      -4.5745427583     0.4566632438    -0.4959020737
    4      C      -3.9898202400    -1.0083482752    -0.2919697740
    5      C      -2.4777477639    -1.0626171906     0.1111501565
    6      O      -1.7107790989    -0.9601159167    -1.0973455332
    7      C      -0.3175157617    -0.5617357600    -0.7902287688
    8      C       0.5900991085    -0.9922251094    -1.9932722763
    9      O       1.9951578809    -0.6048815845    -1.7193451540
   10      C       2.6088957526    -1.5118534671    -0.8061907316
   11      C       4.0537595611    -1.0112332570    -0.4614945183
   12      C       4.4033142719     0.5324105723    -0.5090248172
   13      C       3.2363348459     1.5470202078    -0.1559535042
   14      O       1.9985557944     1.4473974065    -0.2813442375
   15      O      -2.4273870426     1.6712777503    -0.4962231374
   16      O       3.8597069272     2.7584907420     0.3023853275
   17      O       2.0717953647    -2.5528723578    -0.3673936235
   18      C       2.8248663944     3.7691107684     0.6156491423
   19      C       4.5928588675    -1.4276064719     0.9762917633
   20      C       6.1227364409    -1.7608938694     0.8022301286
   21      C       6.6817462297    -0.3282830542     0.4609189970
   22      C       5.4135324330     0.5799583835     0.7215453248
   23      O       4.6311470280    -0.1611655279     1.7442518720
   24      H       4.6986514725    -1.5011462829    -1.2176156761
   25      H       4.8573321072     0.8265849730    -1.4728603871
   26      H       3.9783111269    -2.1911466480     1.4921799628
   27      H       6.5425120376    -2.1410811966     1.7475640228
   28      H       6.3097687162    -2.4989930479     0.0060377980
   29      H       7.5069258421    -0.0413246053     1.1313756789
   30      H       7.0328173089    -0.2494525948    -0.5808226431
   31      H       5.6263384832     1.6089013223     1.0678968310
   32      O      -1.9925620460    -1.1282017426     1.2607913117
   33      C      -1.6205179722     2.7562007298     0.1144112006
   34      C      -5.9115918957     0.3387260826     0.3458957673
   35      C      -6.9071203697    -0.6619226562    -0.3647672542
   36      C      -6.2910315760    -2.0543148879     0.0371651286
   37      C      -4.9884805503    -1.5895855264     0.7971101357
   38      O      -5.4515131826    -0.3997752083     1.5471950731
   39      H      -4.7449928182     0.6696996232    -1.5670953422
   40      H      -4.0858861220    -1.5651595394    -1.2420355963
   41      H      -1.4658928458     2.5832273986     1.1988386988
   42      H      -6.3384022235     1.3172512595     0.6392907026
   43      H      -7.9271826057    -0.5398401675     0.0322020582
   44      H      -6.9330014181    -0.5102447437    -1.4558277655
   45      H      -6.9573289327    -2.6058201579     0.7197837595
   46      H      -6.0664767994    -2.6925423686    -0.8324553496
   47      H      -4.5369960683    -2.3306429782     1.4847314241
   48      H      -2.1011284901     3.7464618425    -0.0204292776
   49      H      -0.6432511632     2.7415215002    -0.4031072672
   50      H       3.3717607087     4.6743093708     0.9375816909
   51      H       2.1560649185     3.4298867347     1.4331461303
   52      H       2.2024902501     4.0064658561    -0.2714148428
   53      H       0.5017138028    -2.0874276171    -2.1597151342
   54      H       0.3003578164    -0.4502966442    -2.9153088112
   55      H       0.0272634334    -1.0582972763     0.1417814807
   56      H      -0.2529086237     0.5356355517    -0.6480790881
 ----------------------------------------------------------------

    9   -1510.2705490029      6.75E-09 Convergence criterion met
 Total energy in the final basis set = -1510.27054900
 Final energy is   -1510.27054900286
 **  OPTIMIZATION CONVERGED  **

                    Orbital Energies (a.u.)
 --------------------------------------------------------------

 Alpha MOs
 -- Occupied --
-18.935 -18.934 -18.934 -18.921 -18.885 -18.881 -18.880 -18.874
-18.872 -18.871 -10.102 -10.101 -10.096 -10.094 -10.070 -10.067
-10.062 -10.058 -10.057 -10.057 -10.054 -10.054 -10.042 -10.037
-10.037 -10.033 -10.021 -10.019 -10.017 -10.016  -1.016  -1.011
 -1.010  -1.001  -0.970  -0.965  -0.940  -0.934  -0.934  -0.929
 -0.764  -0.759  -0.725  -0.721  -0.710  -0.702  -0.691  -0.663
 -0.661  -0.613  -0.597  -0.580  -0.543  -0.541  -0.537  -0.534
 -0.513  -0.505  -0.480  -0.473  -0.466  -0.456  -0.450  -0.448
 -0.436  -0.428  -0.420  -0.415  -0.413  -0.410  -0.410  -0.393
 -0.388  -0.378  -0.372  -0.368  -0.361  -0.357  -0.352  -0.347
 -0.344  -0.337  -0.335  -0.330  -0.328  -0.325  -0.319  -0.312
 -0.310  -0.306  -0.302  -0.300  -0.293  -0.285  -0.278  -0.273
 -0.270  -0.257  -0.251  -0.249  -0.241  -0.234  -0.229  -0.182
 -0.178  -0.177  -0.166  -0.155  -0.153  -0.147  -0.145  -0.144
 -0.139

          Ground-State Mulliken Net Atomic Charges

     Atom                 Charge (a.u.)
  ----------------------------------------
      1 O                    -0.208997
      2 C                     0.208807
      3 C                    -0.076566
      4 C                    -0.079705
      5 C                     0.210850
      6 O                    -0.175783
      7 C                    -0.052301
      8 C                    -0.045322
      9 O                    -0.165395
     10 C                     0.210000
     11 C                    -0.081752
     12 C                    -0.073607
     13 C                     0.214631
     14 O                    -0.211953
     15 O                    -0.170827
     16 O                    -0.173099
     17 O                    -0.216772
     18 C                    -0.128056
     19 C                     0.023221
     20 C                    -0.141127
     21 C                    -0.146487
     22 C                     0.021684
     23 O                    -0.193054
     24 H                     0.082447
     25 H                     0.086609
     26 H                     0.090771
     27 H                     0.078360
     28 H                     0.073503
     29 H                     0.078457
     30 H                     0.072650
     31 H                     0.092692
     32 O                    -0.209801
     33 C                    -0.130166
     34 C                     0.024379
     35 C                    -0.145458
     36 C                    -0.142508
     37 C                     0.023788
     38 O                    -0.187761
     39 H                     0.085158
     40 H                     0.083850
     41 H                     0.092862
     42 H                     0.089254
     43 H                     0.077842
     44 H                     0.072231
     45 H                     0.077628
     46 H                     0.072515
     47 H                     0.087393
     48 H                     0.087968
     49 H                     0.093170
     50 H                     0.090766
     51 H                     0.089880
     52 H                     0.086475
     53 H                     0.092066
     54 H                     0.090672
     55 H                     0.097325
     56 H                     0.096590
  ----------------------------------------
  Sum of atomic charges =    -0.000000

                    Cartesian Multipole Moments
 -----------------------------------------------------------------
    Charge (ESU x 10^10)
                 0.0000
    Dipole Moment (Debye)
         X       1.8966      Y       0.9544      Z      -3.6493
       Tot       4.2220
    Quadrupole Moments (Debye-Ang)
        XX    -141.8818     XY       5.7358     YY    -153.9170
        XZ       7.1820     YZ       0.9080     ZZ    -165.2435

 Total job time:  87.42s(wall), 4151.00s(cpu)
        *  Thank you very much for using Q-Chem.  Have a nice day.  *
