 Q-Chem 5.0, Q-Chem, Inc., Pleasanton, CA (2017)
 Q-Chem 5.0.1 for Intel X86 EM64T Linux

User input:
--------------------------------------------------------------
$molecule
0  1
O -4.0731321682 2.4046185212 1.0328756051
C -3.7129241337 1.6169229318 0.1318317964
C -4.5745427583 0.4566632438 -0.4959020737
C -3.98982024 -1.0083482752 -0.291969774
C -2.4777477639 -1.0626171906 0.1111501565
O -1.7107790989 -0.9601159167 -1.0973455332
C -0.3175157617 -0.56173576 -0.7902287688
C 0.5900991085 -0.9922251094 -1.9932722763
O 1.9951578809 -0.6048815845 -1.719345154
C 2.6088957526 -1.5118534671 -0.8061907316
C 4.0537595611 -1.011233257 -0.4614945183
C 4.4033142719 0.5324105723 -0.5090248172
C 3.2363348459 1.5470202078 -0.1559535042
O 1.9985557944 1.4473974065 -0.2813442375
O -2.4273870426 1.6712777503 -0.4962231374
O 3.8597069272 2.758490742 0.3023853275
O 2.0717953647 -2.5528723578 -0.3673936235
C 2.8248663944 3.7691107684 0.6156491423
C 4.5928588675 -1.4276064719 0.9762917633
C 6.1227364409 -1.7608938694 0.8022301286
C 6.6817462297 -0.3282830542 0.460918997
C 5.413532433 0.5799583835 0.7215453248
O 4.631147028 -0.1611655279 1.744251872
H 4.6986514725 -1.5011462829 -1.2176156761
H 4.8573321072 0.826584973 -1.4728603871
H 3.9783111269 -2.191146648 1.4921799628
H 6.5425120376 -2.1410811966 1.7475640228
H 6.3097687162 -2.4989930479 0.006037798
H 7.5069258421 -0.0413246053 1.1313756789
H 7.0328173089 -0.2494525948 -0.5808226431
H 5.6263384832 1.6089013223 1.067896831
O -1.992562046 -1.1282017426 1.2607913117
C -1.6205179722 2.7562007298 0.1144112006
C -5.9115918957 0.3387260826 0.3458957673
C -6.9071203697 -0.6619226562 -0.3647672542
C -6.291031576 -2.0543148879 0.0371651286
C -4.9884805503 -1.5895855264 0.7971101357
O -5.4515131826 -0.3997752083 1.5471950731
H -4.7449928182 0.6696996232 -1.5670953422
H -4.085886122 -1.5651595394 -1.2420355963
H -1.4658928458 2.5832273986 1.1988386988
H -6.3384022235 1.3172512595 0.6392907026
H -7.9271826057 -0.5398401675 0.0322020582
H -6.9330014181 -0.5102447437 -1.4558277655
H -6.9573289327 -2.6058201579 0.7197837595
H -6.0664767994 -2.6925423686 -0.8324553496
H -4.5369960683 -2.3306429782 1.4847314241
H -2.1011284901 3.7464618425 -0.0204292776
H -0.6432511632 2.7415215002 -0.4031072672
H 3.3717607087 4.6743093708 0.9375816909
H 2.1560649185 3.4298867347 1.4331461303
H 2.2024902501 4.0064658561 -0.2714148428
H 0.5017138028 -2.0874276171 -2.1597151342
H 0.3003578164 -0.4502966442 -2.9153088112
H 0.0272634334 -1.0582972763 0.1417814807
H -0.2529086237 0.5356355517 -0.6480790881
$end

$rem
JOBTYPE                   OPT
METHOD                    B3LYP
DFT_D                     d3_op
BASIS                     STO-3G
GEOM_OPT_MAX_CYCLES       100
GEOM_OPT_TOL_GRADIENT     300
GEOM_OPT_TOL_DISPLACEMENT 1200
GEOM_OPT_TOL_ENERGY       100
SYMMETRY                  False
THRESH                    12
SCF_CONVERGENCE           8
MAX_SUB_FILE_NUM          128
MEM_STATIC                400
MEM_TOTAL                 4000
$end
--------------------------------------------------------------

   16   -1510.2705335790      5.68E-09 Convergence criterion met
 Total energy in the final basis set = -1510.27053358
   13   -1510.2732308137      8.21E-09 Convergence criterion met
 Total energy in the final basis set = -1510.27323081
   13   -1510.2758689632      8.39E-09 Convergence criterion met
 Total energy in the final basis set = -1510.27586896
   14   -1510.2781612432      3.44E-09 Convergence criterion met
 Total energy in the final basis set = -1510.27816124
   14   -1510.2801892139      3.40E-09 Convergence criterion met
 Total energy in the final basis set = -1510.28018921
   13   -1510.2820252676      3.67E-09 Convergence criterion met
 Total energy in the final basis set = -1510.28202527
   12   -1510.2837351687      8.33E-09 Convergence criterion met
 Total energy in the final basis set = -1510.28373517
   13   -1510.2850552160      3.16E-09 Convergence criterion met
   12   -1510.2923108247      5.27E-09 Convergence criterion met
 Total energy in the final basis set = -1510.29231082
   12   -1510.2923457366      5.48E-09 Convergence criterion met
 Total energy in the final basis set = -1510.29234574
   12   -1510.2923748044      3.09E-09 Convergence criterion met
 Total energy in the final basis set = -1510.29237480
   11   -1510.2923830850      4.15E-09 Convergence criterion met
 Total energy in the final basis set = -1510.29238309
   11   -1510.2923944467      6.56E-09 Convergence criterion met
 Total energy in the final basis set = -1510.29239445
   11   -1510.2923964527      2.87E-09 Convergence criterion met
 Total energy in the final basis set = -1510.29239645

             Standard Nuclear Orientation (Angstroms)
    I     Atom           X                Y                Z
 ----------------------------------------------------------------
    1      O      -2.9699873075     1.7876147808     2.1328467473
    2      C      -3.0284545681     1.5439681219     0.9085120007
    3      C      -4.1876248943     0.8072829967     0.1452322677
    4      C      -3.6958405347    -0.4260524999    -0.7264651477
    5      C      -2.1397430567    -0.6078801487    -0.6993354941
    6      O      -1.6554956699    -0.4518802969    -2.0424770717
    7      C      -0.1749682550    -0.4240640423    -2.0610010939
    8      C       0.4971630830    -1.8282895622    -1.8210309906
    9      O       1.9515529005    -1.6050273620    -1.6281946825
   10      C       2.2803978250    -1.6831008898    -0.2305037726
   11      C       3.7907091755    -1.2867337568    -0.0709821352
   12      C       4.0992541999     0.2483207999    -0.3176666747
   13      C       2.8244998195     1.1187893947    -0.5642055262
   14      O       1.6694424989     0.9148500161    -0.1170498060
   15      O      -2.0271422855     1.9182477959    -0.0448203838
   16      O       3.1897251896     2.2313455219    -1.3777994524
   17      O       1.5036961339    -2.0835314590     0.6614961013
   18      C       2.0261691701     3.1205663753    -1.6086764890
   19      C       4.2801588369    -1.4638173025     1.4268683218
   20      C       5.8570164638    -1.5182266664     1.4284293299
   21      C       6.2089788285    -0.0126300111     1.1346408276
   22      C       4.7693151441     0.6349306353     1.0766847416
   23      O       3.9820029283    -0.1515618783     2.0491759778
   24      H       4.3814273837    -1.9075096880    -0.7690313164
   25      H       4.7949510239     0.4035709588    -1.1605991724
   26      H       3.7627838293    -2.2750989405     1.9747945093
   27      H       6.2305246571    -1.8344557381     2.4154349081
   28      H       6.2509481889    -2.2056457858     0.6628517198
   29      H       6.7972506071     0.4336333042     1.9521045460
   30      H       6.7608617178     0.1187905223     0.1899338779
   31      H       4.7278242045     1.7145317665     1.3202035713
   32      O      -1.4199911780    -0.8622542653     0.2899598126
   33      C      -0.8589783678     2.5278031608     0.6372295390
   34      C      -5.1561026747     0.0886973564     1.1701542323
   35      C      -6.4780103916    -0.3325389145     0.4154611099
   36      C      -5.9731717260    -1.5691484953    -0.4173754169
   37      C      -4.4515349750    -1.6190297625     0.0051088452
   38      O      -4.4728695393    -1.2021027464     1.4244752514
   39      H      -4.7183214632     1.5449169561    -0.4847425994
   40      H      -4.0137086982    -0.3252416063    -1.7786883775
   41      H       0.0510799783     1.9366171993     0.3904543105
   42      H      -5.2943414215     0.6441743717     2.1182073628
   43      H      -7.2576168144    -0.6224100794     1.1378500922
   44      H      -6.8707588363     0.4772583161    -0.2203170885
   45      H      -6.4857752321    -2.4961157578    -0.1149080703
   46      H      -6.0990658553    -1.4331738315    -1.5034672954
   47      H      -3.9630736073    -2.6069679242    -0.1011303984
   48      H      -1.0348956826     2.5308301735     1.7311201715
   49      H      -0.7419312727     3.5683322957     0.2752876118
   50      H       2.3651267365     3.8800823598    -2.3368614197
   51      H       1.7094910455     3.6224720890    -0.6721781303
   52      H       1.1614327400     2.5652025186    -2.0241544982
   53      H       0.0778692292    -2.2857742373    -0.8994197665
   54      H       0.3651583903    -2.5009417494    -2.6919690510
   55      H       0.2245574374     0.2631777207    -1.2803184931
   56      H       0.0989289387    -0.0382203926    -3.0632417954
 ----------------------------------------------------------------

    9   -1510.2923968300      6.96E-09 Convergence criterion met
 Total energy in the final basis set = -1510.29239683
 Final energy is   -1510.29239682996
 **  OPTIMIZATION CONVERGED  **

                    Orbital Energies (a.u.)
 --------------------------------------------------------------

 Alpha MOs
 -- Occupied --
-18.954 -18.922 -18.922 -18.922 -18.896 -18.891 -18.880 -18.875
-18.870 -18.863 -10.117 -10.095 -10.092 -10.088 -10.077 -10.066
-10.059 -10.056 -10.054 -10.054 -10.051 -10.045 -10.039 -10.038
-10.032 -10.029 -10.024 -10.021 -10.015 -10.014  -1.028  -1.006
 -1.003  -0.996  -0.973  -0.963  -0.952  -0.932  -0.927  -0.924
 -0.767  -0.756  -0.728  -0.718  -0.712  -0.701  -0.688  -0.675
 -0.647  -0.614  -0.596  -0.577  -0.548  -0.540  -0.538  -0.531
 -0.516  -0.502  -0.481  -0.470  -0.464  -0.458  -0.452  -0.444
 -0.436  -0.429  -0.424  -0.422  -0.420  -0.410  -0.405  -0.391
 -0.381  -0.376  -0.370  -0.368  -0.362  -0.354  -0.352  -0.350
 -0.344  -0.336  -0.334  -0.329  -0.325  -0.321  -0.319  -0.314
 -0.308  -0.305  -0.304  -0.298  -0.288  -0.283  -0.279  -0.278
 -0.266  -0.261  -0.250  -0.238  -0.237  -0.235  -0.227  -0.194
 -0.179  -0.172  -0.162  -0.155  -0.152  -0.151  -0.147  -0.139
 -0.136

          Ground-State Mulliken Net Atomic Charges

     Atom                 Charge (a.u.)
  ----------------------------------------
      1 O                    -0.209696
      2 C                     0.215081
      3 C                    -0.077788
      4 C                    -0.079691
      5 C                     0.211105
      6 O                    -0.174716
      7 C                    -0.060106
      8 C                    -0.060357
      9 O                    -0.182030
     10 C                     0.214255
     11 C                    -0.079359
     12 C                    -0.077508
     13 C                     0.220926
     14 O                    -0.209961
     15 O                    -0.176451
     16 O                    -0.163831
     17 O                    -0.199265
     18 C                    -0.129644
     19 C                     0.025374
     20 C                    -0.143717
     21 C                    -0.143735
     22 C                     0.026087
     23 O                    -0.185510
     24 H                     0.085371
     25 H                     0.088853
     26 H                     0.092914
     27 H                     0.079404
     28 H                     0.073766
     29 H                     0.079189
     30 H                     0.074032
     31 H                     0.082881
     32 O                    -0.208180
     33 C                    -0.148916
     34 C                     0.024350
     35 C                    -0.144386
     36 C                    -0.143789
     37 C                     0.025488
     38 O                    -0.185796
     39 H                     0.083287
     40 H                     0.084128
     41 H                     0.104786
     42 H                     0.090270
     43 H                     0.077502
     44 H                     0.071978
     45 H                     0.077151
     46 H                     0.072385
     47 H                     0.082845
     48 H                     0.099847
     49 H                     0.072163
     50 H                     0.094896
     51 H                     0.090765
     52 H                     0.094150
     53 H                     0.108000
     54 H                     0.080898
     55 H                     0.101311
     56 H                     0.078993
  ----------------------------------------
  Sum of atomic charges =     0.000000

                    Cartesian Multipole Moments
 -----------------------------------------------------------------
    Charge (ESU x 10^10)
                -0.0000
    Dipole Moment (Debye)
         X       2.0858      Y       1.4960      Z      -4.0817
       Tot       4.8218
    Quadrupole Moments (Debye-Ang)
        XX    -133.5419     XY      -0.3116     YY    -151.4257
        XZ       5.6905     YZ       0.7793     ZZ    -167.9694

 Total job time:  146.38s(wall), 6958.10s(cpu)
        *  Thank you very much for using Q-Chem.  Have a nice day.  *
