 Q-Chem 5.0, Q-Chem, Inc., Pleasanton, CA (2017)
 Q-Chem 5.0.1 for Intel X86 EM64T Linux

User input:
--------------------------------------------------------------
$molecule
0  1
O -3.94934 -3.66094 2.70899
C -3.26408 -4.56952 2.26188
C -3.36658 -6.02376 2.66595
C -2.33543 -6.54561 3.67998
C -1.42805 -5.51301 4.31124
O -0.28278 -5.39092 3.57716
C 0.52428 -4.27711 3.97381
C 1.684 -4.75154 4.84336
O 2.78604 -3.83737 4.73073
C 3.56177 -3.9921 3.62916
C 4.79583 -3.1219 3.65162
C 5.46311 -2.98031 5.02747
C 5.03187 -3.98441 6.07748
O 4.06314 -4.72545 5.99401
O -2.22862 -4.26351 1.43746
O 5.7445 -3.97819 7.23532
O 3.41539 -4.89962 2.81799
C 5.4809 -4.79479 8.31501
C 5.97202 -3.63918 2.80172
C 6.89555 -2.47671 2.4409
C 7.5285 -2.19002 3.78651
C 6.91506 -3.31616 4.62572
O 6.75278 -4.37357 3.7104
H 4.46612 -2.1282 3.27377
H 5.364 -1.96552 5.47179
H 5.65706 -4.17279 1.87903
H 7.67908 -2.8787 1.75908
H 6.39772 -1.60954 1.95602
H 8.62848 -2.32992 3.69261
H 7.30668 -1.18833 4.21424
H 7.56496 -3.53151 5.50212
O -1.59035 -5.0234 5.42441
C -1.91412 -2.98596 1.02491
C -4.6755 -6.29725 3.44165
C -5.03606 -7.78033 3.36236
C -3.99306 -8.36927 4.28383
C -3.29558 -7.09171 4.76112
O -4.3228 -6.13457 4.79025
H -3.40016 -6.61347 1.72272
H -1.70438 -7.38013 3.29883
H -1.67201 -2.34978 1.9031
H -5.53384 -5.68682 3.08377
H -6.03686 -7.90808 3.83394
H -5.05707 -8.20228 2.33454
H -4.5143 -8.85904 5.13658
H -3.28744 -9.08541 3.81001
H -2.78156 -7.28559 5.72882
H -2.76479 -2.54481 0.46273
H -1.02754 -3.02692 0.35953
H 6.21407 -4.58186 9.11973
H 5.57382 -5.86163 8.019
H 4.45784 -4.5998 8.70197
H 1.33394 -4.82329 5.89479
H 2.00742 -5.77792 4.5526
H -0.02092 -3.41933 4.43138
H 0.93065 -3.88082 3.01991
$end

$opt
CONSTRAINT
tors           1           2           3           4     -99.719
tors           3           4           5           6     -91.776
tors           4           5           6           7    +169.910
tors           5           6           7           8    +101.212
tors           6           7           8           9    +153.328
tors           7           8           9          10     -80.563
tors           8           9          10          11    -172.870
tors           9          10          11          12     +38.464
tors          11          12          13          14     -13.093
ENDCONSTRAINT
$end

$rem
JOBTYPE                   OPT
METHOD                    B3LYP
DFT_D                     d3_op
BASIS                     STO-3G
GEOM_OPT_MAX_CYCLES       100
GEOM_OPT_TOL_GRADIENT     300
GEOM_OPT_TOL_DISPLACEMENT 1200
GEOM_OPT_TOL_ENERGY       100
SYMMETRY                  False
THRESH                    12
SCF_CONVERGENCE           8
MAX_SUB_FILE_NUM          128
MEM_STATIC                400
MEM_TOTAL                 4000
$end
--------------------------------------------------------------

   15   -1510.1198567147      6.32E-09 Convergence criterion met
 Total energy in the final basis set = -1510.11985671
   14   -1510.1890313866      7.59E-09 Convergence criterion met
 Total energy in the final basis set = -1510.18903139
   14   -1510.2375235902      7.47E-09 Convergence criterion met
 Total energy in the final basis set = -1510.23752359
   14   -1510.2595781494      6.24E-09 Convergence criterion met
 Total energy in the final basis set = -1510.25957815
   14   -1510.2684578272      5.12E-09 Convergence criterion met
 Total energy in the final basis set = -1510.26845783
   14   -1510.2718708426      2.31E-09 Convergence criterion met
 Total energy in the final basis set = -1510.27187084
   13   -1510.2732255368      8.21E-09 Convergence criterion met
 Total energy in the final basis set = -1510.27322554
   13   -1510.2736592076      4.36E-09 Convergence criterion met
   11   -1510.2746545144      7.73E-09 Convergence criterion met
 Total energy in the final basis set = -1510.27465451
   11   -1510.2746718338      3.06E-09 Convergence criterion met
 Total energy in the final basis set = -1510.27467183
   10   -1510.2746769679      5.08E-09 Convergence criterion met
 Total energy in the final basis set = -1510.27467697
   10   -1510.2746758975      4.57E-09 Convergence criterion met
 Total energy in the final basis set = -1510.27467590
    9   -1510.2746769690      6.71E-09 Convergence criterion met
 Total energy in the final basis set = -1510.27467697
    9   -1510.2746751014      7.53E-09 Convergence criterion met
 Total energy in the final basis set = -1510.27467510

             Standard Nuclear Orientation (Angstroms)
    I     Atom           X                Y                Z
 ----------------------------------------------------------------
    1      O      -5.1099008415     1.7012950104     1.7894504761
    2      C      -4.5841701858     1.6375304944     0.6583487686
    3      C      -4.9904949365     0.7090741713    -0.5405478809
    4      C      -4.0529047205    -0.5740274875    -0.6609476240
    5      C      -2.8266127327    -0.5167307375     0.3102009233
    6      O      -1.7417014789     0.0897738572    -0.4046769723
    7      C      -0.6175414450     0.4033662818     0.5085548340
    8      C       0.5159533507    -0.6889651461     0.3723135017
    9      O       1.8536514009    -0.1590475488     0.7231497140
   10      C       2.4036515889     0.5714268236    -0.3812371670
   11      C       3.8854204199     0.9653932896    -0.0557975005
   12      C       4.7740754984    -0.0858872046     0.7137331849
   13      C       4.3904749449    -1.5831445340     0.3958526494
   14      O       3.3775714408    -2.0316544005    -0.1801778652
   15      O      -3.4321302538     2.3952349498     0.2648481506
   16      O       5.4334326490    -2.4153973242     0.9204714698
   17      O       1.7825980746     0.8282054424    -1.4351937708
   18      C       5.1334580327    -3.8381657206     0.6409786391
   19      C       4.7958774762     1.3006712646    -1.3153127644
   20      C       5.7856035404     2.4392175474    -0.8617870513
   21      C       6.6618096520     1.6490447966     0.1831770430
   22      C       6.1553017101     0.1661121879    -0.0342526088
   23      O       5.7008423888     0.1342010318    -1.4489698638
   24      H       3.8164853061     1.8712719151     0.5774095718
   25      H       4.8070832711     0.0826752063     1.8048169038
   26      H       4.2328159932     1.4780744382    -2.2526297792
   27      H       6.3927993640     2.7816916094    -1.7152313447
   28      H       5.2666587599     3.3061873106    -0.4226817105
   29      H       7.7373163225     1.7290191764    -0.0396816544
   30      H       6.4905019969     1.9882969095     1.2177287991
   31      H       6.9070475431    -0.6253266182     0.1505707647
   32      O      -2.7732242952    -0.8666444237     1.5091632221
   33      C      -2.9497867791     3.2094920237     1.4037921942
   34      C      -6.3873843891     0.0206081827    -0.2517599996
   35      C      -6.8896867414    -0.6934774486    -1.5684594542
   36      C      -5.9755217774    -1.9747726047    -1.5927714836
   37      C      -5.0819891263    -1.7308510869    -0.3139410009
   38      O      -6.0200202466    -1.1023996417     0.6432529627
   39      H      -4.9793835400     1.2957844171    -1.4763517733
   40      H      -3.6655372346    -0.6673838133    -1.6910150735
   41      H      -2.6496454713     2.5714553981     2.2602993585
   42      H      -7.1234871588     0.6814700969     0.2453407548
   43      H      -7.9554677921    -0.9576732944    -1.4818091927
   44      H      -6.7539119460    -0.0593989259    -2.4592742157
   45      H      -6.5690908997    -2.8956359269    -1.4767301105
   46      H      -5.3749546396    -2.0539571262    -2.5130609375
   47      H      -4.6239963633    -2.6351790461     0.1312495772
   48      H      -3.7211596605     3.9257045177     1.7533652471
   49      H      -2.0702852228     3.7653295726     1.0302543525
   50      H       5.9615838245    -4.4180065638     1.0885010637
   51      H       5.0870874603    -4.0387442163    -0.4490432465
   52      H       4.1717980779    -4.1511259966     1.0966130385
   53      H       0.3302210939    -1.5292314675     1.0702310321
   54      H       0.5129294028    -1.0687759782    -0.6721468951
   55      H      -0.9785872753     0.4623598561     1.5560811043
   56      H      -0.2211916304     1.3869988423     0.1834631025
 ----------------------------------------------------------------

    9   -1510.2746750284      6.03E-09 Convergence criterion met
 Total energy in the final basis set = -1510.27467503
 Final energy is   -1510.27467502837
 **  OPTIMIZATION CONVERGED  **

                    Orbital Energies (a.u.)
 --------------------------------------------------------------

 Alpha MOs
 -- Occupied --
-18.933 -18.933 -18.932 -18.930 -18.886 -18.885 -18.877 -18.876
-18.876 -18.873 -10.099 -10.099 -10.098 -10.097 -10.067 -10.066
-10.064 -10.064 -10.059 -10.059 -10.057 -10.057 -10.040 -10.037
-10.037 -10.036 -10.022 -10.020 -10.019 -10.018  -1.015  -1.013
 -1.008  -1.005  -0.970  -0.967  -0.938  -0.936  -0.934  -0.932
 -0.764  -0.762  -0.726  -0.723  -0.711  -0.704  -0.693  -0.663
 -0.662  -0.617  -0.597  -0.583  -0.546  -0.543  -0.538  -0.535
 -0.511  -0.508  -0.482  -0.474  -0.465  -0.455  -0.452  -0.450
 -0.436  -0.429  -0.424  -0.414  -0.413  -0.410  -0.408  -0.395
 -0.388  -0.381  -0.373  -0.366  -0.364  -0.356  -0.353  -0.348
 -0.346  -0.342  -0.336  -0.332  -0.329  -0.328  -0.320  -0.312
 -0.309  -0.308  -0.304  -0.300  -0.295  -0.282  -0.279  -0.273
 -0.271  -0.258  -0.254  -0.252  -0.243  -0.234  -0.231  -0.188
 -0.178  -0.175  -0.165  -0.158  -0.152  -0.149  -0.148  -0.145
 -0.141

          Ground-State Mulliken Net Atomic Charges

     Atom                 Charge (a.u.)
  ----------------------------------------
      1 O                    -0.205937
      2 C                     0.206042
      3 C                    -0.077221
      4 C                    -0.078342
      5 C                     0.205978
      6 O                    -0.167372
      7 C                    -0.053020
      8 C                    -0.048953
      9 O                    -0.171024
     10 C                     0.213464
     11 C                    -0.081396
     12 C                    -0.074332
     13 C                     0.215758
     14 O                    -0.210538
     15 O                    -0.170719
     16 O                    -0.173391
     17 O                    -0.214317
     18 C                    -0.128186
     19 C                     0.023137
     20 C                    -0.141209
     21 C                    -0.146002
     22 C                     0.022738
     23 O                    -0.193176
     24 H                     0.081403
     25 H                     0.087972
     26 H                     0.091220
     27 H                     0.078186
     28 H                     0.073041
     29 H                     0.078473
     30 H                     0.073240
     31 H                     0.088776
     32 O                    -0.211858
     33 C                    -0.129367
     34 C                     0.025284
     35 C                    -0.144650
     36 C                    -0.143276
     37 C                     0.025093
     38 O                    -0.185067
     39 H                     0.086744
     40 H                     0.087335
     41 H                     0.088574
     42 H                     0.087353
     43 H                     0.078117
     44 H                     0.073130
     45 H                     0.077955
     46 H                     0.073390
     47 H                     0.085823
     48 H                     0.089431
     49 H                     0.089277
     50 H                     0.089972
     51 H                     0.090029
     52 H                     0.089092
     53 H                     0.091296
     54 H                     0.098429
     55 H                     0.093400
     56 H                     0.090199
  ----------------------------------------
  Sum of atomic charges =    -0.000000

                    Cartesian Multipole Moments
 -----------------------------------------------------------------
    Charge (ESU x 10^10)
                -0.0000
    Dipole Moment (Debye)
         X       1.9618      Y       1.0210      Z      -0.4142
       Tot       2.2501
    Quadrupole Moments (Debye-Ang)
        XX    -153.7644     XY      -0.0032     YY    -147.0707
        XZ      22.5840     YZ       3.5813     ZZ    -166.7631

 Total job time:  79.01s(wall), 3742.37s(cpu)
        *  Thank you very much for using Q-Chem.  Have a nice day.  *
