 Q-Chem 5.0, Q-Chem, Inc., Pleasanton, CA (2017)
 Q-Chem 5.0.1 for Intel X86 EM64T Linux

User input:
--------------------------------------------------------------
$molecule
0  1
O -5.1099008415 1.7012950104 1.7894504761
C -4.5841701858 1.6375304944 0.6583487686
C -4.9904949365 0.7090741713 -0.5405478809
C -4.0529047205 -0.5740274875 -0.660947624
C -2.8266127327 -0.5167307375 0.3102009233
O -1.7417014789 0.0897738572 -0.4046769723
C -0.617541445 0.4033662818 0.508554834
C 0.5159533507 -0.6889651461 0.3723135017
O 1.8536514009 -0.1590475488 0.723149714
C 2.4036515889 0.5714268236 -0.381237167
C 3.8854204199 0.9653932896 -0.0557975005
C 4.7740754984 -0.0858872046 0.7137331849
C 4.3904749449 -1.583144534 0.3958526494
O 3.3775714408 -2.0316544005 -0.1801778652
O -3.4321302538 2.3952349498 0.2648481506
O 5.433432649 -2.4153973242 0.9204714698
O 1.7825980746 0.8282054424 -1.4351937708
C 5.1334580327 -3.8381657206 0.6409786391
C 4.7958774762 1.3006712646 -1.3153127644
C 5.7856035404 2.4392175474 -0.8617870513
C 6.661809652 1.6490447966 0.183177043
C 6.1553017101 0.1661121879 -0.0342526088
O 5.7008423888 0.1342010318 -1.4489698638
H 3.8164853061 1.8712719151 0.5774095718
H 4.8070832711 0.0826752063 1.8048169038
H 4.2328159932 1.4780744382 -2.2526297792
H 6.392799364 2.7816916094 -1.7152313447
H 5.2666587599 3.3061873106 -0.4226817105
H 7.7373163225 1.7290191764 -0.0396816544
H 6.4905019969 1.9882969095 1.2177287991
H 6.9070475431 -0.6253266182 0.1505707647
O -2.7732242952 -0.8666444237 1.5091632221
C -2.9497867791 3.2094920237 1.4037921942
C -6.3873843891 0.0206081827 -0.2517599996
C -6.8896867414 -0.6934774486 -1.5684594542
C -5.9755217774 -1.9747726047 -1.5927714836
C -5.0819891263 -1.7308510869 -0.3139410009
O -6.0200202466 -1.1023996417 0.6432529627
H -4.97938354 1.2957844171 -1.4763517733
H -3.6655372346 -0.6673838133 -1.6910150735
H -2.6496454713 2.5714553981 2.2602993585
H -7.1234871588 0.6814700969 0.2453407548
H -7.9554677921 -0.9576732944 -1.4818091927
H -6.753911946 -0.0593989259 -2.4592742157
H -6.5690908997 -2.8956359269 -1.4767301105
H -5.3749546396 -2.0539571262 -2.5130609375
H -4.6239963633 -2.6351790461 0.1312495772
H -3.7211596605 3.9257045177 1.7533652471
H -2.0702852228 3.7653295726 1.0302543525
H 5.9615838245 -4.4180065638 1.0885010637
H 5.0870874603 -4.0387442163 -0.4490432465
H 4.1717980779 -4.1511259966 1.0966130385
H 0.3302210939 -1.5292314675 1.0702310321
H 0.5129294028 -1.0687759782 -0.6721468951
H -0.9785872753 0.4623598561 1.5560811043
H -0.2211916304 1.3869988423 0.1834631025
$end

$rem
JOBTYPE                   OPT
METHOD                    B3LYP
DFT_D                     d3_op
BASIS                     STO-3G
GEOM_OPT_MAX_CYCLES       100
GEOM_OPT_TOL_GRADIENT     300
GEOM_OPT_TOL_DISPLACEMENT 1200
GEOM_OPT_TOL_ENERGY       100
SYMMETRY                  False
THRESH                    12
SCF_CONVERGENCE           8
MAX_SUB_FILE_NUM          128
MEM_STATIC                400
MEM_TOTAL                 4000
$end
--------------------------------------------------------------

   16   -1510.2747966692      5.79E-09 Convergence criterion met
 Total energy in the final basis set = -1510.27479667
   14   -1510.2772550699      5.07E-09 Convergence criterion met
 Total energy in the final basis set = -1510.27725507
   13   -1510.2796778657      5.72E-09 Convergence criterion met
 Total energy in the final basis set = -1510.27967787
   13   -1510.2814457135      4.42E-09 Convergence criterion met
 Total energy in the final basis set = -1510.28144571
   13   -1510.2826355656      9.28E-09 Convergence criterion met
 Total energy in the final basis set = -1510.28263557
   13   -1510.2837583685      6.14E-09 Convergence criterion met
 Total energy in the final basis set = -1510.28375837
   13   -1510.2847669256      4.62E-09 Convergence criterion met
 Total energy in the final basis set = -1510.28476693
   13   -1510.2857162011      5.33E-09 Convergence criterion met
   12   -1510.2875133519      7.87E-09 Convergence criterion met
 Total energy in the final basis set = -1510.28751335
   12   -1510.2875975415      5.05E-09 Convergence criterion met
 Total energy in the final basis set = -1510.28759754
   11   -1510.2876083059      5.89E-09 Convergence criterion met
 Total energy in the final basis set = -1510.28760831
   11   -1510.2876285566      9.08E-09 Convergence criterion met
 Total energy in the final basis set = -1510.28762856
   11   -1510.2876254496      5.67E-09 Convergence criterion met
 Total energy in the final basis set = -1510.28762545
   11   -1510.2876276447      3.48E-09 Convergence criterion met
 Total energy in the final basis set = -1510.28762764

             Standard Nuclear Orientation (Angstroms)
    I     Atom           X                Y                Z
 ----------------------------------------------------------------
    1      O      -5.5168790727     1.6801159441     1.7903484534
    2      C      -4.9642554371     1.5296600584     0.6812215809
    3      C      -5.2569650344     0.4246450904    -0.3949347313
    4      C      -3.9617122429    -0.3758437986    -0.8452249521
    5      C      -2.6556029608     0.1130856693    -0.1286469239
    6      O      -1.7481656968     0.5782234723    -1.1359810884
    7      C      -0.4988392941     1.0872833633    -0.5192630211
    8      C       0.4306166167    -0.0902297334    -0.0326191191
    9      O       1.7200200003     0.4085789935     0.4971839967
   10      C       2.6288102407     0.6860062100    -0.5825291748
   11      C       4.0110570510     1.0930148508     0.0480271904
   12      C       4.8218062375    -0.1094660646     0.6797199524
   13      C       4.1576379774    -1.4975473532     0.3937852476
   14      O       3.1988422058    -1.7338071624    -0.3756139714
   15      O      -3.9300544190     2.3818707645     0.1697714416
   16      O       4.8538914256    -2.5006679806     1.1346529279
   17      O       2.3124728284     0.7027840312    -1.7907014907
   18      C       4.2795053240    -3.8358186107     0.8438686102
   19      C       5.0295663918     1.6024692816    -1.0569285069
   20      C       6.1538951556     2.4401788790    -0.3341640947
   21      C       6.9622943201     1.2959653331     0.3843979636
   22      C       6.1921636724     0.0102108380    -0.1179000710
   23      O       5.7406604057     0.3722042880    -1.4798764447
   24      H       3.8233271114     1.8692522144     0.8112099062
   25      H       4.9682179366     0.0045550973     1.7685903625
   26      H       4.5447140173     2.0845508288    -1.9280830012
   27      H       6.7759534315     2.9699968540    -1.0730750849
   28      H       5.7363487796     3.1766478525     0.3709470518
   29      H       8.0122437528     1.2702226066     0.0520683749
   30      H       6.9414727348     1.3855356441     1.4823805427
   31      H       6.7887959979    -0.9225651838    -0.1348658006
   32      O      -2.4024875131     0.0925227607     1.0958843532
   33      C      -3.5238637369     3.3630403150     1.2008641737
   34      C      -6.1409386184    -0.7376080292     0.2160483990
   35      C      -6.7183832755    -1.6087112990    -0.9664815533
   36      C      -5.4346117869    -2.4041961563    -1.4116686813
   37      C      -4.3616222311    -1.8473244448    -0.3937937334
   38      O      -5.1377518307    -1.6279387258     0.8470108493
   39      H      -5.7427610597     0.9028537695    -1.2657539290
   40      H      -3.8028068345    -0.3064995609    -1.9353557553
   41      H      -3.0621776517     2.8559570683     2.0732880044
   42      H      -6.8765292516    -0.3913881353     0.9681444713
   43      H      -7.5057726894    -2.2853034429    -0.5980464574
   44      H      -7.1358538601    -0.9877186227    -1.7751555305
   45      H      -5.5648512314    -3.4899028944    -1.2778402656
   46      H      -5.1537556021    -2.2077870112    -2.4587086422
   47      H      -3.5025473759    -2.5183743599    -0.1994261343
   48      H      -4.3841813018     3.9661367960     1.5553938744
   49      H      -2.7791921291     4.0229914744     0.7192316311
   50      H       4.8589439104    -4.5552329326     1.4511187486
   51      H       4.3742961636    -4.0945049341    -0.2306081048
   52      H       3.2081725381    -3.8884509004     1.1259471333
   53      H      -0.0605382379    -0.6181151139     0.8094079999
   54      H       0.5978730189    -0.7967364865    -0.8730952107
   55      H      -0.7261537378     1.7599498508     0.3349366491
   56      H       0.0150353846     1.6563736431    -1.3194899015
 ----------------------------------------------------------------

    9   -1510.2876279158      9.63E-09 Convergence criterion met
 Total energy in the final basis set = -1510.28762792
 Final energy is   -1510.28762791576
 **  OPTIMIZATION CONVERGED  **

                    Orbital Energies (a.u.)
 --------------------------------------------------------------

 Alpha MOs
 -- Occupied --
-18.942 -18.934 -18.930 -18.921 -18.887 -18.885 -18.884 -18.878
-18.866 -18.865 -10.105 -10.099 -10.096 -10.094 -10.069 -10.064
-10.063 -10.062 -10.060 -10.058 -10.057 -10.056 -10.041 -10.037
-10.034 -10.034 -10.022 -10.020 -10.019 -10.018  -1.019  -1.013
 -1.005  -1.000  -0.971  -0.968  -0.942  -0.937  -0.932  -0.927
 -0.764  -0.761  -0.725  -0.722  -0.711  -0.704  -0.691  -0.666
 -0.661  -0.616  -0.596  -0.581  -0.545  -0.544  -0.537  -0.535
 -0.511  -0.507  -0.481  -0.473  -0.464  -0.454  -0.452  -0.449
 -0.435  -0.430  -0.427  -0.416  -0.412  -0.412  -0.409  -0.390
 -0.386  -0.380  -0.375  -0.367  -0.362  -0.354  -0.351  -0.347
 -0.344  -0.341  -0.337  -0.331  -0.328  -0.326  -0.322  -0.312
 -0.308  -0.305  -0.303  -0.301  -0.294  -0.285  -0.278  -0.274
 -0.270  -0.259  -0.256  -0.252  -0.239  -0.235  -0.232  -0.186
 -0.181  -0.176  -0.160  -0.158  -0.156  -0.147  -0.145  -0.144
 -0.141

          Ground-State Mulliken Net Atomic Charges

     Atom                 Charge (a.u.)
  ----------------------------------------
      1 O                    -0.206791
      2 C                     0.213961
      3 C                    -0.078399
      4 C                    -0.079290
      5 C                     0.210879
      6 O                    -0.168856
      7 C                    -0.052197
      8 C                    -0.053235
      9 O                    -0.177933
     10 C                     0.216188
     11 C                    -0.081355
     12 C                    -0.077524
     13 C                     0.215595
     14 O                    -0.207490
     15 O                    -0.172445
     16 O                    -0.168775
     17 O                    -0.216706
     18 C                    -0.128202
     19 C                     0.024419
     20 C                    -0.143609
     21 C                    -0.143967
     22 C                     0.024963
     23 O                    -0.189509
     24 H                     0.083778
     25 H                     0.087860
     26 H                     0.089772
     27 H                     0.078188
     28 H                     0.073162
     29 H                     0.078351
     30 H                     0.073881
     31 H                     0.084798
     32 O                    -0.220554
     33 C                    -0.129249
     34 C                     0.024239
     35 C                    -0.144075
     36 C                    -0.143807
     37 C                     0.025467
     38 O                    -0.186774
     39 H                     0.085025
     40 H                     0.086993
     41 H                     0.092741
     42 H                     0.090213
     43 H                     0.078129
     44 H                     0.072979
     45 H                     0.077827
     46 H                     0.073849
     47 H                     0.082681
     48 H                     0.090570
     49 H                     0.089270
     50 H                     0.092089
     51 H                     0.091284
     52 H                     0.091137
     53 H                     0.093510
     54 H                     0.095494
     55 H                     0.087036
     56 H                     0.094419
  ----------------------------------------
  Sum of atomic charges =    -0.000000

                    Cartesian Multipole Moments
 -----------------------------------------------------------------
    Charge (ESU x 10^10)
                -0.0000
    Dipole Moment (Debye)
         X       1.3306      Y       0.4426      Z      -0.0233
       Tot       1.4024
    Quadrupole Moments (Debye-Ang)
        XX    -147.2444     XY       0.5436     YY    -144.6186
        XZ      22.4076     YZ       2.4217     ZZ    -169.9172

 Total job time:  62.33s(wall), 2936.29s(cpu)
        *  Thank you very much for using Q-Chem.  Have a nice day.  *
