 Q-Chem 5.0, Q-Chem, Inc., Pleasanton, CA (2017)
 Q-Chem 5.0.1 for Intel X86 EM64T Linux

User input:
--------------------------------------------------------------
$molecule
0  1
O 3.3072855514 -1.0833327499 -2.0853782264
C 3.4456489567 0.1176321453 -1.7733543015
C 4.4063694408 0.7373096917 -0.6929476607
C 4.2168996504 0.199953561 0.7847616429
C 2.8247795143 -0.3629077072 1.2366357806
O 1.9415212765 -0.5455414739 0.1291775268
C 0.6380051513 -1.1032928141 0.5732962634
C -0.3013297906 0.1168407821 0.924838822
O -1.7814499409 -0.0093549305 0.8582951069
C -2.3341986137 -1.286253668 0.5802823004
C -3.8967482493 -1.1809894292 0.4166744508
C -4.6552375791 0.1800707937 0.6816445213
C -3.8599001809 1.5009290617 0.3729181748
O -3.0682840375 1.7371097934 -0.5628951136
O 2.7042208066 1.1932885958 -2.36929402
O -4.2373721587 2.4706492089 1.3628919832
O -1.7079813421 -2.3657076496 0.4933094378
C -3.5526201004 3.7549624597 1.0909970057
C -4.4710353915 -1.600147965 -1.015087991
C -5.8313527374 -2.3522567113 -0.7475983213
C -6.7141223999 -1.1603169497 -0.2183954358
C -5.7576458259 0.0750570229 -0.4681895462
O -4.9254491952 -0.3317924672 -1.626386607
H -4.2823418476 -1.9144219066 1.1503727121
H -5.0819440292 0.235927963 1.6978457401
H -3.7518853625 -2.1234614112 -1.6745512343
H -6.2325297336 -2.7615504525 -1.6889716396
H -5.7291770471 -3.1711475651 -0.0178452537
H -7.6454957984 -1.0527898119 -0.7963241337
H -6.9716158017 -1.2660750754 0.8478417595
H -6.2778451676 1.0288344881 -0.6832976085
O 2.5166922078 -0.6347213857 2.4194395822
C 1.7355465621 0.650278521 -3.3487833472
C 5.8604825465 0.1628430846 -0.9874422446
C 6.9252576543 0.8326771401 -0.0277900963
C 6.7045332053 0.0190919802 1.3022019492
C 5.4350693495 -0.8295763103 0.9085260148
O 5.734889287 -1.226506718 -0.4838608617
H 4.3464063498 1.8382302951 -0.7421261795
H 4.4101831392 1.038925448 1.4794377019
H 1.017498025 -0.0434810291 -2.8656315506
H 6.136239942 0.1585802082 -2.0597927231
H 7.944027487 0.6991425339 -0.4241043085
H 6.7363614031 1.910832942 0.1009322067
H 7.5576559679 -0.6464685468 1.5109756658
H 6.5319759104 0.6630206379 2.1793048141
H 5.2330414537 -1.7176606887 1.5383706904
H 2.2432051563 0.1099517302 -4.173919217
H 1.1904349707 1.520907502 -3.7576517502
H -3.8784318994 4.4507249826 1.8860068259
H -3.8330424177 4.1668793889 0.0998946659
H -2.4495247788 3.6437385778 1.1237549196
H -0.0548212132 0.4672860706 1.9511759772
H -0.0507349537 0.9386052983 0.21776459
H 0.7721855007 -1.7735950469 1.4459267156
H 0.2494266621 -1.6751475767 -0.2899728092
$end

$rem
JOBTYPE                   OPT
METHOD                    B3LYP
DFT_D                     d3_op
BASIS                     STO-3G
GEOM_OPT_MAX_CYCLES       100
GEOM_OPT_TOL_GRADIENT     300
GEOM_OPT_TOL_DISPLACEMENT 1200
GEOM_OPT_TOL_ENERGY       100
SYMMETRY                  False
THRESH                    12
SCF_CONVERGENCE           8
MAX_SUB_FILE_NUM          128
MEM_STATIC                400
MEM_TOTAL                 4000
$end
--------------------------------------------------------------

   16   -1510.2573038940      4.93E-09 Convergence criterion met
 Total energy in the final basis set = -1510.25730389
   13   -1510.2602752091      8.48E-09 Convergence criterion met
 Total energy in the final basis set = -1510.26027521
   13   -1510.2632746955      7.62E-09 Convergence criterion met
 Total energy in the final basis set = -1510.26327470
   13   -1510.2659879858      6.51E-09 Convergence criterion met
 Total energy in the final basis set = -1510.26598799
   13   -1510.2687423918      8.92E-09 Convergence criterion met
 Total energy in the final basis set = -1510.26874239
   14   -1510.2714512258      6.08E-09 Convergence criterion met
 Total energy in the final basis set = -1510.27145123
   14   -1510.2738035110      5.63E-09 Convergence criterion met
 Total energy in the final basis set = -1510.27380351
   13   -1510.2758649622      4.08E-09 Convergence criterion met
   12   -1510.3013573161      9.77E-09 Convergence criterion met
 Total energy in the final basis set = -1510.30135732
   11   -1510.3014055374      9.43E-09 Convergence criterion met
 Total energy in the final basis set = -1510.30140554
   11   -1510.3014315906      6.76E-09 Convergence criterion met
 Total energy in the final basis set = -1510.30143159
   12   -1510.3014574348      2.22E-09 Convergence criterion met
 Total energy in the final basis set = -1510.30145743
   12   -1510.3014686891      3.51E-09 Convergence criterion met
 Total energy in the final basis set = -1510.30146869
   11   -1510.3014770585      4.81E-09 Convergence criterion met
 Total energy in the final basis set = -1510.30147706

             Standard Nuclear Orientation (Angstroms)
    I     Atom           X                Y                Z
 ----------------------------------------------------------------
    1      O       2.9233417234    -1.5861867710    -1.4162705794
    2      C       2.7018701874    -0.3650413833    -1.5753886467
    3      C       3.4755413013     0.8343922070    -0.9261043216
    4      C       3.3219014951     0.8869933893     0.6558530778
    5      C       2.5051826615    -0.3175996821     1.2426399516
    6      O       1.2294594109    -0.3596141024     0.5825690041
    7      C       0.4593857831    -1.5678692500     0.9559453300
    8      C      -0.4104612807    -1.3511813024     2.2483891377
    9      O      -1.6137969922    -0.5344152082     1.9572745218
   10      C      -2.7110684514    -1.3932613785     1.6079314318
   11      C      -3.9513536103    -0.5078365272     1.2333998585
   12      C      -3.6898019975     0.5010822022     0.0349711955
   13      C      -2.2133587280     0.4876560249    -0.4895681994
   14      O      -1.6155228209    -0.4789221050    -1.0218836840
   15      O       1.6802227035     0.1791117042    -2.4140845056
   16      O      -1.6683466125     1.7830353461    -0.2795877200
   17      O      -2.6610676522    -2.6413699534     1.6387720384
   18      C      -0.2417031054     1.8382360840    -0.6859743552
   19      C      -5.1021887370    -1.4093531336     0.6246317702
   20      C      -6.4405225094    -0.5733833494     0.5894373086
   21      C      -6.1672865585     0.3897472071    -0.6259966680
   22      C      -4.7130386352    -0.0603536561    -1.0475772385
   23      O      -4.7170611995    -1.5190787830    -0.8020734529
   24      H      -4.2796475389     0.0366543426     2.1378955971
   25      H      -3.9347703591     1.5363876776     0.3289133565
   26      H      -5.1701668084    -2.4150822137     1.0829619227
   27      H      -7.3015593351    -1.2328673665     0.3965141290
   28      H      -6.6160791506    -0.0300733930     1.5317917941
   29      H      -6.8772939269     0.2125294086    -1.4494217591
   30      H      -6.2086443950     1.4544293376    -0.3457072990
   31      H      -4.4353425918     0.1548698236    -2.0976181165
   32      O       2.8604516637    -1.1337633888     2.1166635692
   33      C       0.7529764385    -0.8846605940    -2.8755745989
   34      C       5.0519493391     0.6839830209    -1.0581089756
   35      C       5.7054236706     2.0909693440    -0.7596589029
   36      C       5.5365034616     2.1790812250     0.8028645811
   37      C       4.8345675711     0.7991748866     1.1129475009
   38      O       5.4263437881    -0.1289253331     0.1209675588
   39      H       3.1116058245     1.7673025019    -1.3905301841
   40      H       2.8388468610     1.8291122430     0.9744604780
   41      H      -0.1910519563    -0.8022436979    -2.2869349006
   42      H       5.3898296804     0.1919282181    -1.9905208856
   43      H       6.7677229973     2.0910969140    -1.0516587298
   44      H       5.1923464295     2.9084740779    -1.2910264605
   45      H       6.5110744989     2.2395154596     1.3127452814
   46      H       4.9199945695     3.0367226358     1.1163825114
   47      H       4.9699801483     0.4050938399     2.1389120728
   48      H       1.2156855427    -1.8791433908    -2.7212855774
   49      H       0.5515909683    -0.7180696364    -3.9504285079
   50      H       0.1151192762     2.8374584426    -0.3771049917
   51      H      -0.1272135862     1.7321266695    -1.7829013185
   52      H       0.3526627423     1.0373023840    -0.1835798189
   53      H      -0.7220883964    -2.3458838733     2.6337394410
   54      H       0.1699528035    -0.8082176920     3.0211289994
   55      H       1.1494837567    -2.4228697410     1.1149327395
   56      H      -0.2125243045    -1.7622744271     0.0933631205
 ----------------------------------------------------------------

    9   -1510.3014778994      5.91E-09 Convergence criterion met
 Total energy in the final basis set = -1510.30147790
 Final energy is   -1510.30147789940
 **  OPTIMIZATION CONVERGED  **

                    Orbital Energies (a.u.)
 --------------------------------------------------------------

 Alpha MOs
 -- Occupied --
-18.948 -18.937 -18.937 -18.922 -18.891 -18.889 -18.888 -18.884
-18.874 -18.863 -10.111 -10.105 -10.104 -10.093 -10.075 -10.073
-10.062 -10.060 -10.060 -10.060 -10.043 -10.042 -10.042 -10.039
-10.036 -10.036 -10.022 -10.022 -10.021 -10.021  -1.025  -1.017
 -1.009  -1.000  -0.972  -0.971  -0.950  -0.941  -0.937  -0.927
 -0.767  -0.765  -0.730  -0.724  -0.712  -0.707  -0.701  -0.657
 -0.650  -0.621  -0.598  -0.585  -0.551  -0.544  -0.540  -0.537
 -0.513  -0.511  -0.489  -0.467  -0.461  -0.456  -0.453  -0.452
 -0.439  -0.432  -0.431  -0.424  -0.414  -0.408  -0.405  -0.398
 -0.392  -0.385  -0.373  -0.366  -0.363  -0.358  -0.356  -0.353
 -0.346  -0.340  -0.337  -0.332  -0.331  -0.327  -0.326  -0.312
 -0.311  -0.308  -0.306  -0.302  -0.298  -0.291  -0.284  -0.277
 -0.272  -0.265  -0.252  -0.242  -0.239  -0.236  -0.235  -0.198
 -0.180  -0.170  -0.167  -0.165  -0.162  -0.151  -0.147  -0.146
 -0.144

          Ground-State Mulliken Net Atomic Charges

     Atom                 Charge (a.u.)
  ----------------------------------------
      1 O                    -0.220316
      2 C                     0.209654
      3 C                    -0.080013
      4 C                    -0.078796
      5 C                     0.218160
      6 O                    -0.174863
      7 C                    -0.052992
      8 C                    -0.054270
      9 O                    -0.174822
     10 C                     0.211631
     11 C                    -0.078015
     12 C                    -0.079546
     13 C                     0.217881
     14 O                    -0.225520
     15 O                    -0.175914
     16 O                    -0.167242
     17 O                    -0.208183
     18 C                    -0.149460
     19 C                     0.024642
     20 C                    -0.144339
     21 C                    -0.143512
     22 C                     0.025546
     23 O                    -0.186632
     24 H                     0.086126
     25 H                     0.087077
     26 H                     0.090854
     27 H                     0.078867
     28 H                     0.073275
     29 H                     0.078488
     30 H                     0.073840
     31 H                     0.083510
     32 O                    -0.202419
     33 C                    -0.150972
     34 C                     0.025588
     35 C                    -0.143636
     36 C                    -0.144250
     37 C                     0.024517
     38 O                    -0.185774
     39 H                     0.085039
     40 H                     0.084888
     41 H                     0.107270
     42 H                     0.085152
     43 H                     0.078503
     44 H                     0.073407
     45 H                     0.078846
     46 H                     0.072552
     47 H                     0.090144
     48 H                     0.093839
     49 H                     0.078751
     50 H                     0.078778
     51 H                     0.086940
     52 H                     0.112647
     53 H                     0.101610
     54 H                     0.091746
     55 H                     0.101943
     56 H                     0.109776
  ----------------------------------------
  Sum of atomic charges =    -0.000000

                    Cartesian Multipole Moments
 -----------------------------------------------------------------
    Charge (ESU x 10^10)
                -0.0000
    Dipole Moment (Debye)
         X      -1.6312      Y       4.2245      Z       0.6744
       Tot       4.5784
    Quadrupole Moments (Debye-Ang)
        XX    -153.0373     XY       6.5609     YY    -165.5490
        XZ      -4.9282     YZ      -0.8952     ZZ    -156.4318

 Total job time:  142.83s(wall), 6522.16s(cpu)
        *  Thank you very much for using Q-Chem.  Have a nice day.  *
