 Q-Chem 5.0, Q-Chem, Inc., Pleasanton, CA (2017)
 Q-Chem 5.0.1 for Intel X86 EM64T Linux

User input:
--------------------------------------------------------------
$molecule
0  1
O -3.94934 -3.66094 2.70899
C -3.26408 -4.56952 2.26188
C -3.36658 -6.02376 2.66595
C -3.16416 -6.35563 4.15348
C -3.05834 -5.17933 5.09858
O -3.41251 -4.03029 4.45074
C -3.36107 -2.87183 5.29013
C -1.97124 -2.24594 5.23757
O -2.05262 -0.8464 5.5499
C -3.27791 -0.40314 5.92584
C -3.32956 1.09435 6.11425
C -1.97921 1.81166 5.97179
C -0.86936 1.00833 5.32403
O -1.0078 0.23554 4.38692
O -2.3357 -4.2784 1.31306
O 0.34599 1.0877 5.92687
O -3.94497 -0.96932 6.78558
C 1.46187 0.3878 5.51809
C -4.1462 1.78738 5.0073
C -4.6364 3.14695 5.50351
C -3.3329 3.9183 5.54135
C -2.38317 2.87861 4.93383
O -3.19429 2.15306 4.04203
H -3.80349 1.32924 7.09802
H -1.60111 2.27339 6.91107
H -5.00178 1.17588 4.64517
H -5.2783 3.57231 4.69878
H -5.20762 3.13404 6.4566
H -3.43063 4.80375 4.87472
H -2.99602 4.23517 6.55213
H -1.49768 3.38066 4.4833
O -2.83818 -5.28707 6.29934
C -2.10221 -3.01241 0.81783
C -4.7948 -6.56682 2.46429
C -4.76357 -8.08963 2.33615
C -4.45688 -8.48821 3.76547
C -4.46635 -7.11556 4.44567
O -5.41827 -6.38194 3.71306
H -2.66171 -6.59982 2.02359
H -2.24503 -6.96344 4.30658
H -1.78209 -2.33332 1.63656
H -5.31098 -6.11782 1.58719
H -5.79821 -8.4213 2.09175
H -4.06156 -8.48458 1.57063
H -5.29683 -9.11218 4.1442
H -3.49167 -9.01904 3.91454
H -4.66208 -7.22201 5.53552
H -3.02138 -2.61376 0.33771
H -1.295 -3.06181 0.05866
H 2.31324 0.63953 6.18305
H 1.72701 0.66589 4.47562
H 1.2712 -0.70525 5.57843
H -1.25459 -2.77741 5.89781
H -1.60307 -2.31396 4.19169
H -3.74008 -3.1072 6.31097
H -4.11219 -2.24143 4.76332
$end

$opt
CONSTRAINT
tors           1           2           3           4     -58.032
tors           3           4           5           6     +11.100
tors           4           5           6           7    +178.917
tors           5           6           7           8     +89.318
tors           6           7           8           9    +154.501
tors           7           8           9          10      +5.238
tors           8           9          10          11    -174.581
tors           9          10          11          12      -5.190
tors          11          12          13          14     +38.161
ENDCONSTRAINT
$end

$rem
JOBTYPE                   OPT
METHOD                    B3LYP
DFT_D                     d3_op
BASIS                     STO-3G
GEOM_OPT_MAX_CYCLES       100
GEOM_OPT_TOL_GRADIENT     300
GEOM_OPT_TOL_DISPLACEMENT 1200
GEOM_OPT_TOL_ENERGY       100
SYMMETRY                  False
THRESH                    12
SCF_CONVERGENCE           8
MAX_SUB_FILE_NUM          128
MEM_STATIC                400
MEM_TOTAL                 4000
$end
--------------------------------------------------------------

   16   -1510.0061982671      2.97E-09 Convergence criterion met
 Total energy in the final basis set = -1510.00619827
   14   -1510.0969400234      5.31E-09 Convergence criterion met
 Total energy in the final basis set = -1510.09694002
   15   -1510.1613126212      1.68E-09 Convergence criterion met
 Total energy in the final basis set = -1510.16131262
   14   -1510.1973742360      7.58E-09 Convergence criterion met
 Total energy in the final basis set = -1510.19737424
   15   -1510.2202349119      1.82E-09 Convergence criterion met
 Total energy in the final basis set = -1510.22023491
   14   -1510.2338107868      2.33E-09 Convergence criterion met
 Total energy in the final basis set = -1510.23381079
   12   -1510.2424103603      9.20E-09 Convergence criterion met
 Total energy in the final basis set = -1510.24241036
   12   -1510.2481656701      8.48E-09 Convergence criterion met
   12   -1510.2572619688      5.08E-09 Convergence criterion met
 Total energy in the final basis set = -1510.25726197
   10   -1510.2572733264      6.68E-09 Convergence criterion met
 Total energy in the final basis set = -1510.25727333
   10   -1510.2572796136      5.27E-09 Convergence criterion met
 Total energy in the final basis set = -1510.25727961
    9   -1510.2572848771      6.12E-09 Convergence criterion met
 Total energy in the final basis set = -1510.25728488
    9   -1510.2572889654      6.14E-09 Convergence criterion met
 Total energy in the final basis set = -1510.25728897
    9   -1510.2572906472      2.46E-09 Convergence criterion met
 Total energy in the final basis set = -1510.25729065

             Standard Nuclear Orientation (Angstroms)
    I     Atom           X                Y                Z
 ----------------------------------------------------------------
    1      O       3.3072855514    -1.0833327499    -2.0853782264
    2      C       3.4456489567     0.1176321453    -1.7733543015
    3      C       4.4063694408     0.7373096917    -0.6929476607
    4      C       4.2168996504     0.1999535610     0.7847616429
    5      C       2.8247795143    -0.3629077072     1.2366357806
    6      O       1.9415212765    -0.5455414739     0.1291775268
    7      C       0.6380051513    -1.1032928141     0.5732962634
    8      C      -0.3013297906     0.1168407821     0.9248388220
    9      O      -1.7814499409    -0.0093549305     0.8582951069
   10      C      -2.3341986137    -1.2862536680     0.5802823004
   11      C      -3.8967482493    -1.1809894292     0.4166744508
   12      C      -4.6552375791     0.1800707937     0.6816445213
   13      C      -3.8599001809     1.5009290617     0.3729181748
   14      O      -3.0682840375     1.7371097934    -0.5628951136
   15      O       2.7042208066     1.1932885958    -2.3692940200
   16      O      -4.2373721587     2.4706492089     1.3628919832
   17      O      -1.7079813421    -2.3657076496     0.4933094378
   18      C      -3.5526201004     3.7549624597     1.0909970057
   19      C      -4.4710353915    -1.6001479650    -1.0150879910
   20      C      -5.8313527374    -2.3522567113    -0.7475983213
   21      C      -6.7141223999    -1.1603169497    -0.2183954358
   22      C      -5.7576458259     0.0750570229    -0.4681895462
   23      O      -4.9254491952    -0.3317924672    -1.6263866070
   24      H      -4.2823418476    -1.9144219066     1.1503727121
   25      H      -5.0819440292     0.2359279630     1.6978457401
   26      H      -3.7518853625    -2.1234614112    -1.6745512343
   27      H      -6.2325297336    -2.7615504525    -1.6889716396
   28      H      -5.7291770471    -3.1711475651    -0.0178452537
   29      H      -7.6454957984    -1.0527898119    -0.7963241337
   30      H      -6.9716158017    -1.2660750754     0.8478417595
   31      H      -6.2778451676     1.0288344881    -0.6832976085
   32      O       2.5166922078    -0.6347213857     2.4194395822
   33      C       1.7355465621     0.6502785210    -3.3487833472
   34      C       5.8604825465     0.1628430846    -0.9874422446
   35      C       6.9252576543     0.8326771401    -0.0277900963
   36      C       6.7045332053     0.0190919802     1.3022019492
   37      C       5.4350693495    -0.8295763103     0.9085260148
   38      O       5.7348892870    -1.2265067180    -0.4838608617
   39      H       4.3464063498     1.8382302951    -0.7421261795
   40      H       4.4101831392     1.0389254480     1.4794377019
   41      H       1.0174980250    -0.0434810291    -2.8656315506
   42      H       6.1362399420     0.1585802082    -2.0597927231
   43      H       7.9440274870     0.6991425339    -0.4241043085
   44      H       6.7363614031     1.9108329420     0.1009322067
   45      H       7.5576559679    -0.6464685468     1.5109756658
   46      H       6.5319759104     0.6630206379     2.1793048141
   47      H       5.2330414537    -1.7176606887     1.5383706904
   48      H       2.2432051563     0.1099517302    -4.1739192170
   49      H       1.1904349707     1.5209075020    -3.7576517502
   50      H      -3.8784318994     4.4507249826     1.8860068259
   51      H      -3.8330424177     4.1668793889     0.0998946659
   52      H      -2.4495247788     3.6437385778     1.1237549196
   53      H      -0.0548212132     0.4672860706     1.9511759772
   54      H      -0.0507349537     0.9386052983     0.2177645900
   55      H       0.7721855007    -1.7735950469     1.4459267156
   56      H       0.2494266621    -1.6751475767    -0.2899728092
 ----------------------------------------------------------------

    9   -1510.2572909744      2.78E-09 Convergence criterion met
 Total energy in the final basis set = -1510.25729097
 Final energy is   -1510.25729097437
 **  OPTIMIZATION CONVERGED  **

                    Orbital Energies (a.u.)
 --------------------------------------------------------------

 Alpha MOs
 -- Occupied --
-18.941 -18.939 -18.928 -18.923 -18.889 -18.888 -18.873 -18.873
-18.868 -18.862 -10.107 -10.103 -10.094 -10.090 -10.075 -10.072
-10.061 -10.061 -10.061 -10.060 -10.059 -10.056 -10.038 -10.038
-10.037 -10.035 -10.022 -10.020 -10.020 -10.019  -1.017  -1.013
 -1.004  -0.999  -0.972  -0.970  -0.942  -0.938  -0.928  -0.924
 -0.764  -0.762  -0.727  -0.722  -0.712  -0.704  -0.696  -0.661
 -0.657  -0.620  -0.597  -0.590  -0.545  -0.543  -0.539  -0.537
 -0.514  -0.512  -0.483  -0.475  -0.460  -0.458  -0.449  -0.446
 -0.438  -0.431  -0.425  -0.409  -0.408  -0.406  -0.404  -0.395
 -0.389  -0.381  -0.373  -0.364  -0.364  -0.355  -0.351  -0.347
 -0.344  -0.338  -0.331  -0.331  -0.329  -0.327  -0.323  -0.316
 -0.314  -0.308  -0.306  -0.301  -0.297  -0.290  -0.288  -0.274
 -0.272  -0.252  -0.248  -0.246  -0.237  -0.234  -0.232  -0.184
 -0.176  -0.168  -0.166  -0.157  -0.151  -0.148  -0.146  -0.141
 -0.137

          Ground-State Mulliken Net Atomic Charges

     Atom                 Charge (a.u.)
  ----------------------------------------
      1 O                    -0.209567
      2 C                     0.215404
      3 C                    -0.079242
      4 C                    -0.080139
      5 C                     0.206482
      6 O                    -0.167913
      7 C                    -0.049365
      8 C                    -0.052487
      9 O                    -0.166858
     10 C                     0.212439
     11 C                    -0.079834
     12 C                    -0.077890
     13 C                     0.215886
     14 O                    -0.210024
     15 O                    -0.173716
     16 O                    -0.173262
     17 O                    -0.219360
     18 C                    -0.128851
     19 C                     0.026403
     20 C                    -0.141161
     21 C                    -0.145721
     22 C                     0.024970
     23 O                    -0.186921
     24 H                     0.083822
     25 H                     0.086770
     26 H                     0.086805
     27 H                     0.078410
     28 H                     0.075026
     29 H                     0.078457
     30 H                     0.074021
     31 H                     0.081755
     32 O                    -0.219247
     33 C                    -0.128697
     34 C                     0.025667
     35 C                    -0.145793
     36 C                    -0.141475
     37 C                     0.026733
     38 O                    -0.183820
     39 H                     0.085189
     40 H                     0.084011
     41 H                     0.088720
     42 H                     0.082651
     43 H                     0.078236
     44 H                     0.073280
     45 H                     0.078519
     46 H                     0.074218
     47 H                     0.086649
     48 H                     0.087051
     49 H                     0.088916
     50 H                     0.088461
     51 H                     0.087276
     52 H                     0.087852
     53 H                     0.088505
     54 H                     0.094136
     55 H                     0.102497
     56 H                     0.106128
  ----------------------------------------
  Sum of atomic charges =     0.000000

                    Cartesian Multipole Moments
 -----------------------------------------------------------------
    Charge (ESU x 10^10)
                 0.0000
    Dipole Moment (Debye)
         X      -1.1194      Y       2.4161      Z       1.2503
       Tot       2.9418
    Quadrupole Moments (Debye-Ang)
        XX    -140.0372     XY      12.3198     YY    -159.3595
        XZ      -1.6766     YZ       0.1287     ZZ    -162.3413

 Total job time:  86.17s(wall), 4098.24s(cpu)
        *  Thank you very much for using Q-Chem.  Have a nice day.  *
