 Q-Chem 5.0, Q-Chem, Inc., Pleasanton, CA (2017)
 Q-Chem 5.0.1 for Intel X86 EM64T Linux

User input:
--------------------------------------------------------------
$molecule
0  1
O -3.4154903609 1.6613909878 1.7099699643
C -3.7453840616 1.5313362503 0.5120872111
C -4.6700369062 0.4335835715 -0.1192176671
C -3.8636902199 -0.8870856365 -0.5048024624
C -2.3426795896 -0.7863318663 -0.1423084828
O -1.6515712639 -0.274564309 -1.2916543233
C -0.2030325836 -0.1366385618 -1.003468664
C 0.5874704636 -0.9860121762 -2.0637623165
O 2.0667122916 -0.9344490083 -1.9362750864
C 2.5152750135 -1.2912157826 -0.6200000031
C 4.0692737998 -1.0368946316 -0.5606980868
C 4.5074212948 0.472541624 -0.3671580207
C 3.3016182784 1.4582533883 -0.2624472155
O 2.1310634361 1.1864520241 0.0851949794
O -3.2610390742 2.3665735216 -0.5490108069
O 3.7488018604 2.774199057 -0.599552734
O 1.8050089166 -1.8169096341 0.262767473
C 2.6270770084 3.734536114 -0.4723517633
C 4.6782565291 -1.6985781313 0.745582061
C 6.2403397455 -1.8232781198 0.5644962064
C 6.6858159761 -0.3246168018 0.7478973676
C 5.2953862858 0.3770175684 1.0162962581
O 4.5287431192 -0.6372095101 1.7695679041
H 4.517815865 -1.4519400397 -1.4813469361
H 5.171253121 0.8154431802 -1.1805178061
H 4.1521579395 -2.617541342 1.0682940251
H 6.6704205691 -2.4710693131 1.344680429
H 6.5118600593 -2.2297872009 -0.4227504041
H 7.347646481 -0.2034249525 1.6201820901
H 7.1931844751 0.0836957375 -0.1406525071
H 5.3477904791 1.3292839465 1.579232839
O -1.7921380914 -1.0905036112 0.9374856036
C -2.2723820005 3.3322097651 -0.0165440176
C -5.7002529946 -0.1487798556 0.9369925251
C -6.8107579295 -0.9542281699 0.1534641543
C -6.0183148809 -2.25580836 -0.2423802616
C -4.6045621958 -1.9594223137 0.3980445635
O -4.9281617672 -1.2043759903 1.6296748486
H -5.1723869507 0.8585872382 -1.0061493145
H -3.9553738669 -1.1027586351 -1.5839713007
H -1.3811993379 2.8135440266 0.3936493126
H -6.0760401103 0.5944575984 1.6665350289
H -7.6597511517 -1.1843984147 0.8165192934
H -7.1846581097 -0.4006560585 -0.7224585623
H -6.4660126745 -3.1552401248 0.2096056933
H -5.9570315759 -2.4020072665 -1.3327305415
H -3.9941665459 -2.8501984611 0.6426112862
H -2.7070649172 3.967539883 0.7817556572
H -1.9711961043 3.9646409705 -0.871763583
H 3.0434477577 4.7259991371 -0.7283419845
H 2.222082947 3.7551436136 0.5600694634
H 1.8004896738 3.4881222101 -1.1698866497
H 0.2354655488 -2.0400112154 -1.9966241281
H 0.3776629687 -0.6122124951 -3.0863775494
H 0.0007748122 -0.5157346864 0.0202231615
H 0.0812413578 0.9335241191 -1.0684103382
$end

$rem
JOBTYPE                   OPT
METHOD                    B3LYP
DFT_D                     d3_op
BASIS                     STO-3G
GEOM_OPT_MAX_CYCLES       100
GEOM_OPT_TOL_GRADIENT     300
GEOM_OPT_TOL_DISPLACEMENT 1200
GEOM_OPT_TOL_ENERGY       100
SYMMETRY                  False
THRESH                    12
SCF_CONVERGENCE           8
MAX_SUB_FILE_NUM          128
MEM_STATIC                400
MEM_TOTAL                 4000
$end
--------------------------------------------------------------

   16   -1510.2821980819      7.89E-09 Convergence criterion met
 Total energy in the final basis set = -1510.28219808
   13   -1510.2830520552      6.43E-09 Convergence criterion met
 Total energy in the final basis set = -1510.28305206
   13   -1510.2838160065      6.82E-09 Convergence criterion met
 Total energy in the final basis set = -1510.28381601
   13   -1510.2846259424      7.88E-09 Convergence criterion met
 Total energy in the final basis set = -1510.28462594
   14   -1510.2847521987      3.50E-09 Convergence criterion met
 Total energy in the final basis set = -1510.28475220
   13   -1510.2848011050      7.14E-09 Convergence criterion met
 Total energy in the final basis set = -1510.28480110
   14   -1510.2851556745      2.38E-09 Convergence criterion met
 Total energy in the final basis set = -1510.28515567
   14   -1510.2856940491      2.88E-09 Convergence criterion met
   12   -1510.3000796859      3.89E-09 Convergence criterion met
 Total energy in the final basis set = -1510.30007969
   12   -1510.3001113241      2.95E-09 Convergence criterion met
 Total energy in the final basis set = -1510.30011132
   12   -1510.3001275065      3.20E-09 Convergence criterion met
 Total energy in the final basis set = -1510.30012751
   11   -1510.3001484634      4.54E-09 Convergence criterion met
 Total energy in the final basis set = -1510.30014846
   11   -1510.3001577960      3.66E-09 Convergence criterion met
 Total energy in the final basis set = -1510.30015780
    9   -1510.3001596058      6.13E-09 Convergence criterion met
 Total energy in the final basis set = -1510.30015961

             Standard Nuclear Orientation (Angstroms)
    I     Atom           X                Y                Z
 ----------------------------------------------------------------
    1      O      -3.5083931374     1.6260651094     2.5965695173
    2      C      -3.0460186570     1.3419965811     1.4726586245
    3      C      -3.8151886958     1.2076853257     0.1087529889
    4      C      -3.4042906823    -0.0832694409    -0.7220130574
    5      C      -2.3851018919    -1.0032205712     0.0359325471
    6      O      -1.1478195507    -1.0498239831    -0.7077915962
    7      C      -0.1504637124    -1.8750371502     0.0227205885
    8      C       0.8100379579    -2.5505040234    -1.0170664194
    9      O       1.9598719036    -1.6644620984    -1.3301479660
   10      C       3.0556908912    -1.9541228509    -0.4486801843
   11      C       4.2046219441    -0.9174695788    -0.7093425145
   12      C       3.7545409432     0.5980603486    -0.5531418368
   13      C       2.2271679237     0.7664914587    -0.2445367269
   14      O       1.6354433158     0.4159510462     0.8060067431
   15      O      -1.6693848209     1.0893399754     1.1906443806
   16      O       1.6234707043     1.4097191597    -1.3569143810
   17      O       3.0689297372    -2.8988805914     0.3689938148
   18      C       0.1563653148     1.5496498943    -1.1745887098
   19      C       5.2990144809    -1.0289054822     0.4295642730
   20      C       6.5939251189    -0.2520338213    -0.0285711219
   21      C       6.1357489457     1.2419904517     0.1595927100
   22      C       4.6568346595     1.0436106758     0.6783355525
   23      O       4.7404892041    -0.1789122316     1.5077446211
   24      H       4.6240870378    -1.1001811488    -1.7158890430
   25      H       3.9856459788     1.1763576570    -1.4644019837
   26      H       5.4547657851    -2.0622344737     0.7958686222
   27      H       7.4436355674    -0.4998561079     0.6271764328
   28      H       6.8716690351    -0.4847165016    -1.0690898093
   29      H       6.7429882507     1.7578251896     0.9202829300
   30      H       6.1739257786     1.8218773015    -0.7764176128
   31      H       4.2431712859     1.8842899566     1.2680948313
   32      O      -2.5949793332    -1.6750969002     1.0679971327
   33      C      -0.8374494594     1.0895853192     2.4151622280
   34      C      -5.3645967304     0.9608174933     0.3238677237
   35      C      -6.1102008933     1.2657310304    -1.0334709483
   36      C      -5.6918907374     0.0149545970    -1.8931634572
   37      C      -4.8195338880    -0.7958795933    -0.8547433655
   38      O      -5.4641070621    -0.5126545835     0.4471964445
   39      H      -3.6286578955     2.1236328794    -0.4827953681
   40      H      -2.9767518168     0.1845833910    -1.7036992495
   41      H      -1.1517715041     0.2843968129     3.1093235286
   42      H      -5.7751206679     1.4546762516     1.2262637259
   43      H      -7.1997464494     1.2992217553    -0.8743587055
   44      H      -5.7884971532     2.2192979842    -1.4817836097
   45      H      -6.5691768456    -0.5754319474    -2.2015423412
   46      H      -5.1166499951     0.2895011418    -2.7917074581
   47      H      -4.7685580725    -1.8878096772    -1.0309420243
   48      H      -0.8964869881     2.0621608906     2.9436889504
   49      H       0.1936715728     0.9017506876     2.0457014716
   50      H      -0.2061178186     2.0510411524    -2.0902394224
   51      H      -0.0838771670     2.1762607964    -0.2929814442
   52      H      -0.3458165741     0.5571244882    -1.0520584031
   53      H       1.1884886967    -3.5077769679    -0.5989414469
   54      H       0.2765342521    -2.7336764819    -1.9719496427
   55      H      -0.6860910060    -2.6276108047     0.6388723734
   56      H       0.4465485627    -1.2057771164     0.6861330032
 ----------------------------------------------------------------

    9   -1510.3001592919      6.53E-09 Convergence criterion met
 Total energy in the final basis set = -1510.30015929
 Final energy is   -1510.30015929193
 **  OPTIMIZATION CONVERGED  **

                    Orbital Energies (a.u.)
 --------------------------------------------------------------

 Alpha MOs
 -- Occupied --
-18.937 -18.937 -18.936 -18.933 -18.889 -18.888 -18.883 -18.878
-18.875 -18.874 -10.105 -10.104 -10.102 -10.100 -10.074 -10.062
-10.062 -10.061 -10.059 -10.058 -10.047 -10.042 -10.041 -10.039
-10.039 -10.038 -10.022 -10.022 -10.021 -10.020  -1.020  -1.014
 -1.009  -1.006  -0.972  -0.970  -0.944  -0.937  -0.936  -0.935
 -0.766  -0.764  -0.729  -0.724  -0.712  -0.707  -0.698  -0.657
 -0.654  -0.618  -0.598  -0.581  -0.548  -0.545  -0.539  -0.537
 -0.512  -0.511  -0.487  -0.474  -0.459  -0.459  -0.454  -0.453
 -0.437  -0.432  -0.429  -0.419  -0.415  -0.408  -0.401  -0.398
 -0.391  -0.383  -0.373  -0.368  -0.364  -0.361  -0.355  -0.351
 -0.341  -0.341  -0.338  -0.332  -0.331  -0.327  -0.324  -0.312
 -0.311  -0.307  -0.306  -0.302  -0.292  -0.290  -0.285  -0.275
 -0.273  -0.263  -0.254  -0.245  -0.242  -0.236  -0.234  -0.185
 -0.178  -0.174  -0.171  -0.163  -0.158  -0.153  -0.150  -0.145
 -0.144

          Ground-State Mulliken Net Atomic Charges

     Atom                 Charge (a.u.)
  ----------------------------------------
      1 O                    -0.206299
      2 C                     0.213386
      3 C                    -0.078681
      4 C                    -0.078824
      5 C                     0.216625
      6 O                    -0.175374
      7 C                    -0.063017
      8 C                    -0.053845
      9 O                    -0.174060
     10 C                     0.211136
     11 C                    -0.078026
     12 C                    -0.079391
     13 C                     0.219231
     14 O                    -0.228389
     15 O                    -0.176102
     16 O                    -0.165870
     17 O                    -0.208267
     18 C                    -0.148143
     19 C                     0.024398
     20 C                    -0.144297
     21 C                    -0.143628
     22 C                     0.025438
     23 O                    -0.186712
     24 H                     0.086187
     25 H                     0.087027
     26 H                     0.091060
     27 H                     0.078862
     28 H                     0.073304
     29 H                     0.078477
     30 H                     0.073742
     31 H                     0.083392
     32 O                    -0.212152
     33 C                    -0.141758
     34 C                     0.024005
     35 C                    -0.143726
     36 C                    -0.144273
     37 C                     0.025813
     38 O                    -0.185679
     39 H                     0.083386
     40 H                     0.084291
     41 H                     0.088827
     42 H                     0.091131
     43 H                     0.078766
     44 H                     0.072803
     45 H                     0.078425
     46 H                     0.072934
     47 H                     0.083468
     48 H                     0.083332
     49 H                     0.113801
     50 H                     0.079390
     51 H                     0.083985
     52 H                     0.113277
     53 H                     0.100056
     54 H                     0.092366
     55 H                     0.099066
     56 H                     0.105128
  ----------------------------------------
  Sum of atomic charges =    -0.000000

                    Cartesian Multipole Moments
 -----------------------------------------------------------------
    Charge (ESU x 10^10)
                -0.0000
    Dipole Moment (Debye)
         X       1.5323      Y       1.6620      Z      -4.3547
       Tot       4.9065
    Quadrupole Moments (Debye-Ang)
        XX    -151.8544     XY      -1.0330     YY    -157.1222
        XZ       7.0986     YZ       4.3402     ZZ    -166.3698

 Total job time:  317.77s(wall), 9674.91s(cpu)
        *  Thank you very much for using Q-Chem.  Have a nice day.  *
