 Q-Chem 5.0, Q-Chem, Inc., Pleasanton, CA (2017)
 Q-Chem 5.0.1 for Intel X86 EM64T Linux

User input:
--------------------------------------------------------------
$molecule
0  1
O -3.94934 -3.66094 2.70899
C -3.26408 -4.56952 2.26188
C -3.36658 -6.02376 2.66595
C -2.56065 -6.46941 3.8971
C -1.88312 -5.37517 4.69188
O -0.61243 -5.18425 4.22891
C 0.08944 -4.14674 4.92187
C 1.37846 -4.6959 5.52433
O 2.09296 -3.64453 6.19291
C 1.3864 -2.96257 7.12825
C 2.13661 -1.77456 7.68184
C 2.1392 -0.5325 6.77875
C 1.12213 -0.5303 5.65524
O 0.0846 -1.17664 5.63712
O -2.20288 -4.25708 1.47315
O 1.41263 0.26627 4.59358
O 0.39599 -3.41485 7.69281
C 0.61174 0.39266 3.47766
C 1.51083 -1.17313 8.96339
C 2.57177 -0.39339 9.73997
C 2.75697 0.80723 8.83656
C 1.67341 0.52948 7.78939
O 0.66838 -0.14765 8.50291
H 3.16068 -2.12809 7.94024
H 3.139 -0.31267 6.3429
H 1.04303 -1.92979 9.63007
H 2.09526 -0.05311 10.68753
H 3.5002 -0.95459 9.98054
H 2.51815 1.72491 9.41869
H 3.76117 0.90104 8.36913
H 1.36264 1.47566 7.29243
O -2.31756 -4.94686 5.75725
C -1.87369 -2.97542 1.08439
C -4.79859 -6.36898 3.13005
C -5.04771 -7.87067 2.9974
C -4.2006 -8.39415 4.13473
C -3.70712 -7.07555 4.73986
O -4.7692 -6.1827 4.52119
H -3.15347 -6.62615 1.75432
H -1.80738 -7.26038 3.6805
H -1.65637 -2.34914 1.97633
H -5.58458 -5.80725 2.57827
H -6.11904 -8.05317 3.24088
H -4.82014 -8.29895 1.99757
H -4.8665 -8.92069 4.85443
H -3.3621 -9.06037 3.83748
H -3.41602 -7.23831 5.80134
H -2.70654 -2.52608 0.50232
H -0.96812 -3.01061 0.44479
H 1.08446 1.10293 2.76883
H -0.38678 0.78566 3.76568
H 0.49682 -0.592 2.97543
H 1.12599 -5.4963 6.25478
H 2.02117 -5.13689 4.73332
H -0.54283 -3.59208 5.63301
H 0.38052 -3.38707 4.16528
$end

$opt
CONSTRAINT
tors           1           2           3           4     -86.198
tors           3           4           5           6     -91.651
tors           4           5           6           7    +179.164
tors           5           6           7           8    +122.720
tors           6           7           8           9    +178.733
tors           7           8           9          10     +54.287
tors           8           9          10          11    -173.463
tors           9          10          11          12     +78.677
tors          11          12          13          14     +23.364
ENDCONSTRAINT
$end

$rem
JOBTYPE                   OPT
METHOD                    B3LYP
DFT_D                     d3_op
BASIS                     STO-3G
GEOM_OPT_MAX_CYCLES       100
GEOM_OPT_TOL_GRADIENT     300
GEOM_OPT_TOL_DISPLACEMENT 1200
GEOM_OPT_TOL_ENERGY       100
SYMMETRY                  False
THRESH                    12
SCF_CONVERGENCE           8
MAX_SUB_FILE_NUM          128
MEM_STATIC                400
MEM_TOTAL                 4000
$end
--------------------------------------------------------------

   15   -1510.1472434659      6.80E-09 Convergence criterion met
 Total energy in the final basis set = -1510.14724347
   14   -1510.2172325036      7.40E-09 Convergence criterion met
 Total energy in the final basis set = -1510.21723250
   14   -1510.2548528888      6.19E-09 Convergence criterion met
 Total energy in the final basis set = -1510.25485289
   14   -1510.2722251682      3.27E-09 Convergence criterion met
 Total energy in the final basis set = -1510.27222517
   13   -1510.2778794960      8.87E-09 Convergence criterion met
 Total energy in the final basis set = -1510.27787950
   14   -1510.2801070927      3.68E-09 Convergence criterion met
 Total energy in the final basis set = -1510.28010709
   13   -1510.2810881674      7.43E-09 Convergence criterion met
 Total energy in the final basis set = -1510.28108817
   13   -1510.2815034797      3.56E-09 Convergence criterion met
   11   -1510.2820624254      8.02E-09 Convergence criterion met
 Total energy in the final basis set = -1510.28206243
   11   -1510.2820864578      3.50E-09 Convergence criterion met
 Total energy in the final basis set = -1510.28208646
   10   -1510.2820982527      7.31E-09 Convergence criterion met
 Total energy in the final basis set = -1510.28209825
   11   -1510.2821080062      2.30E-09 Convergence criterion met
 Total energy in the final basis set = -1510.28210801
   10   -1510.2821131023      9.27E-09 Convergence criterion met
 Total energy in the final basis set = -1510.28211310
   11   -1510.2821156608      2.59E-09 Convergence criterion met
 Total energy in the final basis set = -1510.28211566

             Standard Nuclear Orientation (Angstroms)
    I     Atom           X                Y                Z
 ----------------------------------------------------------------
    1      O      -3.4154903609     1.6613909878     1.7099699643
    2      C      -3.7453840616     1.5313362503     0.5120872111
    3      C      -4.6700369062     0.4335835715    -0.1192176671
    4      C      -3.8636902199    -0.8870856365    -0.5048024624
    5      C      -2.3426795896    -0.7863318663    -0.1423084828
    6      O      -1.6515712639    -0.2745643090    -1.2916543233
    7      C      -0.2030325836    -0.1366385618    -1.0034686640
    8      C       0.5874704636    -0.9860121762    -2.0637623165
    9      O       2.0667122916    -0.9344490083    -1.9362750864
   10      C       2.5152750135    -1.2912157826    -0.6200000031
   11      C       4.0692737998    -1.0368946316    -0.5606980868
   12      C       4.5074212948     0.4725416240    -0.3671580207
   13      C       3.3016182784     1.4582533883    -0.2624472155
   14      O       2.1310634361     1.1864520241     0.0851949794
   15      O      -3.2610390742     2.3665735216    -0.5490108069
   16      O       3.7488018604     2.7741990570    -0.5995527340
   17      O       1.8050089166    -1.8169096341     0.2627674730
   18      C       2.6270770084     3.7345361140    -0.4723517633
   19      C       4.6782565291    -1.6985781313     0.7455820610
   20      C       6.2403397455    -1.8232781198     0.5644962064
   21      C       6.6858159761    -0.3246168018     0.7478973676
   22      C       5.2953862858     0.3770175684     1.0162962581
   23      O       4.5287431192    -0.6372095101     1.7695679041
   24      H       4.5178158650    -1.4519400397    -1.4813469361
   25      H       5.1712531210     0.8154431802    -1.1805178061
   26      H       4.1521579395    -2.6175413420     1.0682940251
   27      H       6.6704205691    -2.4710693131     1.3446804290
   28      H       6.5118600593    -2.2297872009    -0.4227504041
   29      H       7.3476464810    -0.2034249525     1.6201820901
   30      H       7.1931844751     0.0836957375    -0.1406525071
   31      H       5.3477904791     1.3292839465     1.5792328390
   32      O      -1.7921380914    -1.0905036112     0.9374856036
   33      C      -2.2723820005     3.3322097651    -0.0165440176
   34      C      -5.7002529946    -0.1487798556     0.9369925251
   35      C      -6.8107579295    -0.9542281699     0.1534641543
   36      C      -6.0183148809    -2.2558083600    -0.2423802616
   37      C      -4.6045621958    -1.9594223137     0.3980445635
   38      O      -4.9281617672    -1.2043759903     1.6296748486
   39      H      -5.1723869507     0.8585872382    -1.0061493145
   40      H      -3.9553738669    -1.1027586351    -1.5839713007
   41      H      -1.3811993379     2.8135440266     0.3936493126
   42      H      -6.0760401103     0.5944575984     1.6665350289
   43      H      -7.6597511517    -1.1843984147     0.8165192934
   44      H      -7.1846581097    -0.4006560585    -0.7224585623
   45      H      -6.4660126745    -3.1552401248     0.2096056933
   46      H      -5.9570315759    -2.4020072665    -1.3327305415
   47      H      -3.9941665459    -2.8501984611     0.6426112862
   48      H      -2.7070649172     3.9675398830     0.7817556572
   49      H      -1.9711961043     3.9646409705    -0.8717635830
   50      H       3.0434477577     4.7259991371    -0.7283419845
   51      H       2.2220829470     3.7551436136     0.5600694634
   52      H       1.8004896738     3.4881222101    -1.1698866497
   53      H       0.2354655488    -2.0400112154    -1.9966241281
   54      H       0.3776629687    -0.6122124951    -3.0863775494
   55      H       0.0007748122    -0.5157346864     0.0202231615
   56      H       0.0812413578     0.9335241191    -1.0684103382
 ----------------------------------------------------------------

   10   -1510.2821166132      5.32E-09 Convergence criterion met
 Total energy in the final basis set = -1510.28211661
 Final energy is   -1510.28211661323
 **  OPTIMIZATION CONVERGED  **

                    Orbital Energies (a.u.)
 --------------------------------------------------------------

 Alpha MOs
 -- Occupied --
-18.943 -18.930 -18.925 -18.924 -18.888 -18.883 -18.883 -18.874
-18.872 -18.870 -10.106 -10.096 -10.093 -10.093 -10.071 -10.067
-10.062 -10.061 -10.057 -10.056 -10.055 -10.052 -10.041 -10.035
-10.035 -10.034 -10.021 -10.019 -10.017 -10.016  -1.019  -1.009
 -1.004  -1.001  -0.971  -0.965  -0.943  -0.933  -0.931  -0.929
 -0.764  -0.760  -0.725  -0.721  -0.710  -0.703  -0.691  -0.669
 -0.660  -0.615  -0.595  -0.579  -0.546  -0.543  -0.536  -0.533
 -0.513  -0.506  -0.474  -0.469  -0.462  -0.457  -0.453  -0.450
 -0.434  -0.430  -0.425  -0.418  -0.413  -0.410  -0.407  -0.395
 -0.381  -0.378  -0.371  -0.366  -0.359  -0.356  -0.352  -0.351
 -0.344  -0.343  -0.337  -0.331  -0.327  -0.326  -0.322  -0.311
 -0.306  -0.305  -0.302  -0.300  -0.292  -0.281  -0.275  -0.273
 -0.271  -0.260  -0.251  -0.248  -0.238  -0.234  -0.229  -0.185
 -0.177  -0.173  -0.162  -0.160  -0.154  -0.146  -0.145  -0.144
 -0.139

          Ground-State Mulliken Net Atomic Charges

     Atom                 Charge (a.u.)
  ----------------------------------------
      1 O                    -0.205032
      2 C                     0.204508
      3 C                    -0.078029
      4 C                    -0.077557
      5 C                     0.205739
      6 O                    -0.176870
      7 C                    -0.062877
      8 C                    -0.049055
      9 O                    -0.177747
     10 C                     0.215618
     11 C                    -0.080082
     12 C                    -0.078877
     13 C                     0.212531
     14 O                    -0.211848
     15 O                    -0.170075
     16 O                    -0.168312
     17 O                    -0.207701
     18 C                    -0.128526
     19 C                     0.025351
     20 C                    -0.144318
     21 C                    -0.143509
     22 C                     0.026082
     23 O                    -0.186270
     24 H                     0.084080
     25 H                     0.087067
     26 H                     0.090623
     27 H                     0.078740
     28 H                     0.073268
     29 H                     0.078651
     30 H                     0.073765
     31 H                     0.083556
     32 O                    -0.199990
     33 C                    -0.129492
     34 C                     0.025867
     35 C                    -0.144035
     36 C                    -0.144127
     37 C                     0.025882
     38 O                    -0.183209
     39 H                     0.085175
     40 H                     0.085433
     41 H                     0.089687
     42 H                     0.085707
     43 H                     0.077835
     44 H                     0.072500
     45 H                     0.077865
     46 H                     0.072449
     47 H                     0.087030
     48 H                     0.089267
     49 H                     0.087373
     50 H                     0.092261
     51 H                     0.091374
     52 H                     0.087503
     53 H                     0.083245
     54 H                     0.087143
     55 H                     0.118829
     56 H                     0.085535
  ----------------------------------------
  Sum of atomic charges =    -0.000000

                    Cartesian Multipole Moments
 -----------------------------------------------------------------
    Charge (ESU x 10^10)
                -0.0000
    Dipole Moment (Debye)
         X       1.3152      Y       1.6899      Z      -4.2218
       Tot       4.7338
    Quadrupole Moments (Debye-Ang)
        XX    -134.0477     XY       1.5708     YY    -147.6927
        XZ       5.3867     YZ       4.3965     ZZ    -169.4579

 Total job time:  100.79s(wall), 2786.62s(cpu)
        *  Thank you very much for using Q-Chem.  Have a nice day.  *
