 Q-Chem 5.0, Q-Chem, Inc., Pleasanton, CA (2017)
 Q-Chem 5.0.1 for Intel X86 EM64T Linux

User input:
--------------------------------------------------------------
$molecule
0  1
O -3.4435034548 2.3338216643 1.9039263408
C -3.1544285876 1.5421477536 0.9792794764
C -4.193859824 0.9364246031 -0.0457662963
C -3.9510186759 -0.5401816033 -0.5848700135
C -2.5178224035 -1.1280098605 -0.3593137717
O -1.6477762516 -0.5419671186 -1.3416007959
C -0.2390482998 -0.6978924095 -0.9207290395
C 0.6479196921 -1.2552321603 -2.0909086239
O 2.0922632899 -1.0223468076 -1.8226159935
C 2.5130446291 -1.4454043866 -0.5193803221
C 4.043126393 -1.1060516986 -0.4298799566
C 4.3150914205 0.4543279224 -0.5577105958
C 2.9909617642 1.2933432988 -0.6048394609
O 1.9806789147 1.1532164475 0.1244475021
O -1.8256279493 1.1252807037 0.6782280918
O 3.1071489714 2.2905644456 -1.619882986
O 1.8241818537 -2.0552780018 0.3241685822
C 1.8623331197 3.0938061218 -1.6856089444
C 4.6440543165 -1.4110752849 1.0020949806
C 6.2174252858 -1.4386007063 0.8790711302
C 6.5315478331 0.0934305746 0.7000210251
C 5.0846344001 0.7199332022 0.8098508666
O 4.3815252434 -0.1662922621 1.7628710594
H 4.5695598956 -1.6610453767 -1.2273911734
H 4.9286897438 0.7067397599 -1.4398501265
H 4.1788933337 -2.2784827 1.5099166721
H 6.6685507238 -1.8376708251 1.8014668416
H 6.5592997203 -2.0463020409 0.0261852369
H 7.1784524675 0.4728726481 1.506778097
H 7.0047406854 0.3199433086 -0.2687729966
H 5.0516876737 1.770306617 1.1591479731
O -2.1597006762 -1.9474238648 0.5134199311
C -0.8577007583 1.7085017883 1.6400220129
C -5.5587017037 0.7246460995 0.7330903191
C -6.7220037573 0.4114993887 -0.2891486876
C -6.4433953779 -1.1017520406 -0.623115899
C -5.1004846236 -1.3349800575 0.1719372531
O -5.3202235216 -0.5679464245 1.4191712064
H -4.2929631842 1.6470461953 -0.887614804
H -4.1307885781 -0.5481311132 -1.6755225427
H -0.9241400189 1.2001870216 2.6232404579
H -5.7656150345 1.5237684237 1.4715660328
H -7.7053141816 0.5491610047 0.1874891743
H -6.6691834377 1.0571310175 -1.1805523511
H -7.2396145754 -1.7528087224 -0.2279376011
H -6.3344144581 -1.2900148269 -1.7030625658
H -4.8495757635 -2.388196161 0.404206516
H -1.0430157973 2.7910068612 1.7882748474
H 0.1491111397 1.5470198521 1.2035477066
H 2.0282541916 3.8490072104 -2.4754212028
H 1.6526524813 3.6018545917 -0.7223034086
H 0.9876983514 2.4651838167 -1.9506990675
H 0.4529586466 -2.3392476599 -2.2456569073
H 0.437556777 -0.7152272031 -3.0365053604
H -0.1812924499 -1.3841265666 -0.0518540795
H 0.163495979 0.294753267 -0.6254671444
$end

$rem
JOBTYPE                   OPT
METHOD                    B3LYP
DFT_D                     d3_op
BASIS                     STO-3G
GEOM_OPT_MAX_CYCLES       100
GEOM_OPT_TOL_GRADIENT     300
GEOM_OPT_TOL_DISPLACEMENT 1200
GEOM_OPT_TOL_ENERGY       100
SYMMETRY                  False
THRESH                    12
SCF_CONVERGENCE           8
MAX_SUB_FILE_NUM          128
MEM_STATIC                400
MEM_TOTAL                 4000
$end
--------------------------------------------------------------

   16   -1510.2825538949      3.19E-09 Convergence criterion met
 Total energy in the final basis set = -1510.28255389
   14   -1510.2822137990      5.58E-09 Convergence criterion met
 Total energy in the final basis set = -1510.28221380
   14   -1510.2842487333      9.87E-09 Convergence criterion met
 Total energy in the final basis set = -1510.28424873
   15   -1510.2798813938      2.88E-09 Convergence criterion met
 Total energy in the final basis set = -1510.27988139
   14   -1510.2843633408      6.70E-09 Convergence criterion met
 Total energy in the final basis set = -1510.28436334
   14   -1510.2863147004      6.80E-09 Convergence criterion met
 Total energy in the final basis set = -1510.28631470
   13   -1510.2876317893      6.72E-09 Convergence criterion met
 Total energy in the final basis set = -1510.28763179
   13   -1510.2889257936      5.04E-09 Convergence criterion met
   12   -1510.3001729166      5.31E-09 Convergence criterion met
 Total energy in the final basis set = -1510.30017292
   11   -1510.3001699695      9.61E-09 Convergence criterion met
 Total energy in the final basis set = -1510.30016997
   11   -1510.3001761392      9.43E-09 Convergence criterion met
 Total energy in the final basis set = -1510.30017614
   11   -1510.3001755922      5.19E-09 Convergence criterion met
 Total energy in the final basis set = -1510.30017559
   11   -1510.3001802537      5.06E-09 Convergence criterion met
 Total energy in the final basis set = -1510.30018025
   11   -1510.3001775428      4.13E-09 Convergence criterion met
 Total energy in the final basis set = -1510.30017754

             Standard Nuclear Orientation (Angstroms)
    I     Atom           X                Y                Z
 ----------------------------------------------------------------
    1      O       3.5214474809    -2.0052650595     2.3300072905
    2      C       3.0344834632    -1.5653380376     1.2685084027
    3      C       3.7655409950    -1.2737175839    -0.0920836196
    4      C       3.3821673787     0.1297043242    -0.7321652485
    5      C       2.4186377127     0.9704071215     0.1732252208
    6      O       1.1428542972     1.0986606150    -0.4906249002
    7      C       0.1821119698     1.8087339094     0.3927814816
    8      C      -0.7730883665     2.6896249018    -0.4839112427
    9      O      -1.9323607705     1.8941170248    -0.9610442333
   10      C      -3.0204678379     2.0134313318    -0.0312853637
   11      C      -4.1845823401     1.0690490740    -0.4945905537
   12      C      -3.7626519443    -0.4545831278    -0.6472264290
   13      C      -2.2498758036    -0.7162295937    -0.3272019000
   14      O      -1.6742090967    -0.5462216911     0.7754648254
   15      O       1.6572921599    -1.2482325106     1.0638847713
   16      O      -1.6353325816    -1.2035468757    -1.5114989115
   17      O      -3.0191747024     2.7769483571     0.9577770070
   18      C      -0.1779141802    -1.4106816497    -1.3185014490
   19      C      -5.3004962880     0.9659354318     0.6254322552
   20      C      -6.6039218236     0.3524710732    -0.0201829527
   21      C      -6.1863644396    -1.1584045140    -0.1671955280
   22      C      -4.7222435713    -1.1301075139     0.4257494643
   23      O      -4.8004070879    -0.1183928893     1.5024269836
   24      H      -4.5891984626     1.4566037012    -1.4478800868
   25      H      -3.9615179072    -0.8235615327    -1.6682215916
   26      H      -5.4375638366     1.8990619093     1.2059297710
   27      H      -7.4628741254     0.4696474664     0.6593293533
   28      H      -6.8491517209     0.8227892063    -0.9856362713
   29      H      -6.8318343493    -1.8166357499     0.4360399200
   30      H      -6.2049500105    -1.5063164883    -1.2125056700
   31      H      -4.3562238724    -2.0950793491     0.8269540535
   32      O       2.6870135528     1.5166448738     1.2643106880
   33      C       0.8485917894    -1.4151526414     2.2920318992
   34      C       5.3287684946    -1.1127667289     0.0979585744
   35      C       6.0161886989    -1.2619169811    -1.3145792357
   36      C       5.6273292443     0.1088503692    -1.9844166371
   37      C       4.8182561598     0.8040632927    -0.8184830783
   38      O       5.4912713002     0.3268972651     0.4105176229
   39      H       3.5256038271    -2.0946276364    -0.7932381340
   40      H       2.9158227414     0.0077700069    -1.7252066651
   41      H       1.1672612306    -0.7017666004     3.0787741846
   42      H       5.7467110282    -1.7366214065     0.9119962857
   43      H       7.1076924524    -1.3615337962    -1.2039199033
   44      H       5.6358074333    -2.1324934145    -1.8722666825
   45      H       6.5199912400     0.7021267014    -2.2390224286
   46      H       5.0180188072    -0.0183063032    -2.8937866047
   47      H       4.8043425548     1.9108137096    -0.8465648898
   48      H       0.9247442301    -2.4465959622     2.6910708169
   49      H      -0.1913972403    -1.1941852721     1.9696245399
   50      H       0.1978056372    -1.7787459876    -2.2903704124
   51      H       0.0214048668    -2.1694794897    -0.5363292562
   52      H       0.3414365485    -0.4603086364    -1.0374796442
   53      H      -1.1419716170     3.5433578936     0.1241422944
   54      H      -0.2431303188     3.0591789212    -1.3849962531
   55      H       0.7541968920     2.4207879051     1.1221054590
   56      H      -0.4257724373     1.0468002174     0.9342343364
 ----------------------------------------------------------------

    9   -1510.3001768086      5.93E-09 Convergence criterion met
 Total energy in the final basis set = -1510.30017681
 Final energy is   -1510.30017680856
 **  OPTIMIZATION CONVERGED  **

                    Orbital Energies (a.u.)
 --------------------------------------------------------------

 Alpha MOs
 -- Occupied --
-18.937 -18.936 -18.936 -18.933 -18.889 -18.888 -18.883 -18.879
-18.877 -18.873 -10.104 -10.104 -10.103 -10.100 -10.073 -10.062
-10.062 -10.061 -10.059 -10.058 -10.050 -10.042 -10.041 -10.040
-10.039 -10.038 -10.022 -10.022 -10.021 -10.021  -1.019  -1.015
 -1.009  -1.006  -0.972  -0.970  -0.943  -0.938  -0.936  -0.936
 -0.766  -0.764  -0.729  -0.724  -0.712  -0.707  -0.698  -0.657
 -0.655  -0.618  -0.598  -0.581  -0.548  -0.545  -0.539  -0.537
 -0.512  -0.511  -0.487  -0.474  -0.459  -0.458  -0.455  -0.453
 -0.437  -0.432  -0.429  -0.418  -0.416  -0.409  -0.401  -0.398
 -0.391  -0.383  -0.372  -0.367  -0.364  -0.362  -0.354  -0.351
 -0.342  -0.341  -0.338  -0.332  -0.331  -0.327  -0.324  -0.312
 -0.311  -0.307  -0.306  -0.302  -0.293  -0.289  -0.285  -0.275
 -0.273  -0.263  -0.254  -0.245  -0.241  -0.236  -0.234  -0.186
 -0.178  -0.174  -0.171  -0.163  -0.159  -0.153  -0.151  -0.145
 -0.144

          Ground-State Mulliken Net Atomic Charges

     Atom                 Charge (a.u.)
  ----------------------------------------
      1 O                    -0.206168
      2 C                     0.212972
      3 C                    -0.078446
      4 C                    -0.078893
      5 C                     0.216633
      6 O                    -0.174996
      7 C                    -0.063635
      8 C                    -0.053971
      9 O                    -0.174378
     10 C                     0.211105
     11 C                    -0.078235
     12 C                    -0.079157
     13 C                     0.218229
     14 O                    -0.227958
     15 O                    -0.176112
     16 O                    -0.166391
     17 O                    -0.208637
     18 C                    -0.147592
     19 C                     0.024512
     20 C                    -0.144149
     21 C                    -0.143713
     22 C                     0.025497
     23 O                    -0.186759
     24 H                     0.085950
     25 H                     0.087181
     26 H                     0.090886
     27 H                     0.078766
     28 H                     0.073248
     29 H                     0.078368
     30 H                     0.073778
     31 H                     0.083092
     32 O                    -0.211610
     33 C                    -0.140304
     34 C                     0.023875
     35 C                    -0.143744
     36 C                    -0.144126
     37 C                     0.025793
     38 O                    -0.185687
     39 H                     0.083565
     40 H                     0.084725
     41 H                     0.088655
     42 H                     0.091207
     43 H                     0.078785
     44 H                     0.072753
     45 H                     0.078460
     46 H                     0.072873
     47 H                     0.083825
     48 H                     0.084467
     49 H                     0.112796
     50 H                     0.079217
     51 H                     0.083188
     52 H                     0.113835
     53 H                     0.100107
     54 H                     0.091872
     55 H                     0.100074
     56 H                     0.104371
  ----------------------------------------
  Sum of atomic charges =    -0.000000

                    Cartesian Multipole Moments
 -----------------------------------------------------------------
    Charge (ESU x 10^10)
                -0.0000
    Dipole Moment (Debye)
         X      -1.5613      Y      -0.9651      Z      -4.5028
       Tot       4.8625
    Quadrupole Moments (Debye-Ang)
        XX    -153.3562     XY      -0.8520     YY    -155.7778
        XZ      -6.8021     YZ      -2.3492     ZZ    -167.1041

 Total job time:  108.09s(wall), 5152.71s(cpu)
        *  Thank you very much for using Q-Chem.  Have a nice day.  *
