 Q-Chem 5.0, Q-Chem, Inc., Pleasanton, CA (2017)
 Q-Chem 5.0.1 for Intel X86 EM64T Linux

User input:
--------------------------------------------------------------
$molecule
0  1
O -3.94934 -3.66094 2.70899
C -3.26408 -4.56952 2.26188
C -3.36658 -6.02376 2.66595
C -2.06641 -6.84434 2.67309
C -0.78291 -6.07628 2.4477
O -0.64415 -5.78371 1.12084
C 0.28854 -4.72667 0.8718
C 1.26126 -5.13281 -0.23047
O 1.91606 -3.96873 -0.75871
C 2.45676 -3.13475 0.16393
C 3.11904 -1.92554 -0.4524
C 2.17779 -1.00379 -1.24152
C 0.69563 -1.21569 -1.00705
O 0.16594 -1.37337 0.08343
O -2.82009 -4.41068 0.99537
O -0.053 -1.14006 -2.13769
O 2.68095 -3.43194 1.32993
C -1.37638 -1.47199 -2.26313
C 3.72252 -0.92991 0.56068
C 4.79775 -0.08504 -0.12262
C 3.94328 0.7997 -1.00542
C 2.54422 0.34143 -0.58175
O 2.69549 0.00327 0.77622
H 3.92973 -2.32108 -1.10529
H 2.37627 -0.98211 -2.33687
H 4.14627 -1.41308 1.46736
H 5.27069 0.54878 0.66155
H 5.58559 -0.66426 -0.65059
H 4.10788 1.85844 -0.70478
H 4.10801 0.68476 -2.09862
H 1.79631 1.13536 -0.8034
O 0.06752 -5.87216 3.30807
C -3.03872 -3.28904 0.23162
C -3.80704 -6.18029 4.13671
C -4.42832 -7.55944 4.35377
C -3.19617 -8.43367 4.29383
C -2.10868 -7.36789 4.1264
O -2.59989 -6.26726 4.84941
H -4.13882 -6.4745 2.00265
H -2.0744 -7.69946 1.96043
H -2.50952 -2.41374 0.6645
H -4.51788 -5.39521 4.4749
H -4.83105 -7.58745 5.39169
H -5.23604 -7.82444 3.63801
H -3.07953 -8.94319 5.27647
H -3.18337 -9.18466 3.47458
H -1.13094 -7.77766 4.46345
H -4.12725 -3.07964 0.15393
H -2.67638 -3.5091 -0.78018
H -1.72647 -1.17518 -3.27287
H -1.99113 -0.94867 -1.50011
H -1.46375 -2.56872 -2.19915
H 1.99897 -5.85961 0.17368
H 0.71151 -5.61497 -1.06669
H 0.72776 -4.30638 1.79096
H -0.31224 -3.90164 0.44193
$end

$opt
CONSTRAINT
tors           1           2           3           4    -146.425
tors           3           4           5           6     -77.348
tors           4           5           6           7    +161.508
tors           5           6           7           8    +131.715
tors           6           7           8           9    +162.573
tors           7           8           9          10     +49.817
tors           8           9          10          11    -179.497
tors           9          10          11          12     +62.234
tors          11          12          13          14     +44.498
ENDCONSTRAINT
$end

$rem
JOBTYPE                   OPT
METHOD                    B3LYP
DFT_D                     d3_op
BASIS                     STO-3G
GEOM_OPT_MAX_CYCLES       100
GEOM_OPT_TOL_GRADIENT     300
GEOM_OPT_TOL_DISPLACEMENT 1200
GEOM_OPT_TOL_ENERGY       100
SYMMETRY                  False
THRESH                    12
SCF_CONVERGENCE           8
MAX_SUB_FILE_NUM          128
MEM_STATIC                400
MEM_TOTAL                 4000
$end
--------------------------------------------------------------

   15   -1510.1342737633      7.25E-09 Convergence criterion met
 Total energy in the final basis set = -1510.13427376
   14   -1510.2057657800      6.33E-09 Convergence criterion met
 Total energy in the final basis set = -1510.20576578
   14   -1510.2429260818      6.88E-09 Convergence criterion met
 Total energy in the final basis set = -1510.24292608
   15   -1510.2607287835      2.20E-09 Convergence criterion met
 Total energy in the final basis set = -1510.26072878
    2   -1510.2607287834      1.08E-09 Convergence criterion met
 Total energy in the final basis set = -1510.26072878
   14   -1510.2699257258      4.37E-09 Convergence criterion met
 Total energy in the final basis set = -1510.26992573
   13   -1510.2744626600      9.73E-09 Convergence criterion met
 Total energy in the final basis set = -1510.27446266
   14   -1510.2768643186      4.08E-09 Convergence criterion met
   11   -1510.2826570769      6.91E-09 Convergence criterion met
 Total energy in the final basis set = -1510.28265708
   10   -1510.2826805403      6.29E-09 Convergence criterion met
 Total energy in the final basis set = -1510.28268054
   11   -1510.2826885129      3.90E-09 Convergence criterion met
 Total energy in the final basis set = -1510.28268851
    9   -1510.2826917859      5.86E-09 Convergence criterion met
 Total energy in the final basis set = -1510.28269179
    9   -1510.2826932269      7.39E-09 Convergence criterion met
 Total energy in the final basis set = -1510.28269323
    9   -1510.2826948790      4.81E-09 Convergence criterion met
 Total energy in the final basis set = -1510.28269488

             Standard Nuclear Orientation (Angstroms)
    I     Atom           X                Y                Z
 ----------------------------------------------------------------
    1      O      -3.4435034548     2.3338216643     1.9039263408
    2      C      -3.1544285876     1.5421477536     0.9792794764
    3      C      -4.1938598240     0.9364246031    -0.0457662963
    4      C      -3.9510186759    -0.5401816033    -0.5848700135
    5      C      -2.5178224035    -1.1280098605    -0.3593137717
    6      O      -1.6477762516    -0.5419671186    -1.3416007959
    7      C      -0.2390482998    -0.6978924095    -0.9207290395
    8      C       0.6479196921    -1.2552321603    -2.0909086239
    9      O       2.0922632899    -1.0223468076    -1.8226159935
   10      C       2.5130446291    -1.4454043866    -0.5193803221
   11      C       4.0431263930    -1.1060516986    -0.4298799566
   12      C       4.3150914205     0.4543279224    -0.5577105958
   13      C       2.9909617642     1.2933432988    -0.6048394609
   14      O       1.9806789147     1.1532164475     0.1244475021
   15      O      -1.8256279493     1.1252807037     0.6782280918
   16      O       3.1071489714     2.2905644456    -1.6198829860
   17      O       1.8241818537    -2.0552780018     0.3241685822
   18      C       1.8623331197     3.0938061218    -1.6856089444
   19      C       4.6440543165    -1.4110752849     1.0020949806
   20      C       6.2174252858    -1.4386007063     0.8790711302
   21      C       6.5315478331     0.0934305746     0.7000210251
   22      C       5.0846344001     0.7199332022     0.8098508666
   23      O       4.3815252434    -0.1662922621     1.7628710594
   24      H       4.5695598956    -1.6610453767    -1.2273911734
   25      H       4.9286897438     0.7067397599    -1.4398501265
   26      H       4.1788933337    -2.2784827000     1.5099166721
   27      H       6.6685507238    -1.8376708251     1.8014668416
   28      H       6.5592997203    -2.0463020409     0.0261852369
   29      H       7.1784524675     0.4728726481     1.5067780970
   30      H       7.0047406854     0.3199433086    -0.2687729966
   31      H       5.0516876737     1.7703066170     1.1591479731
   32      O      -2.1597006762    -1.9474238648     0.5134199311
   33      C      -0.8577007583     1.7085017883     1.6400220129
   34      C      -5.5587017037     0.7246460995     0.7330903191
   35      C      -6.7220037573     0.4114993887    -0.2891486876
   36      C      -6.4433953779    -1.1017520406    -0.6231158990
   37      C      -5.1004846236    -1.3349800575     0.1719372531
   38      O      -5.3202235216    -0.5679464245     1.4191712064
   39      H      -4.2929631842     1.6470461953    -0.8876148040
   40      H      -4.1307885781    -0.5481311132    -1.6755225427
   41      H      -0.9241400189     1.2001870216     2.6232404579
   42      H      -5.7656150345     1.5237684237     1.4715660328
   43      H      -7.7053141816     0.5491610047     0.1874891743
   44      H      -6.6691834377     1.0571310175    -1.1805523511
   45      H      -7.2396145754    -1.7528087224    -0.2279376011
   46      H      -6.3344144581    -1.2900148269    -1.7030625658
   47      H      -4.8495757635    -2.3881961610     0.4042065160
   48      H      -1.0430157973     2.7910068612     1.7882748474
   49      H       0.1491111397     1.5470198521     1.2035477066
   50      H       2.0282541916     3.8490072104    -2.4754212028
   51      H       1.6526524813     3.6018545917    -0.7223034086
   52      H       0.9876983514     2.4651838167    -1.9506990675
   53      H       0.4529586466    -2.3392476599    -2.2456569073
   54      H       0.4375567770    -0.7152272031    -3.0365053604
   55      H      -0.1812924499    -1.3841265666    -0.0518540795
   56      H       0.1634959790     0.2947532670    -0.6254671444
 ----------------------------------------------------------------

    9   -1510.2826951104      9.27E-09 Convergence criterion met
 Total energy in the final basis set = -1510.28269511
 Final energy is   -1510.28269511037
 **  OPTIMIZATION CONVERGED  **

                    Orbital Energies (a.u.)
 --------------------------------------------------------------

 Alpha MOs
 -- Occupied --
-18.948 -18.932 -18.931 -18.916 -18.891 -18.883 -18.881 -18.880
-18.868 -18.867 -10.110 -10.103 -10.094 -10.093 -10.073 -10.070
-10.065 -10.060 -10.053 -10.052 -10.050 -10.047 -10.043 -10.040
-10.035 -10.031 -10.024 -10.022 -10.016 -10.015  -1.023  -1.010
 -1.008  -0.997  -0.973  -0.964  -0.945  -0.940  -0.930  -0.926
 -0.767  -0.757  -0.728  -0.719  -0.712  -0.701  -0.691  -0.671
 -0.653  -0.615  -0.597  -0.581  -0.548  -0.540  -0.538  -0.532
 -0.515  -0.503  -0.479  -0.473  -0.465  -0.458  -0.455  -0.444
 -0.436  -0.432  -0.422  -0.419  -0.413  -0.410  -0.401  -0.395
 -0.387  -0.383  -0.374  -0.367  -0.362  -0.358  -0.354  -0.353
 -0.342  -0.337  -0.334  -0.328  -0.327  -0.324  -0.322  -0.313
 -0.308  -0.306  -0.301  -0.299  -0.291  -0.289  -0.282  -0.277
 -0.266  -0.263  -0.252  -0.240  -0.237  -0.236  -0.228  -0.188
 -0.180  -0.172  -0.165  -0.158  -0.152  -0.151  -0.147  -0.144
 -0.138

          Ground-State Mulliken Net Atomic Charges

     Atom                 Charge (a.u.)
  ----------------------------------------
      1 O                    -0.215984
      2 C                     0.210260
      3 C                    -0.076093
      4 C                    -0.080562
      5 C                     0.217868
      6 O                    -0.179146
      7 C                    -0.066100
      8 C                    -0.050734
      9 O                    -0.179269
     10 C                     0.215387
     11 C                    -0.078621
     12 C                    -0.077721
     13 C                     0.216869
     14 O                    -0.220578
     15 O                    -0.170552
     16 O                    -0.164510
     17 O                    -0.203985
     18 C                    -0.128935
     19 C                     0.024615
     20 C                    -0.143548
     21 C                    -0.143918
     22 C                     0.025455
     23 O                    -0.186397
     24 H                     0.086052
     25 H                     0.088083
     26 H                     0.092049
     27 H                     0.079254
     28 H                     0.073728
     29 H                     0.078889
     30 H                     0.074038
     31 H                     0.082243
     32 O                    -0.210193
     33 C                    -0.136117
     34 C                     0.023254
     35 C                    -0.145414
     36 C                    -0.142878
     37 C                     0.023758
     38 O                    -0.190318
     39 H                     0.083345
     40 H                     0.082289
     41 H                     0.089413
     42 H                     0.090397
     43 H                     0.077716
     44 H                     0.071926
     45 H                     0.077352
     46 H                     0.071871
     47 H                     0.087767
     48 H                     0.087264
     49 H                     0.107034
     50 H                     0.093213
     51 H                     0.090285
     52 H                     0.091155
     53 H                     0.083998
     54 H                     0.088554
     55 H                     0.114788
     56 H                     0.091403
  ----------------------------------------
  Sum of atomic charges =    -0.000000

                    Cartesian Multipole Moments
 -----------------------------------------------------------------
    Charge (ESU x 10^10)
                -0.0000
    Dipole Moment (Debye)
         X       2.4375      Y       1.4845      Z      -4.2152
       Tot       5.0905
    Quadrupole Moments (Debye-Ang)
        XX    -139.9147     XY      -0.5012     YY    -156.7141
        XZ       8.7220     YZ       1.0397     ZZ    -165.0678

 Total job time:  84.62s(wall), 3699.07s(cpu)
        *  Thank you very much for using Q-Chem.  Have a nice day.  *
