 Q-Chem 5.0, Q-Chem, Inc., Pleasanton, CA (2017)
 Q-Chem 5.0.1 for Intel X86 EM64T Linux

User input:
--------------------------------------------------------------
$molecule
0  1
O -3.628756602 1.7998841788 1.8511776168
C -3.4707024557 1.5186628182 0.6432324779
C -4.4244644353 0.6532029763 -0.2560114665
C -3.9579012395 -0.8659260856 -0.3711450924
C -2.5190486034 -1.1028432467 0.1959263212
O -1.5961926349 -0.754686177 -0.8450029854
C -0.1981576907 -0.823678023 -0.3599383853
C 0.5603431443 -1.9796752644 -1.1178945081
O 2.0043973183 -1.7173767623 -1.3463589693
C 2.6679705771 -1.2948628533 -0.1495809222
C 4.1278595112 -0.8698762481 -0.5282763684
C 4.3151278173 0.7074100518 -0.6307944091
C 2.9894608402 1.5449549567 -0.5925067588
O 2.5708107807 2.2804573886 0.3279187131
O -2.3394974836 1.9278101793 -0.138413511
O 2.3362968716 1.3870261105 -1.8614479286
O 2.1504768959 -1.2882600542 0.9878205163
C 1.1708451359 2.297501269 -1.9703465904
C 5.1079321773 -1.1900581562 0.6773381315
C 6.5998948745 -0.9926328408 0.1941582665
C 6.725379661 0.5765612731 0.2113963926
C 5.2561684821 0.9874333409 0.6155122777
O 4.873113259 -0.0532015314 1.5966487774
H 4.4154448618 -1.3694950808 -1.469731944
H 4.823787153 0.9561005323 -1.5801755503
H 4.8984157884 -2.1487794733 1.1898917888
H 7.3009774838 -1.463975293 0.9007333614
H 6.7674429867 -1.4198633577 -0.8074808457
H 7.4407189363 0.9143297789 0.9783461641
H 7.0266990222 0.9936627807 -0.7627203186
H 5.137044661 1.9963589813 1.0558077825
O -2.1894422643 -1.4868733803 1.3385310616
C -1.388777011 2.6944494599 0.7029508943
C -5.8154946797 0.4646832251 0.4788597465
C -6.841967578 -0.2105895024 -0.5150496115
C -6.3653303231 -1.7104673088 -0.4827894985
C -5.0986293277 -1.5995250816 0.4525062578
O -5.5140342661 -0.6013277467 1.4637564774
H -4.5136413001 1.1202576483 -1.2530424202
H -3.9592423033 -1.1790094389 -1.4306164611
H -0.4579233615 2.1086122239 0.8392592577
H -6.1799047331 1.3725780274 0.9968399076
H -7.8714526311 -0.1042953382 -0.1381310573
H -6.7891720166 0.2292478985 -1.5239548982
H -7.1242683833 -2.3635018568 -0.0230441624
H -6.1188860774 -2.1034317691 -1.4820848041
H -4.7775136279 -2.5380954256 0.9442589848
H -1.8490269344 2.8938216664 1.6915922413
H -1.1518520014 3.6445224557 0.1869301791
H 0.2578631347 1.7048541283 -2.1749620288
H 1.3445973699 2.9970484596 -2.8116275516
H 1.0520171784 2.8631833363 -1.0250163193
H 0.4242019164 -2.9370081464 -0.5682660218
H 0.1296497275 -2.0922004534 -2.134074616
H -0.1912057313 -0.9956854887 0.7357835557
H 0.282571687 0.14729091 -0.5919496327
$end

$rem
JOBTYPE                   OPT
METHOD                    B3LYP
DFT_D                     d3_op
BASIS                     STO-3G
GEOM_OPT_MAX_CYCLES       100
GEOM_OPT_TOL_GRADIENT     300
GEOM_OPT_TOL_DISPLACEMENT 1200
GEOM_OPT_TOL_ENERGY       100
SYMMETRY                  False
THRESH                    12
SCF_CONVERGENCE           8
MAX_SUB_FILE_NUM          128
MEM_STATIC                400
MEM_TOTAL                 4000
$end
--------------------------------------------------------------

   16   -1510.2788488195      6.27E-09 Convergence criterion met
 Total energy in the final basis set = -1510.27884882
   13   -1510.2792404541      6.99E-09 Convergence criterion met
 Total energy in the final basis set = -1510.27924045
   13   -1510.2797622522      5.37E-09 Convergence criterion met
 Total energy in the final basis set = -1510.27976225
   14   -1510.2798404696      4.00E-09 Convergence criterion met
 Total energy in the final basis set = -1510.27984047
   13   -1510.2810513074      8.96E-09 Convergence criterion met
 Total energy in the final basis set = -1510.28105131
   14   -1510.2820215745      5.59E-09 Convergence criterion met
 Total energy in the final basis set = -1510.28202157
   13   -1510.2829706739      7.84E-09 Convergence criterion met
 Total energy in the final basis set = -1510.28297067
   13   -1510.2844156737      7.63E-09 Convergence criterion met
   13   -1510.3004684648      4.10E-09 Convergence criterion met
 Total energy in the final basis set = -1510.30046846
   12   -1510.3005234055      9.25E-09 Convergence criterion met
 Total energy in the final basis set = -1510.30052341
   12   -1510.3005370353      4.70E-09 Convergence criterion met
 Total energy in the final basis set = -1510.30053704
   12   -1510.3005949931      4.78E-09 Convergence criterion met
 Total energy in the final basis set = -1510.30059499
   11   -1510.3006061859      8.12E-09 Convergence criterion met
 Total energy in the final basis set = -1510.30060619
   11   -1510.3005992395      6.40E-09 Convergence criterion met
 Total energy in the final basis set = -1510.30059924

             Standard Nuclear Orientation (Angstroms)
    I     Atom           X                Y                Z
 ----------------------------------------------------------------
    1      O      -3.0294376103     2.0453760949     2.1340936680
    2      C      -2.7016900502     1.8150311192     0.9518050124
    3      C      -3.6040552619     1.2414354817    -0.2002688804
    4      C      -3.1914281039    -0.2145126860    -0.6751963305
    5      C      -2.0284851275    -0.8148962565     0.1822558610
    6      O      -1.2718227956    -1.7301251403    -0.6239867414
    7      C      -0.1761788618    -2.3238753259     0.1894250160
    8      C       0.8540981081    -2.9913233279    -0.7915456032
    9      O       1.9507768596    -2.0588538767    -1.1529810780
   10      C       2.9830056427    -2.1085981261    -0.1537694703
   11      C       4.0758156598    -1.0314362715    -0.4882982573
   12      C       3.4988216523     0.4319918053    -0.7103145324
   13      C       1.9373983120     0.4941096106    -0.5997614435
   14      O       1.2515874920     0.2827038428     0.4303944687
   15      O      -1.4190637191     2.1406187966     0.3896359205
   16      O       1.4168739863     0.8562420792    -1.8709428680
   17      O       2.9892904654    -2.9129851864     0.8019519671
   18      C      -0.0665136469     0.7834043468    -1.8785890468
   19      C       5.0112706531    -0.8031121449     0.7685477656
   20      C       6.3022575864    -0.0213478275     0.3089335095
   21      C       5.7234871217     1.4280375290     0.1029241584
   22      C       4.2060736969     1.2068082829     0.4834442555
   23      O       4.2611467761     0.1971796795     1.5644962178
   24      H       4.6408903365    -1.3707313086    -1.3761257896
   25      H       3.7923293892     0.8317721953    -1.6962879182
   26      H       5.1845647348    -1.7197467286     1.3655247528
   27      H       7.0670980490    -0.0419829236     1.1016850197
   28      H       6.7383644849    -0.4404869102    -0.6121649731
   29      H       6.1900014234     2.1510738944     0.7906574574
   30      H       5.8446965165     1.7926365496    -0.9296947087
   31      H       3.6661062220     2.1108802997     0.8253124456
   32      O      -1.7730547282    -0.5578768069     1.3786555947
   33      C      -0.4485817964     2.5013685775     1.4504968462
   34      C      -5.0877246557     0.9920311623     0.2982322621
   35      C      -6.0190727697     0.8590833541    -0.9681705578
   36      C      -5.6088523853    -0.5673011525    -1.4942358294
   37      C      -4.5490602178    -1.0033622176    -0.4056880899
   38      O      -5.0474446839    -0.3862402971     0.8418804326
   39      H      -3.5691372071     1.9466669553    -1.0502680216
   40      H      -2.9089261366    -0.2425842757    -1.7416451740
   41      H       0.3707859088     1.7510880844     1.4048057477
   42      H      -5.4263984039     1.7015840175     1.0778785998
   43      H      -7.0796284143     0.8890408990    -0.6717005921
   44      H      -5.8350862209     1.6556254795    -1.7064983519
   45      H      -6.4647012311    -1.2608112622    -1.4944162651
   46      H      -5.1761532122    -0.5399002097    -2.5071719640
   47      H      -4.4257335785    -2.0968133733    -0.2797509271
   48      H      -0.9546023217     2.4834782586     2.4352350935
   49      H      -0.0543350689     3.5152675200     1.2430274672
   50      H      -0.3985176620    -0.2712275076    -1.7661601234
   51      H      -0.3785365014     1.1740172758    -2.8635820178
   52      H      -0.5325047052     1.3827284033    -1.0572479249
   53      H       1.2790748712    -3.8978945238    -0.3110031172
   54      H       0.3519568525    -3.2654369378    -1.7415745948
   55      H      -0.5909764438    -3.0821030702     0.8880702760
   56      H       0.3251171486    -1.5188212826     0.7752935591
 ----------------------------------------------------------------

   11   -1510.3005987992      3.09E-09 Convergence criterion met
 Total energy in the final basis set = -1510.30059880
 Final energy is   -1510.30059879919
 **  OPTIMIZATION CONVERGED  **

                    Orbital Energies (a.u.)
 --------------------------------------------------------------

 Alpha MOs
 -- Occupied --
-18.939 -18.938 -18.932 -18.927 -18.889 -18.888 -18.884 -18.883
-18.873 -18.867 -10.105 -10.103 -10.099 -10.098 -10.077 -10.067
-10.063 -10.060 -10.059 -10.058 -10.041 -10.041 -10.041 -10.038
-10.036 -10.034 -10.022 -10.021 -10.021 -10.020  -1.021  -1.015
 -1.005  -1.003  -0.972  -0.970  -0.945  -0.939  -0.932  -0.931
 -0.765  -0.764  -0.729  -0.724  -0.713  -0.706  -0.699  -0.653
 -0.651  -0.618  -0.596  -0.582  -0.548  -0.544  -0.538  -0.537
 -0.514  -0.510  -0.482  -0.476  -0.460  -0.456  -0.454  -0.453
 -0.435  -0.432  -0.428  -0.418  -0.416  -0.405  -0.400  -0.398
 -0.393  -0.377  -0.371  -0.369  -0.360  -0.356  -0.355  -0.351
 -0.342  -0.342  -0.337  -0.333  -0.330  -0.328  -0.324  -0.312
 -0.310  -0.306  -0.305  -0.300  -0.295  -0.288  -0.281  -0.274
 -0.272  -0.259  -0.254  -0.252  -0.236  -0.235  -0.234  -0.184
 -0.180  -0.169  -0.166  -0.163  -0.158  -0.150  -0.149  -0.145
 -0.144

          Ground-State Mulliken Net Atomic Charges

     Atom                 Charge (a.u.)
  ----------------------------------------
      1 O                    -0.206283
      2 C                     0.220973
      3 C                    -0.079859
      4 C                    -0.079004
      5 C                     0.214042
      6 O                    -0.175338
      7 C                    -0.057947
      8 C                    -0.052071
      9 O                    -0.173323
     10 C                     0.211721
     11 C                    -0.078181
     12 C                    -0.079915
     13 C                     0.216999
     14 O                    -0.229590
     15 O                    -0.180086
     16 O                    -0.167568
     17 O                    -0.208127
     18 C                    -0.157580
     19 C                     0.024273
     20 C                    -0.144096
     21 C                    -0.143767
     22 C                     0.025317
     23 O                    -0.186735
     24 H                     0.085920
     25 H                     0.086579
     26 H                     0.090996
     27 H                     0.078737
     28 H                     0.073051
     29 H                     0.078325
     30 H                     0.073676
     31 H                     0.082973
     32 O                    -0.199609
     33 C                    -0.143497
     34 C                     0.025356
     35 C                    -0.143913
     36 C                    -0.143861
     37 C                     0.025697
     38 O                    -0.186438
     39 H                     0.084151
     40 H                     0.085479
     41 H                     0.105887
     42 H                     0.090960
     43 H                     0.078784
     44 H                     0.073282
     45 H                     0.078644
     46 H                     0.073447
     47 H                     0.082911
     48 H                     0.101293
     49 H                     0.077890
     50 H                     0.088733
     51 H                     0.077025
     52 H                     0.107757
     53 H                     0.098139
     54 H                     0.094415
     55 H                     0.087093
     56 H                     0.116265
  ----------------------------------------
  Sum of atomic charges =    -0.000000

                    Cartesian Multipole Moments
 -----------------------------------------------------------------
    Charge (ESU x 10^10)
                -0.0000
    Dipole Moment (Debye)
         X       0.9186      Y       0.0849      Z      -4.5562
       Tot       4.6487
    Quadrupole Moments (Debye-Ang)
        XX    -145.3104     XY       2.3075     YY    -153.2170
        XZ       6.7553     YZ       1.8063     ZZ    -169.4703

 Total job time:  169.67s(wall), 8099.32s(cpu)
        *  Thank you very much for using Q-Chem.  Have a nice day.  *
