 Q-Chem 5.0, Q-Chem, Inc., Pleasanton, CA (2017)
 Q-Chem 5.0.1 for Intel X86 EM64T Linux

User input:
--------------------------------------------------------------
$molecule
0  1
O -3.94934 -3.66094 2.70899
C -3.26408 -4.56952 2.26188
C -3.36658 -6.02376 2.66595
C -2.37865 -6.52856 3.73039
C -1.51657 -5.48189 4.40077
O -0.42761 -5.20982 3.62259
C 0.37466 -4.13893 4.13133
C 1.74398 -4.66219 4.55242
O 2.74289 -3.65475 4.32857
C 2.4503 -2.42448 4.81843
C 3.45283 -1.37316 4.40573
C 3.00171 -0.46621 3.25151
C 1.52197 -0.49788 2.92582
O 0.7284 0.40582 3.14525
O -2.55785 -4.33964 1.12452
O 1.12791 -1.53506 2.15313
O 1.70559 -2.24981 5.77591
C -0.11269 -1.62973 1.56639
C 3.75523 -0.32188 5.4967
C 5.12989 0.29687 5.2477
C 4.84811 1.11437 4.00505
C 3.33372 0.90629 3.87934
O 2.89449 0.74918 5.20615
H 4.40848 -1.89885 4.17601
H 3.56138 -0.6271 2.30374
H 3.70347 -0.72788 6.53058
H 5.32761 0.993 6.09445
H 5.97475 -0.41988 5.16164
H 5.08879 2.17835 4.22411
H 5.37922 0.78293 3.0865
H 2.88161 1.75055 3.31316
O -1.66775 -5.09181 5.55433
C -2.76455 -3.25064 0.30122
C -4.70986 -6.31907 3.36866
C -5.04153 -7.8076 3.26999
C -4.03563 -8.38164 4.2413
C -3.38588 -7.09405 4.75827
O -4.42964 -6.15392 4.73443
H -3.33538 -6.62501 1.72901
H -1.71009 -7.34489 3.37541
H -2.64854 -2.30158 0.86154
H -5.55657 -5.72003 2.96654
H -6.06223 -7.95142 3.6916
H -5.00564 -8.22898 2.24235
H -4.59061 -8.88581 5.06381
H -3.2931 -9.08173 3.80104
H -2.92228 -7.28452 5.75152
H -3.79096 -3.28979 -0.12163
H -2.03656 -3.27945 -0.53521
H -0.15443 -2.57366 0.98783
H -0.27761 -0.77692 0.87383
H -0.90207 -1.64098 2.34858
H 1.72053 -5.01557 5.60593
H 2.02953 -5.5195 3.90601
H -0.10789 -3.48485 4.88966
H 0.52791 -3.51817 3.24494
$end

$opt
CONSTRAINT
tors           1           2           3           4     -96.847
tors           3           4           5           6     -83.245
tors           4           5           6           7    +174.618
tors           5           6           7           8    +114.260
tors           6           7           8           9    +147.179
tors           7           8           9          10     +49.458
tors           8           9          10          11    -172.870
tors           9          10          11          12    +101.285
tors          11          12          13          14    +109.068
ENDCONSTRAINT
$end

$rem
JOBTYPE                   OPT
METHOD                    B3LYP
DFT_D                     d3_op
BASIS                     STO-3G
GEOM_OPT_MAX_CYCLES       100
GEOM_OPT_TOL_GRADIENT     300
GEOM_OPT_TOL_DISPLACEMENT 1200
GEOM_OPT_TOL_ENERGY       100
SYMMETRY                  False
THRESH                    12
SCF_CONVERGENCE           8
MAX_SUB_FILE_NUM          128
MEM_STATIC                400
MEM_TOTAL                 4000
$end
--------------------------------------------------------------

   15   -1510.1386009483      7.76E-09 Convergence criterion met
 Total energy in the final basis set = -1510.13860095
   14   -1510.2091961349      6.86E-09 Convergence criterion met
 Total energy in the final basis set = -1510.20919613
   14   -1510.2437750534      9.67E-09 Convergence criterion met
 Total energy in the final basis set = -1510.24377505
   14   -1510.2610938416      2.78E-09 Convergence criterion met
 Total energy in the final basis set = -1510.26109384
   14   -1510.2690098939      3.52E-09 Convergence criterion met
 Total energy in the final basis set = -1510.26900989
   13   -1510.2736252242      4.22E-09 Convergence criterion met
 Total energy in the final basis set = -1510.27362522
   14   -1510.2751385999      3.17E-09 Convergence criterion met
 Total energy in the final basis set = -1510.27513860
   13   -1510.2762211685      3.97E-09 Convergence criterion met
   11   -1510.2787628365      6.39E-09 Convergence criterion met
 Total energy in the final basis set = -1510.27876284
   12   -1510.2787996010      2.35E-09 Convergence criterion met
 Total energy in the final basis set = -1510.27879960
   10   -1510.2788118400      9.73E-09 Convergence criterion met
 Total energy in the final basis set = -1510.27881184
    9   -1510.2788206119      8.35E-09 Convergence criterion met
 Total energy in the final basis set = -1510.27882061
   10   -1510.2788305502      8.44E-09 Convergence criterion met
 Total energy in the final basis set = -1510.27883055
   11   -1510.2788364377      2.15E-09 Convergence criterion met
 Total energy in the final basis set = -1510.27883644

             Standard Nuclear Orientation (Angstroms)
    I     Atom           X                Y                Z
 ----------------------------------------------------------------
    1      O      -3.6287566020     1.7998841788     1.8511776168
    2      C      -3.4707024557     1.5186628182     0.6432324779
    3      C      -4.4244644353     0.6532029763    -0.2560114665
    4      C      -3.9579012395    -0.8659260856    -0.3711450924
    5      C      -2.5190486034    -1.1028432467     0.1959263212
    6      O      -1.5961926349    -0.7546861770    -0.8450029854
    7      C      -0.1981576907    -0.8236780230    -0.3599383853
    8      C       0.5603431443    -1.9796752644    -1.1178945081
    9      O       2.0043973183    -1.7173767623    -1.3463589693
   10      C       2.6679705771    -1.2948628533    -0.1495809222
   11      C       4.1278595112    -0.8698762481    -0.5282763684
   12      C       4.3151278173     0.7074100518    -0.6307944091
   13      C       2.9894608402     1.5449549567    -0.5925067588
   14      O       2.5708107807     2.2804573886     0.3279187131
   15      O      -2.3394974836     1.9278101793    -0.1384135110
   16      O       2.3362968716     1.3870261105    -1.8614479286
   17      O       2.1504768959    -1.2882600542     0.9878205163
   18      C       1.1708451359     2.2975012690    -1.9703465904
   19      C       5.1079321773    -1.1900581562     0.6773381315
   20      C       6.5998948745    -0.9926328408     0.1941582665
   21      C       6.7253796610     0.5765612731     0.2113963926
   22      C       5.2561684821     0.9874333409     0.6155122777
   23      O       4.8731132590    -0.0532015314     1.5966487774
   24      H       4.4154448618    -1.3694950808    -1.4697319440
   25      H       4.8237871530     0.9561005323    -1.5801755503
   26      H       4.8984157884    -2.1487794733     1.1898917888
   27      H       7.3009774838    -1.4639752930     0.9007333614
   28      H       6.7674429867    -1.4198633577    -0.8074808457
   29      H       7.4407189363     0.9143297789     0.9783461641
   30      H       7.0266990222     0.9936627807    -0.7627203186
   31      H       5.1370446610     1.9963589813     1.0558077825
   32      O      -2.1894422643    -1.4868733803     1.3385310616
   33      C      -1.3887770110     2.6944494599     0.7029508943
   34      C      -5.8154946797     0.4646832251     0.4788597465
   35      C      -6.8419675780    -0.2105895024    -0.5150496115
   36      C      -6.3653303231    -1.7104673088    -0.4827894985
   37      C      -5.0986293277    -1.5995250816     0.4525062578
   38      O      -5.5140342661    -0.6013277467     1.4637564774
   39      H      -4.5136413001     1.1202576483    -1.2530424202
   40      H      -3.9592423033    -1.1790094389    -1.4306164611
   41      H      -0.4579233615     2.1086122239     0.8392592577
   42      H      -6.1799047331     1.3725780274     0.9968399076
   43      H      -7.8714526311    -0.1042953382    -0.1381310573
   44      H      -6.7891720166     0.2292478985    -1.5239548982
   45      H      -7.1242683833    -2.3635018568    -0.0230441624
   46      H      -6.1188860774    -2.1034317691    -1.4820848041
   47      H      -4.7775136279    -2.5380954256     0.9442589848
   48      H      -1.8490269344     2.8938216664     1.6915922413
   49      H      -1.1518520014     3.6445224557     0.1869301791
   50      H       0.2578631347     1.7048541283    -2.1749620288
   51      H       1.3445973699     2.9970484596    -2.8116275516
   52      H       1.0520171784     2.8631833363    -1.0250163193
   53      H       0.4242019164    -2.9370081464    -0.5682660218
   54      H       0.1296497275    -2.0922004534    -2.1340746160
   55      H      -0.1912057313    -0.9956854887     0.7357835557
   56      H       0.2825716870     0.1472909100    -0.5919496327
 ----------------------------------------------------------------

    9   -1510.2788366170      8.64E-09 Convergence criterion met
 Total energy in the final basis set = -1510.27883662
 Final energy is   -1510.27883661695
 **  OPTIMIZATION CONVERGED  **

                    Orbital Energies (a.u.)
 --------------------------------------------------------------

 Alpha MOs
 -- Occupied --
-18.937 -18.937 -18.932 -18.931 -18.888 -18.886 -18.884 -18.880
-18.879 -18.877 -10.105 -10.102 -10.101 -10.098 -10.074 -10.065
-10.062 -10.061 -10.060 -10.059 -10.058 -10.055 -10.042 -10.041
-10.040 -10.039 -10.022 -10.021 -10.020 -10.019  -1.018  -1.015
 -1.012  -1.007  -0.971  -0.968  -0.942  -0.941  -0.937  -0.934
 -0.766  -0.764  -0.728  -0.724  -0.713  -0.706  -0.696  -0.666
 -0.658  -0.621  -0.598  -0.585  -0.549  -0.546  -0.539  -0.537
 -0.512  -0.510  -0.480  -0.473  -0.464  -0.459  -0.456  -0.454
 -0.435  -0.432  -0.425  -0.420  -0.416  -0.413  -0.406  -0.398
 -0.389  -0.384  -0.375  -0.369  -0.364  -0.357  -0.355  -0.354
 -0.351  -0.346  -0.340  -0.332  -0.331  -0.330  -0.327  -0.313
 -0.311  -0.307  -0.306  -0.302  -0.296  -0.284  -0.281  -0.277
 -0.274  -0.256  -0.251  -0.250  -0.245  -0.235  -0.233  -0.188
 -0.180  -0.175  -0.166  -0.166  -0.162  -0.154  -0.152  -0.144
 -0.142

          Ground-State Mulliken Net Atomic Charges

     Atom                 Charge (a.u.)
  ----------------------------------------
      1 O                    -0.205997
      2 C                     0.206758
      3 C                    -0.076348
      4 C                    -0.078318
      5 C                     0.207301
      6 O                    -0.174031
      7 C                    -0.059267
      8 C                    -0.050819
      9 O                    -0.169043
     10 C                     0.205078
     11 C                    -0.077302
     12 C                    -0.078003
     13 C                     0.206655
     14 O                    -0.210109
     15 O                    -0.172783
     16 O                    -0.171945
     17 O                    -0.206571
     18 C                    -0.139706
     19 C                     0.026192
     20 C                    -0.144819
     21 C                    -0.143156
     22 C                     0.024614
     23 O                    -0.183918
     24 H                     0.087872
     25 H                     0.086445
     26 H                     0.085520
     27 H                     0.078763
     28 H                     0.073331
     29 H                     0.078911
     30 H                     0.072963
     31 H                     0.089355
     32 O                    -0.205962
     33 C                    -0.138886
     34 C                     0.025672
     35 C                    -0.144947
     36 C                    -0.143075
     37 C                     0.024796
     38 O                    -0.184180
     39 H                     0.086088
     40 H                     0.085229
     41 H                     0.088239
     42 H                     0.087492
     43 H                     0.078472
     44 H                     0.072680
     45 H                     0.078499
     46 H                     0.072529
     47 H                     0.087681
     48 H                     0.104516
     49 H                     0.083693
     50 H                     0.090630
     51 H                     0.086012
     52 H                     0.100224
     53 H                     0.086008
     54 H                     0.092531
     55 H                     0.113504
     56 H                     0.084931
  ----------------------------------------
  Sum of atomic charges =    -0.000000

                    Cartesian Multipole Moments
 -----------------------------------------------------------------
    Charge (ESU x 10^10)
                -0.0000
    Dipole Moment (Debye)
         X       0.9740      Y       0.0479      Z      -5.1813
       Tot       5.2722
    Quadrupole Moments (Debye-Ang)
        XX    -139.9330     XY       0.3174     YY    -152.6869
        XZ       6.1403     YZ      -0.8029     ZZ    -171.8942

 Total job time:  105.69s(wall), 5035.64s(cpu)
        *  Thank you very much for using Q-Chem.  Have a nice day.  *
