 Q-Chem 5.0, Q-Chem, Inc., Pleasanton, CA (2017)
 Q-Chem 5.0.1 for Intel X86 EM64T Linux

User input:
--------------------------------------------------------------
$molecule
0  1
O -4.7096145308 2.3646217885 1.1033605243
C -4.2003840657 1.6187131226 0.2384557056
C -4.8994881043 0.38212326 -0.4484012513
C -4.132979522 -1.0090192331 -0.335752039
C -2.6218407222 -0.9341378443 0.0701907253
O -1.8913949844 -0.4402651083 -1.0587379995
C -0.4479934167 -0.3222510489 -0.7348486693
C 0.3169789859 -1.4057105133 -1.582860854
O 1.8053559675 -1.417294495 -1.5506588692
C 2.4230300263 -0.7865989274 -0.4220330106
C 3.9751861363 -0.8747376739 -0.6638772393
C 4.7744283729 0.4663279661 -0.4041404488
C 3.9508166186 1.7998722555 -0.4119348567
O 2.7487884193 2.0099759523 -0.1468530007
O -2.8924529513 1.8113335225 -0.3016739731
O 4.8736369723 2.8440795766 -0.7614669292
O 1.8523544995 -0.4081591274 0.621185252
C 4.1858517948 4.1552709801 -0.7381075994
C 4.5807664143 -1.7812430121 0.4972478875
C 6.1078184635 -2.0729777098 0.2079308532
C 6.7731480766 -0.7163555631 0.6495719585
C 5.4910044426 0.1405234315 0.9858979183
O 4.6003766807 -0.8407003057 1.6414535366
H 4.1629895734 -1.2808369606 -1.6725634118
H 5.5471926471 0.588920888 -1.1839373267
H 3.9722765077 -2.6734187631 0.7423001053
H 6.4619256541 -2.918187778 0.8188744928
H 6.2861064456 -2.306685477 -0.8540716424
H 7.3931917761 -0.8473748802 1.5510966423
H 7.3878596012 -0.2603379001 -0.142536303
H 5.6599827728 1.0164948151 1.6416305384
O -2.1114488948 -1.244033166 1.1686329022
C -2.2274161619 2.9513364197 0.3716120512
C -6.2020437856 0.0458076298 0.3878677006
C -7.0759122003 -1.0238110379 -0.3792860873
C -6.2872596449 -2.350803873 -0.0683581377
C -5.0432383214 -1.7768491938 0.7146690947
O -5.6401344641 -0.7016383876 1.5389911151
H -5.1098402641 0.6306003615 -1.5050648601
H -4.1712234734 -1.5130741623 -1.3190162523
H -2.1262971312 2.7763135182 1.4620610078
H -6.7414365075 0.9450762594 0.7431684227
H -8.0987577058 -1.0537182198 0.0281226835
H -7.1329486941 -0.8089299601 -1.4585465623
H -6.8719124746 -3.0215595196 0.5815248619
H -5.9979823207 -2.9014667172 -0.977647945
H -4.4953185542 -2.4967935131 1.3532766387
H -2.7817616558 3.8992864563 0.2153402325
H -1.2231390044 3.0272397853 -0.0843325888
H 4.9669780025 4.9140785825 -0.9283581517
H 3.707173037 4.349953575 0.2431646356
H 3.4077436869 4.221263588 -1.526244162
H -0.0406062519 -2.4096889862 -1.2598734318
H 0.0495558551 -1.2816017799 -2.6538566428
H -0.2909635824 -0.4851269391 0.3497808477
H -0.1222466253 0.7007993734 -1.0137273296
$end

$rem
JOBTYPE                   OPT
METHOD                    B3LYP
DFT_D                     d3_op
BASIS                     STO-3G
GEOM_OPT_MAX_CYCLES       100
GEOM_OPT_TOL_GRADIENT     300
GEOM_OPT_TOL_DISPLACEMENT 1200
GEOM_OPT_TOL_ENERGY       100
SYMMETRY                  False
THRESH                    12
SCF_CONVERGENCE           8
MAX_SUB_FILE_NUM          128
MEM_STATIC                400
MEM_TOTAL                 4000
$end
--------------------------------------------------------------

   16   -1510.2675541526      5.47E-09 Convergence criterion met
 Total energy in the final basis set = -1510.26755415
   13   -1510.2700963776      7.55E-09 Convergence criterion met
 Total energy in the final basis set = -1510.27009638
   13   -1510.2727984240      9.20E-09 Convergence criterion met
 Total energy in the final basis set = -1510.27279842
   14   -1510.2755701276      6.59E-09 Convergence criterion met
 Total energy in the final basis set = -1510.27557013
   14   -1510.2782616586      5.16E-09 Convergence criterion met
 Total energy in the final basis set = -1510.27826166
   15   -1510.2634167287      3.02E-09 Convergence criterion met
 Total energy in the final basis set = -1510.26341673
   14   -1510.2805750739      5.15E-09 Convergence criterion met
 Total energy in the final basis set = -1510.28057507
   13   -1510.2824532851      6.49E-09 Convergence criterion met
   13   -1510.2923243014      5.33E-09 Convergence criterion met
 Total energy in the final basis set = -1510.29232430
   12   -1510.2922953018      8.37E-09 Convergence criterion met
 Total energy in the final basis set = -1510.29229530
   13   -1510.2923236259      7.59E-09 Convergence criterion met
 Total energy in the final basis set = -1510.29232363
   12   -1510.2922405859      5.07E-09 Convergence criterion met
 Total energy in the final basis set = -1510.29224059
   12   -1510.2923244865      5.22E-09 Convergence criterion met
 Total energy in the final basis set = -1510.29232449
   11   -1510.2923223960      4.44E-09 Convergence criterion met
 Total energy in the final basis set = -1510.29232240

             Standard Nuclear Orientation (Angstroms)
    I     Atom           X                Y                Z
 ----------------------------------------------------------------
    1      O      -2.7801611553     1.4144224209     2.3241121894
    2      C      -2.8842342644     1.4399328516     1.0791291115
    3      C      -4.0922765120     0.9186647652     0.2184499414
    4      C      -3.6808448379    -0.1720452156    -0.8593883977
    5      C      -2.1466549959    -0.4851518532    -0.8348759140
    6      O      -1.6373510426    -0.3174639534    -2.1662993457
    7      C      -0.1574483673    -0.3780408947    -2.1671645640
    8      C       0.4367096232    -1.8235720825    -1.9709415902
    9      O       1.8994147098    -1.6780356943    -1.7640007032
   10      C       2.2165817181    -1.8242634278    -0.3689049578
   11      C       3.7411252739    -1.4956675140    -0.1862634164
   12      C       4.1119025396     0.0366361075    -0.3510207283
   13      C       2.8726452917     0.9684816128    -0.5477625393
   14      O       1.7034277007     0.7683013763    -0.1369492654
   15      O      -1.9039523074     1.9869077120     0.1886394265
   16      O       3.2870493821     2.1316686304    -1.2597839394
   17      O       1.4196480701    -2.2295207329     0.5028609389
   18      C       2.1550091585     3.0742792841    -1.4299749113
   19      C       4.2149870661    -1.7684698116     1.3018941658
   20      C       5.7880440293    -1.8869827164     1.3064513749
   21      C       6.2028289182    -0.3832428560     1.0963404159
   22      C       4.7901819827     0.3236734714     1.0636708305
   23      O       3.9657840662    -0.4795760410     1.9905304749
   24      H       4.3104658173    -2.1025326134    -0.9135966696
   25      H       4.8156966847     0.2095300108    -1.1837858771
   26      H       3.6626568022    -2.5852474595     1.8057458303
   27      H       6.1423360607    -2.2713481428     2.2762086467
   28      H       6.1588699943    -2.5474497988     0.5065256199
   29      H       6.8009241567    -0.0047820145     1.9403775705
   30      H       6.7680049055    -0.2240836509     0.1637459198
   31      H       4.7899622178     1.3902673496     1.3619602150
   32      O      -1.4560533029    -0.8212295518     0.1511388939
   33      C      -0.6873635452     2.3885199717     0.9367583670
   34      C      -5.1111092340     0.0989897995     1.1116905342
   35      C      -6.4648207183    -0.0579584595     0.3145061684
   36      C      -6.0592303675    -1.1334548282    -0.7613814855
   37      C      -4.5530697098    -1.4076050329    -0.3676151729
   38      O      -4.5451135760    -1.2704610148     1.1051596285
   39      H      -4.5747575089     1.7859273735    -0.2691301624
   40      H      -3.9537551041     0.1425439716    -1.8815567329
   41      H      -0.8420542668     2.1969986125     2.0170404599
   42      H      -5.1984422054     0.4746957736     2.1496693543
   43      H      -7.2615484550    -0.4310562419     0.9774492804
   44      H      -6.7949228137     0.8915494171    -0.1364800856
   45      H      -6.6576517549    -2.0528896991    -0.6593934287
   46      H      -6.1571323253    -0.7613174673    -1.7938686418
   47      H      -4.1590374135    -2.3983355649    -0.6668046378
   48      H      -0.5113100503     3.4692324424     0.7686436451
   49      H       0.1787520056     1.7997531725     0.5596680088
   50      H       2.5272055836     3.8785465383    -2.0906704125
   51      H       1.8420796027     3.5086861824    -0.4590532552
   52      H       1.2785348823     2.5820096432    -1.8974491576
   53      H      -0.0109284280    -2.2908793260    -1.0676171183
   54      H       0.2773802372    -2.4593164872    -2.8648790761
   55      H       0.2697465918     0.2561570946    -1.3562917168
   56      H       0.1511711417     0.0276828472    -3.1513275210
 ----------------------------------------------------------------

    9   -1510.2923214286      8.83E-09 Convergence criterion met
 Total energy in the final basis set = -1510.29232143
 Final energy is   -1510.29232142862
 **  OPTIMIZATION CONVERGED  **

                    Orbital Energies (a.u.)
 --------------------------------------------------------------

 Alpha MOs
 -- Occupied --
-18.955 -18.924 -18.922 -18.919 -18.897 -18.891 -18.881 -18.874
-18.867 -18.865 -10.118 -10.095 -10.089 -10.089 -10.077 -10.066
-10.059 -10.056 -10.055 -10.054 -10.051 -10.046 -10.039 -10.035
-10.031 -10.029 -10.024 -10.022 -10.015 -10.014  -1.029  -1.006
 -1.002  -0.995  -0.973  -0.963  -0.953  -0.932  -0.926  -0.924
 -0.767  -0.756  -0.728  -0.718  -0.712  -0.701  -0.688  -0.675
 -0.646  -0.614  -0.596  -0.576  -0.548  -0.540  -0.539  -0.531
 -0.517  -0.502  -0.482  -0.470  -0.464  -0.458  -0.451  -0.444
 -0.436  -0.429  -0.424  -0.423  -0.420  -0.410  -0.403  -0.391
 -0.381  -0.376  -0.371  -0.368  -0.362  -0.354  -0.351  -0.349
 -0.345  -0.336  -0.334  -0.329  -0.326  -0.321  -0.319  -0.314
 -0.308  -0.305  -0.304  -0.297  -0.288  -0.281  -0.280  -0.278
 -0.266  -0.261  -0.251  -0.237  -0.237  -0.235  -0.227  -0.194
 -0.179  -0.173  -0.160  -0.155  -0.151  -0.149  -0.147  -0.140
 -0.136

          Ground-State Mulliken Net Atomic Charges

     Atom                 Charge (a.u.)
  ----------------------------------------
      1 O                    -0.209745
      2 C                     0.215233
      3 C                    -0.078050
      4 C                    -0.079398
      5 C                     0.210937
      6 O                    -0.174768
      7 C                    -0.060640
      8 C                    -0.060199
      9 O                    -0.182068
     10 C                     0.214426
     11 C                    -0.079478
     12 C                    -0.077486
     13 C                     0.221381
     14 O                    -0.209653
     15 O                    -0.178510
     16 O                    -0.163683
     17 O                    -0.199584
     18 C                    -0.129549
     19 C                     0.025453
     20 C                    -0.143768
     21 C                    -0.143703
     22 C                     0.026061
     23 O                    -0.185715
     24 H                     0.085406
     25 H                     0.088947
     26 H                     0.092927
     27 H                     0.079416
     28 H                     0.073822
     29 H                     0.079293
     30 H                     0.074047
     31 H                     0.082935
     32 O                    -0.206473
     33 C                    -0.149101
     34 C                     0.024629
     35 C                    -0.144196
     36 C                    -0.143890
     37 C                     0.025574
     38 O                    -0.185783
     39 H                     0.082811
     40 H                     0.084480
     41 H                     0.099785
     42 H                     0.090463
     43 H                     0.077504
     44 H                     0.072057
     45 H                     0.077013
     46 H                     0.072499
     47 H                     0.082188
     48 H                     0.071538
     49 H                     0.103775
     50 H                     0.095027
     51 H                     0.091199
     52 H                     0.094420
     53 H                     0.108363
     54 H                     0.080937
     55 H                     0.101645
     56 H                     0.079253
  ----------------------------------------
  Sum of atomic charges =     0.000000

                    Cartesian Multipole Moments
 -----------------------------------------------------------------
    Charge (ESU x 10^10)
                -0.0000
    Dipole Moment (Debye)
         X       2.2112      Y       1.8589      Z      -3.9254
       Tot       4.8738
    Quadrupole Moments (Debye-Ang)
        XX    -133.5850     XY      -2.6102     YY    -151.9996
        XZ       5.4215     YZ       2.3676     ZZ    -166.9646

 Total job time:  205.14s(wall), 9787.47s(cpu)
        *  Thank you very much for using Q-Chem.  Have a nice day.  *
