 Q-Chem 5.0, Q-Chem, Inc., Pleasanton, CA (2017)
 Q-Chem 5.0.1 for Intel X86 EM64T Linux

User input:
--------------------------------------------------------------
$molecule
0  1
O -3.94934 -3.66094 2.70899
C -3.26408 -4.56952 2.26188
C -3.36658 -6.02376 2.66595
C -2.08572 -6.70264 3.17818
C -0.88802 -5.80505 3.39717
O -0.35891 -5.43545 2.19348
C 0.76998 -4.56408 2.31831
C 2.03944 -5.28104 1.87046
O 3.14397 -4.36296 1.86491
C 2.99251 -3.26379 2.64467
C 4.15756 -2.3079 2.54679
C 3.771 -0.83192 2.37262
C 2.32683 -0.48685 2.67597
O 1.60057 -1.09369 3.44982
O -2.45351 -4.29706 1.20624
O 1.78039 0.4893 1.90456
O 2.61447 -3.39982 3.80422
C 0.46518 0.89724 1.98423
C 5.02852 -2.21635 3.82588
C 6.42041 -1.68925 3.47723
C 6.1028 -0.24177 3.17157
C 4.60856 -0.21288 3.50922
O 4.47482 -1.14871 4.54979
H 4.82379 -2.66576 1.72809
H 4.04589 -0.3967 1.38594
H 5.11657 -3.18439 4.36639
H 7.02967 -1.72942 4.40871
H 6.94942 -2.24057 2.6704
H 6.67398 0.39957 3.8792
H 6.29729 0.07844 2.12508
H 4.28939 0.82632 3.74862
O -0.39437 -5.57772 4.498
C -2.26835 -3.04052 0.66768
C -4.30669 -6.2438 3.86849
C -4.81196 -7.68607 3.88236
C -3.56203 -8.41719 4.31899
C -2.60868 -7.23713 4.53029
O -3.44903 -6.20329 4.98116
H -3.77164 -6.55282 1.77431
H -1.74917 -7.5443 2.53191
H -1.84796 -2.35486 1.43442
H -5.17164 -5.54562 3.88928
H -5.57152 -7.77053 4.69235
H -5.25538 -8.03118 2.92358
H -3.76869 -8.91364 5.2935
H -3.16575 -9.16 3.59339
H -1.79016 -7.53953 5.21993
H -3.23283 -2.63849 0.29051
H -1.55412 -3.10958 -0.17822
H 0.28972 1.70623 1.24587
H 0.24688 1.28732 3.0014
H -0.21388 0.04846 1.75337
H 2.26901 -6.14045 2.53527
H 1.88633 -5.65796 0.83672
H 0.68808 -4.04174 3.27868
H 0.59502 -3.73544 1.59705
$end

$opt
CONSTRAINT
tors           1           2           3           4    -124.295
tors           3           4           5           6     -73.306
tors           4           5           6           7    +179.056
tors           5           6           7           8    +111.653
tors           6           7           8           9    +174.025
tors           7           8           9          10     +21.579
tors           8           9          10          11    -177.334
tors           9          10          11          12    +133.765
tors          11          12          13          14     +27.202
ENDCONSTRAINT
$end

$rem
JOBTYPE                   OPT
METHOD                    B3LYP
DFT_D                     d3_op
BASIS                     STO-3G
GEOM_OPT_MAX_CYCLES       100
GEOM_OPT_TOL_GRADIENT     300
GEOM_OPT_TOL_DISPLACEMENT 1200
GEOM_OPT_TOL_ENERGY       100
SYMMETRY                  False
THRESH                    12
SCF_CONVERGENCE           8
MAX_SUB_FILE_NUM          128
MEM_STATIC                400
MEM_TOTAL                 4000
$end
--------------------------------------------------------------

   16   -1510.0989375120      4.44E-09 Convergence criterion met
 Total energy in the final basis set = -1510.09893751
   14   -1510.1752675100      8.86E-09 Convergence criterion met
 Total energy in the final basis set = -1510.17526751
   14   -1510.2181746793      7.13E-09 Convergence criterion met
 Total energy in the final basis set = -1510.21817468
   15   -1510.2420139096      2.12E-09 Convergence criterion met
 Total energy in the final basis set = -1510.24201391
   14   -1510.2539662836      3.77E-09 Convergence criterion met
 Total energy in the final basis set = -1510.25396628
   14   -1510.2597318236      3.01E-09 Convergence criterion met
 Total energy in the final basis set = -1510.25973182
   13   -1510.2630131467      7.30E-09 Convergence criterion met
 Total energy in the final basis set = -1510.26301315
   13   -1510.2647146307      6.57E-09 Convergence criterion met
   12   -1510.2676565792      7.92E-09 Convergence criterion met
 Total energy in the final basis set = -1510.26765658
   12   -1510.2676769197      1.41E-09 Convergence criterion met
 Total energy in the final basis set = -1510.26767692
   13   -1510.2676467553      8.63E-09 Convergence criterion met
 Total energy in the final basis set = -1510.26764676
   13   -1510.2676955544      2.72E-09 Convergence criterion met
 Total energy in the final basis set = -1510.26769555
   11   -1510.2676976654      1.62E-09 Convergence criterion met
 Total energy in the final basis set = -1510.26769767
   11   -1510.2676987513      1.79E-09 Convergence criterion met
 Total energy in the final basis set = -1510.26769875

             Standard Nuclear Orientation (Angstroms)
    I     Atom           X                Y                Z
 ----------------------------------------------------------------
    1      O      -4.7096145308     2.3646217885     1.1033605243
    2      C      -4.2003840657     1.6187131226     0.2384557056
    3      C      -4.8994881043     0.3821232600    -0.4484012513
    4      C      -4.1329795220    -1.0090192331    -0.3357520390
    5      C      -2.6218407222    -0.9341378443     0.0701907253
    6      O      -1.8913949844    -0.4402651083    -1.0587379995
    7      C      -0.4479934167    -0.3222510489    -0.7348486693
    8      C       0.3169789859    -1.4057105133    -1.5828608540
    9      O       1.8053559675    -1.4172944950    -1.5506588692
   10      C       2.4230300263    -0.7865989274    -0.4220330106
   11      C       3.9751861363    -0.8747376739    -0.6638772393
   12      C       4.7744283729     0.4663279661    -0.4041404488
   13      C       3.9508166186     1.7998722555    -0.4119348567
   14      O       2.7487884193     2.0099759523    -0.1468530007
   15      O      -2.8924529513     1.8113335225    -0.3016739731
   16      O       4.8736369723     2.8440795766    -0.7614669292
   17      O       1.8523544995    -0.4081591274     0.6211852520
   18      C       4.1858517948     4.1552709801    -0.7381075994
   19      C       4.5807664143    -1.7812430121     0.4972478875
   20      C       6.1078184635    -2.0729777098     0.2079308532
   21      C       6.7731480766    -0.7163555631     0.6495719585
   22      C       5.4910044426     0.1405234315     0.9858979183
   23      O       4.6003766807    -0.8407003057     1.6414535366
   24      H       4.1629895734    -1.2808369606    -1.6725634118
   25      H       5.5471926471     0.5889208880    -1.1839373267
   26      H       3.9722765077    -2.6734187631     0.7423001053
   27      H       6.4619256541    -2.9181877780     0.8188744928
   28      H       6.2861064456    -2.3066854770    -0.8540716424
   29      H       7.3931917761    -0.8473748802     1.5510966423
   30      H       7.3878596012    -0.2603379001    -0.1425363030
   31      H       5.6599827728     1.0164948151     1.6416305384
   32      O      -2.1114488948    -1.2440331660     1.1686329022
   33      C      -2.2274161619     2.9513364197     0.3716120512
   34      C      -6.2020437856     0.0458076298     0.3878677006
   35      C      -7.0759122003    -1.0238110379    -0.3792860873
   36      C      -6.2872596449    -2.3508038730    -0.0683581377
   37      C      -5.0432383214    -1.7768491938     0.7146690947
   38      O      -5.6401344641    -0.7016383876     1.5389911151
   39      H      -5.1098402641     0.6306003615    -1.5050648601
   40      H      -4.1712234734    -1.5130741623    -1.3190162523
   41      H      -2.1262971312     2.7763135182     1.4620610078
   42      H      -6.7414365075     0.9450762594     0.7431684227
   43      H      -8.0987577058    -1.0537182198     0.0281226835
   44      H      -7.1329486941    -0.8089299601    -1.4585465623
   45      H      -6.8719124746    -3.0215595196     0.5815248619
   46      H      -5.9979823207    -2.9014667172    -0.9776479450
   47      H      -4.4953185542    -2.4967935131     1.3532766387
   48      H      -2.7817616558     3.8992864563     0.2153402325
   49      H      -1.2231390044     3.0272397853    -0.0843325888
   50      H       4.9669780025     4.9140785825    -0.9283581517
   51      H       3.7071730370     4.3499535750     0.2431646356
   52      H       3.4077436869     4.2212635880    -1.5262441620
   53      H      -0.0406062519    -2.4096889862    -1.2598734318
   54      H       0.0495558551    -1.2816017799    -2.6538566428
   55      H      -0.2909635824    -0.4851269391     0.3497808477
   56      H      -0.1222466253     0.7007993734    -1.0137273296
 ----------------------------------------------------------------

    8   -1510.2676991476      9.96E-09 Convergence criterion met
 Total energy in the final basis set = -1510.26769915
 Final energy is   -1510.26769914757
 **  OPTIMIZATION CONVERGED  **

                    Orbital Energies (a.u.)
 --------------------------------------------------------------

 Alpha MOs
 -- Occupied --
-18.933 -18.932 -18.929 -18.926 -18.891 -18.881 -18.878 -18.874
-18.873 -18.870 -10.100 -10.098 -10.096 -10.094 -10.069 -10.065
-10.062 -10.061 -10.059 -10.057 -10.054 -10.053 -10.038 -10.037
-10.036 -10.034 -10.022 -10.021 -10.017 -10.016  -1.013  -1.011
 -1.005  -1.002  -0.972  -0.965  -0.938  -0.934  -0.932  -0.929
 -0.764  -0.759  -0.726  -0.720  -0.712  -0.703  -0.692  -0.664
 -0.658  -0.618  -0.595  -0.581  -0.546  -0.541  -0.538  -0.534
 -0.514  -0.505  -0.473  -0.468  -0.463  -0.458  -0.449  -0.446
 -0.436  -0.434  -0.421  -0.413  -0.410  -0.409  -0.405  -0.393
 -0.386  -0.375  -0.374  -0.369  -0.361  -0.355  -0.350  -0.347
 -0.340  -0.337  -0.332  -0.331  -0.331  -0.326  -0.322  -0.314
 -0.308  -0.306  -0.302  -0.301  -0.291  -0.285  -0.282  -0.273
 -0.269  -0.259  -0.251  -0.247  -0.236  -0.235  -0.229  -0.179
 -0.177  -0.173  -0.164  -0.156  -0.156  -0.146  -0.145  -0.139
 -0.138

          Ground-State Mulliken Net Atomic Charges

     Atom                 Charge (a.u.)
  ----------------------------------------
      1 O                    -0.211735
      2 C                     0.208280
      3 C                    -0.076045
      4 C                    -0.079684
      5 C                     0.210841
      6 O                    -0.170536
      7 C                    -0.058291
      8 C                    -0.051926
      9 O                    -0.175197
     10 C                     0.212123
     11 C                    -0.079132
     12 C                    -0.080508
     13 C                     0.206581
     14 O                    -0.208865
     15 O                    -0.167284
     16 O                    -0.172918
     17 O                    -0.198905
     18 C                    -0.129431
     19 C                     0.026319
     20 C                    -0.145197
     21 C                    -0.141984
     22 C                     0.027161
     23 O                    -0.183542
     24 H                     0.086064
     25 H                     0.085821
     26 H                     0.083799
     27 H                     0.078748
     28 H                     0.073993
     29 H                     0.078548
     30 H                     0.074557
     31 H                     0.085033
     32 O                    -0.211159
     33 C                    -0.128329
     34 C                     0.023868
     35 C                    -0.145517
     36 C                    -0.142728
     37 C                     0.023405
     38 O                    -0.188736
     39 H                     0.084716
     40 H                     0.082857
     41 H                     0.092930
     42 H                     0.090338
     43 H                     0.077911
     44 H                     0.072105
     45 H                     0.077696
     46 H                     0.071808
     47 H                     0.088331
     48 H                     0.087919
     49 H                     0.092086
     50 H                     0.089978
     51 H                     0.090377
     52 H                     0.086619
     53 H                     0.081223
     54 H                     0.087301
     55 H                     0.119841
     56 H                     0.088473
  ----------------------------------------
  Sum of atomic charges =    -0.000000

                    Cartesian Multipole Moments
 -----------------------------------------------------------------
    Charge (ESU x 10^10)
                -0.0000
    Dipole Moment (Debye)
         X       2.1943      Y      -0.1357      Z      -4.2193
       Tot       4.7577
    Quadrupole Moments (Debye-Ang)
        XX    -141.9491     XY       7.0843     YY    -147.8136
        XZ       8.1696     YZ       0.6081     ZZ    -166.9613

 Total job time:  95.28s(wall), 4537.07s(cpu)
        *  Thank you very much for using Q-Chem.  Have a nice day.  *
