 Q-Chem 5.0, Q-Chem, Inc., Pleasanton, CA (2017)
 Q-Chem 5.0.1 for Intel X86 EM64T Linux

User input:
--------------------------------------------------------------
$molecule
0  1
O -3.94934 -3.66094 2.70899
C -3.26408 -4.56952 2.26188
C -3.36658 -6.02376 2.66595
C -2.05386 -6.75991 2.98014
C -0.80092 -5.91378 3.02797
O 0.17328 -6.48337 2.2586
C 1.25062 -5.58895 1.96093
C 2.52088 -6.04033 2.67426
O 3.67519 -5.53628 1.98407
C 4.04242 -4.2717 2.30833
C 5.15057 -3.73786 1.43216
C 4.81004 -3.65356 -0.0629
C 3.33986 -3.76599 -0.41311
O 2.41718 -3.30996 0.24664
O -2.45101 -4.30988 1.20369
O 3.0527 -4.49234 -1.52558
O 3.50669 -3.61113 3.19093
C 1.78904 -4.64397 -2.05854
C 5.5378 -2.27507 1.72907
C 6.95375 -2.00186 1.22248
C 6.72187 -2.00059 -0.27351
C 5.20107 -2.1825 -0.31533
O 4.74846 -1.52475 0.84337
H 6.03323 -4.39034 1.6178
H 5.39642 -4.33928 -0.71442
H 5.46264 -2.00553 2.805
H 7.22617 -0.96968 1.53978
H 7.72814 -2.71291 1.58259
H 7.00093 -0.99912 -0.67048
H 7.25316 -2.79604 -0.83958
H 4.79572 -1.79943 -1.2787
O -0.66853 -4.90503 3.71247
C -2.2495 -3.05767 0.66294
C -4.13015 -6.22324 3.98852
C -4.65411 -7.65728 4.08385
C -3.37135 -8.40751 4.37204
C -2.3713 -7.24959 4.40675
O -3.11589 -6.19114 4.96152
H -3.89956 -6.52414 1.82668
H -1.88646 -7.62805 2.30101
H -1.81926 -2.37683 1.42826
H -4.96835 -5.50627 4.12673
H -5.3133 -7.73011 4.97817
H -5.21123 -7.99464 3.18334
H -3.44608 -8.8528 5.38949
H -3.10354 -9.19612 3.63616
H -1.45738 -7.54983 4.96618
H -3.20892 -2.64321 0.28631
H -1.53687 -3.13824 -0.18357
H 1.85199 -5.27801 -2.96649
H 1.3746 -3.65325 -2.34295
H 1.11153 -5.13489 -1.33152
H 2.51906 -5.84271 3.76948
H 2.56808 -7.14383 2.55298
H 1.05965 -4.51048 2.16134
H 1.41549 -5.68477 0.87088
$end

$opt
CONSTRAINT
tors           1           2           3           4    -133.043
tors           3           4           5           6    -130.085
tors           4           5           6           7    +164.354
tors           5           6           7           8    +111.653
tors           6           7           8           9    +156.056
tors           7           8           9          10     +84.244
tors           8           9          10          11    -172.870
tors           9          10          11          12     +60.924
tors          11          12          13          14     +36.378
ENDCONSTRAINT
$end

$rem
JOBTYPE                   OPT
METHOD                    B3LYP
DFT_D                     d3_op
BASIS                     STO-3G
GEOM_OPT_MAX_CYCLES       100
GEOM_OPT_TOL_GRADIENT     300
GEOM_OPT_TOL_DISPLACEMENT 1200
GEOM_OPT_TOL_ENERGY       100
SYMMETRY                  False
THRESH                    12
SCF_CONVERGENCE           8
MAX_SUB_FILE_NUM          128
MEM_STATIC                400
MEM_TOTAL                 4000
$end
--------------------------------------------------------------

   15   -1510.1585207856      6.14E-09 Convergence criterion met
 Total energy in the final basis set = -1510.15852079
   13   -1510.2274047348      9.90E-09 Convergence criterion met
 Total energy in the final basis set = -1510.22740473
   14   -1510.2638697723      4.84E-09 Convergence criterion met
 Total energy in the final basis set = -1510.26386977
   14   -1510.2790571463      6.19E-09 Convergence criterion met
 Total energy in the final basis set = -1510.27905715
   14   -1510.2825480103      5.72E-09 Convergence criterion met
 Total energy in the final basis set = -1510.28254801
   13   -1510.2833084624      6.05E-09 Convergence criterion met
 Total energy in the final basis set = -1510.28330846
   12   -1510.2842796924      8.77E-09 Convergence criterion met
 Total energy in the final basis set = -1510.28427969
   12   -1510.2844081826      8.52E-09 Convergence criterion met
 Total energy in the final basis set = -1510.28440818
   11   -1510.2845307166      9.25E-09 Convergence criterion met
 Total energy in the final basis set = -1510.28453072
   11   -1510.2845655225      6.26E-09 Convergence criterion met
 Total energy in the final basis set = -1510.28456552
    9   -1510.2845807867      9.09E-09 Convergence criterion met
 Total energy in the final basis set = -1510.28458079
   11   -1510.2845902300      5.76E-09 Convergence criterion met
 Total energy in the final basis set = -1510.28459023

             Standard Nuclear Orientation (Angstroms)
    I     Atom           X                Y                Z
 ----------------------------------------------------------------
    1      O      -3.8119419050     2.0124642806     1.9535420869
    2      C      -3.6044206252     1.5846706833     0.7997934415
    3      C      -4.5739323316     0.7427840893    -0.1058963026
    4      C      -3.8719620593    -0.5100189458    -0.7810000980
    5      C      -2.4231939354    -0.7248051096    -0.2229354336
    6      O      -1.5207275583    -0.8677453802    -1.3307613093
    7      C      -0.1245166134    -0.6952072223    -0.8673376150
    8      C       0.6813387770    -2.0426499947    -0.9488718326
    9      O       2.1370359837    -1.7701601359    -1.0486528676
   10      C       2.7002263880    -1.5687911170     0.2582697062
   11      C       4.1907298090    -1.1058682591     0.0860241747
   12      C       4.3944402436     0.2523306015    -0.7021846628
   13      C       3.0655176685     1.0410163206    -0.9445374755
   14      O       2.0869327680     1.1362677975    -0.1716152159
   15      O      -2.4097500744     1.8312560813     0.0418996643
   16      O       3.1666608531     1.7256080651    -2.1987078794
   17      O       2.0897889501    -1.7697389374     1.3290424349
   18      C       1.9627607086     2.5597469262    -2.4227531927
   19      C       4.8778626242    -0.7709753298     1.4756284584
   20      C       6.4395625318    -0.8837070739     1.2849959056
   21      C       6.7233446137     0.3925531419     0.4084535935
   22      C       5.2877198840     1.0521582164     0.3468520281
   23      O       4.6656486325     0.6870531729     1.6385963128
   24      H       4.7299987697    -1.9187245475    -0.4352465834
   25      H       4.9091893330     0.1067496707    -1.6677060202
   26      H       4.4477652041    -1.3237412352     2.3334362229
   27      H       6.9504305906    -0.8232856014     2.2592422804
   28      H       6.7370222975    -1.8200812111     0.7868373213
   29      H       7.4394689664     1.0715847373     0.8976063179
   30      H       7.1029434866     0.1424547839    -0.5952969155
   31      H       5.2810443591     2.1506684022     0.2065880343
   32      O      -2.0764353316    -0.7763311578     0.9774377862
   33      C      -1.3813441014     2.4711981110     0.8935105275
   34      C      -5.7367075772     0.0485603780     0.7160232651
   35      C      -6.8798591427    -0.3360738319    -0.3025200640
   36      C      -6.2170257461    -1.5545220658    -1.0487449578
   37      C      -4.8379839824    -1.6726097670    -0.2844791414
   38      O      -5.1636827357    -1.2622784887     1.0997086972
   39      H      -4.9846234178     1.4158055453    -0.8814150156
   40      H      -3.8305870597    -0.4307641988    -1.8807895206
   41      H      -1.1624984802     1.8531708637     1.7881016301
   42      H      -6.0529600114     0.6137874412     1.6142558288
   43      H      -7.7925459325    -0.6392452054     0.2346308265
   44      H      -7.1273459726     0.4954296962    -0.9813483579
   45      H      -6.8065588410    -2.4763921480    -0.9207966079
   46      H      -6.0789798524    -1.3702980860    -2.1263352275
   47      H      -4.3816373272    -2.6815716419    -0.2925092705
   48      H      -1.6949382992     3.4820551874     1.2256064497
   49      H      -0.4705793805     2.5472531275     0.2703682763
   50      H       2.1306378236     3.0874434000    -3.3795061680
   51      H       1.8211991303     3.3005147544    -1.6093732273
   52      H       1.0438628408     1.9430642222    -2.4997456038
   53      H       0.4619819677    -2.6732345451    -0.0616258425
   54      H       0.4086987014    -2.5904449282    -1.8739676730
   55      H      -0.1163165187    -0.3171101178     0.1757524060
   56      H       0.3507020127     0.0515485767    -1.5354839856
 ----------------------------------------------------------------

   10   -1510.2845902601      8.67E-09 Convergence criterion met
 Total energy in the final basis set = -1510.28459026
 Final energy is   -1510.28459026013
 **  OPTIMIZATION CONVERGED  **

                    Orbital Energies (a.u.)
 --------------------------------------------------------------

 Alpha MOs
 -- Occupied --
-18.941 -18.930 -18.929 -18.926 -18.889 -18.885 -18.879 -18.877
-18.876 -18.868 -10.104 -10.099 -10.097 -10.095 -10.070 -10.066
-10.063 -10.059 -10.058 -10.058 -10.057 -10.055 -10.041 -10.038
-10.035 -10.034 -10.023 -10.021 -10.019 -10.018  -1.018  -1.011
 -1.008  -1.001  -0.972  -0.967  -0.941  -0.937  -0.934  -0.929
 -0.765  -0.761  -0.727  -0.722  -0.711  -0.704  -0.693  -0.669
 -0.656  -0.616  -0.597  -0.580  -0.546  -0.544  -0.539  -0.535
 -0.513  -0.507  -0.482  -0.475  -0.464  -0.455  -0.454  -0.450
 -0.435  -0.429  -0.425  -0.418  -0.413  -0.408  -0.406  -0.393
 -0.388  -0.381  -0.372  -0.367  -0.359  -0.357  -0.353  -0.350
 -0.349  -0.343  -0.336  -0.332  -0.329  -0.325  -0.322  -0.312
 -0.308  -0.306  -0.303  -0.302  -0.291  -0.283  -0.283  -0.275
 -0.270  -0.259  -0.251  -0.249  -0.242  -0.236  -0.231  -0.184
 -0.183  -0.173  -0.163  -0.158  -0.154  -0.153  -0.147  -0.145
 -0.140

          Ground-State Mulliken Net Atomic Charges

     Atom                 Charge (a.u.)
  ----------------------------------------
      1 O                    -0.206048
      2 C                     0.214986
      3 C                    -0.078563
      4 C                    -0.078376
      5 C                     0.214895
      6 O                    -0.176479
      7 C                    -0.055585
      8 C                    -0.053065
      9 O                    -0.177240
     10 C                     0.212546
     11 C                    -0.079365
     12 C                    -0.077720
     13 C                     0.210770
     14 O                    -0.215304
     15 O                    -0.176002
     16 O                    -0.168581
     17 O                    -0.205954
     18 C                    -0.128831
     19 C                     0.024594
     20 C                    -0.143218
     21 C                    -0.144290
     22 C                     0.025591
     23 O                    -0.187005
     24 H                     0.084486
     25 H                     0.088025
     26 H                     0.092293
     27 H                     0.078905
     28 H                     0.073538
     29 H                     0.078611
     30 H                     0.073912
     31 H                     0.082178
     32 O                    -0.213772
     33 C                    -0.130320
     34 C                     0.024443
     35 C                    -0.143450
     36 C                    -0.144357
     37 C                     0.025514
     38 O                    -0.186091
     39 H                     0.083470
     40 H                     0.085982
     41 H                     0.097472
     42 H                     0.091042
     43 H                     0.078093
     44 H                     0.072481
     45 H                     0.077831
     46 H                     0.073026
     47 H                     0.082330
     48 H                     0.086799
     49 H                     0.093178
     50 H                     0.092401
     51 H                     0.088898
     52 H                     0.087082
     53 H                     0.096149
     54 H                     0.087917
     55 H                     0.107241
     56 H                     0.082936
  ----------------------------------------
  Sum of atomic charges =    -0.000000

                    Cartesian Multipole Moments
 -----------------------------------------------------------------
    Charge (ESU x 10^10)
                -0.0000
    Dipole Moment (Debye)
         X       1.6219      Y       0.5792      Z      -4.5384
       Tot       4.8542
    Quadrupole Moments (Debye-Ang)
        XX    -137.5037     XY      -1.6681     YY    -153.1509
        XZ       8.3868     YZ      -1.3967     ZZ    -168.4203

 Total job time:  36.57s(wall), 1737.91s(cpu)
        *  Thank you very much for using Q-Chem.  Have a nice day.  *
