 Q-Chem 5.0, Q-Chem, Inc., Pleasanton, CA (2017)
 Q-Chem 5.0.1 for Intel X86 EM64T Linux

User input:
--------------------------------------------------------------
$molecule
0  1
O -3.811941905 2.0124642806 1.9535420869
C -3.6044206252 1.5846706833 0.7997934415
C -4.5739323316 0.7427840893 -0.1058963026
C -3.8719620593 -0.5100189458 -0.781000098
C -2.4231939354 -0.7248051096 -0.2229354336
O -1.5207275583 -0.8677453802 -1.3307613093
C -0.1245166134 -0.6952072223 -0.867337615
C 0.681338777 -2.0426499947 -0.9488718326
O 2.1370359837 -1.7701601359 -1.0486528676
C 2.700226388 -1.568791117 0.2582697062
C 4.190729809 -1.1058682591 0.0860241747
C 4.3944402436 0.2523306015 -0.7021846628
C 3.0655176685 1.0410163206 -0.9445374755
O 2.086932768 1.1362677975 -0.1716152159
O -2.4097500744 1.8312560813 0.0418996643
O 3.1666608531 1.7256080651 -2.1987078794
O 2.0897889501 -1.7697389374 1.3290424349
C 1.9627607086 2.5597469262 -2.4227531927
C 4.8778626242 -0.7709753298 1.4756284584
C 6.4395625318 -0.8837070739 1.2849959056
C 6.7233446137 0.3925531419 0.4084535935
C 5.287719884 1.0521582164 0.3468520281
O 4.6656486325 0.6870531729 1.6385963128
H 4.7299987697 -1.9187245475 -0.4352465834
H 4.909189333 0.1067496707 -1.6677060202
H 4.4477652041 -1.3237412352 2.3334362229
H 6.9504305906 -0.8232856014 2.2592422804
H 6.7370222975 -1.8200812111 0.7868373213
H 7.4394689664 1.0715847373 0.8976063179
H 7.1029434866 0.1424547839 -0.5952969155
H 5.2810443591 2.1506684022 0.2065880343
O -2.0764353316 -0.7763311578 0.9774377862
C -1.3813441014 2.471198111 0.8935105275
C -5.7367075772 0.048560378 0.7160232651
C -6.8798591427 -0.3360738319 -0.302520064
C -6.2170257461 -1.5545220658 -1.0487449578
C -4.8379839824 -1.672609767 -0.2844791414
O -5.1636827357 -1.2622784887 1.0997086972
H -4.9846234178 1.4158055453 -0.8814150156
H -3.8305870597 -0.4307641988 -1.8807895206
H -1.1624984802 1.8531708637 1.7881016301
H -6.0529600114 0.6137874412 1.6142558288
H -7.7925459325 -0.6392452054 0.2346308265
H -7.1273459726 0.4954296962 -0.9813483579
H -6.806558841 -2.476392148 -0.9207966079
H -6.0789798524 -1.370298086 -2.1263352275
H -4.3816373272 -2.6815716419 -0.2925092705
H -1.6949382992 3.4820551874 1.2256064497
H -0.4705793805 2.5472531275 0.2703682763
H 2.1306378236 3.0874434 -3.379506168
H 1.8211991303 3.3005147544 -1.6093732273
H 1.0438628408 1.9430642222 -2.4997456038
H 0.4619819677 -2.6732345451 -0.0616258425
H 0.4086987014 -2.5904449282 -1.873967673
H -0.1163165187 -0.3171101178 0.175752406
H 0.3507020127 0.0515485767 -1.5354839856
$end

$rem
JOBTYPE                   OPT
METHOD                    B3LYP
DFT_D                     d3_op
BASIS                     STO-3G
GEOM_OPT_MAX_CYCLES       100
GEOM_OPT_TOL_GRADIENT     300
GEOM_OPT_TOL_DISPLACEMENT 1200
GEOM_OPT_TOL_ENERGY       100
SYMMETRY                  False
THRESH                    12
SCF_CONVERGENCE           8
MAX_SUB_FILE_NUM          128
MEM_STATIC                400
MEM_TOTAL                 4000
$end
--------------------------------------------------------------

   16   -1510.2844074874      5.21E-09 Convergence criterion met
 Total energy in the final basis set = -1510.28440749
   14   -1510.2849846554      8.46E-09 Convergence criterion met
 Total energy in the final basis set = -1510.28498466
   14   -1510.2864892925      5.44E-09 Convergence criterion met
 Total energy in the final basis set = -1510.28648929
   13   -1510.2867775142      4.32E-09 Convergence criterion met
 Total energy in the final basis set = -1510.28677751
   12   -1510.2872197466      9.74E-09 Convergence criterion met
 Total energy in the final basis set = -1510.28721975
   14   -1510.2870305733      5.38E-09 Convergence criterion met
 Total energy in the final basis set = -1510.28703057
   14   -1510.2869880173      5.19E-09 Convergence criterion met
 Total energy in the final basis set = -1510.28698802
   13   -1510.2874004772      9.05E-09 Convergence criterion met
   13   -1510.2923153969      5.52E-09 Convergence criterion met
 Total energy in the final basis set = -1510.29231540
   12   -1510.2923349795      2.88E-09 Convergence criterion met
 Total energy in the final basis set = -1510.29233498
   11   -1510.2923378540      9.43E-09 Convergence criterion met
 Total energy in the final basis set = -1510.29233785
   11   -1510.2923506373      6.57E-09 Convergence criterion met
 Total energy in the final basis set = -1510.29235064
   11   -1510.2923468335      5.64E-09 Convergence criterion met
 Total energy in the final basis set = -1510.29234683
   11   -1510.2923506069      2.96E-09 Convergence criterion met
 Total energy in the final basis set = -1510.29235061

             Standard Nuclear Orientation (Angstroms)
    I     Atom           X                Y                Z
 ----------------------------------------------------------------
    1      O      -3.0115954040     1.9015856318     1.9939086350
    2      C      -3.0589318944     1.5873869693     0.7852559413
    3      C      -4.2105110039     0.8057989887     0.0558962425
    4      C      -3.7104563864    -0.4676097158    -0.7515582945
    5      C      -2.1541186643    -0.6433675406    -0.7083297685
    6      O      -1.6639065468    -0.5383279086    -2.0541694959
    7      C      -0.1838504111    -0.4980710486    -2.0672407888
    8      C       0.5023269938    -1.8819498801    -1.7602252592
    9      O       1.9568538394    -1.6355689771    -1.5990654296
   10      C       2.3054285618    -1.6318031026    -0.2040122708
   11      C       3.8120074528    -1.2069626869    -0.0905829145
   12      C       4.0929291368     0.3167635326    -0.4273539480
   13      C       2.8000368392     1.1518160913    -0.7010369373
   14      O       1.6595868523     0.9641443281    -0.2111974829
   15      O      -2.0503082526     1.9093335281    -0.1795154779
   16      O       3.1278032853     2.2084474786    -1.6006530706
   17      O       1.5461167396    -1.9903308182     0.7200481844
   18      C       1.9462352148     3.0651128684    -1.8614390885
   19      C       4.3281498854    -1.2932277261     1.4060640878
   20      C       5.9051100601    -1.3250274581     1.3833715759
   21      C       6.2295888319     0.1672831352     1.0018205736
   22      C       4.7792417382     0.7896594810     0.9319669310
   23      O       4.0199950447     0.0472678373     1.9598370621
   24      H       4.4006486798    -1.8570397332    -0.7632566097
   25      H       4.7722899415     0.4347989344    -1.2894549026
   26      H       3.8322463641    -2.0800609288     2.0068678651
   27      H       6.3000707735    -1.5807352538     2.3794099213
   28      H       6.2966385095    -2.0479225950     0.6498951510
   29      H       6.8231808191     0.6660379429     1.7843557963
   30      H       6.7649264558     0.2548662454     0.0427198463
   31      H       4.7250059164     1.8804251246     1.1160265859
   32      O      -1.4388193424    -0.8586427941     0.2934418138
   33      C      -0.8929727560     2.5688956490     0.4740989145
   34      C      -5.1801991642     0.1351163183     1.1117117475
   35      C      -6.4987748791    -0.3251757597     0.3747149457
   36      C      -5.9877398806    -1.5970593391    -0.3991930564
   37      C      -4.4680460108    -1.6250027582     0.0333544575
   38      O      -4.4959544558    -1.1402867064     1.4309450839
   39      H      -4.7430519416     1.5083395449    -0.6116235567
   40      H      -4.0230694999    -0.4187404445    -1.8090964941
   41      H      -1.0685042556     2.6178171138     1.5669413777
   42      H      -5.3230394099     0.7358229820     2.0310818113
   43      H      -7.2782251573    -0.5848960632     1.1086249749
   44      H      -6.8940209888     0.4529461247    -0.2981020296
   45      H      -6.5008323806    -2.5106340667    -0.0592008083
   46      H      -6.1068898437    -1.5091515437    -1.4909061490
   47      H      -3.9778904809    -2.6162671695    -0.0225748580
   48      H      -0.7936244279     3.5945502517     0.0669313502
   49      H       0.0268970368     1.9831318670     0.2522573180
   50      H       2.2537387332     3.7723929129    -2.6533732990
   51      H       1.6510115727     3.6319027920    -0.9553947337
   52      H       1.0769007904     2.4715124756    -2.2085851773
   53      H       0.0977733984    -2.2926069376    -0.8103278279
   54      H       0.3657377341    -2.6014497814    -2.5921446550
   55      H       0.2056755182     0.2296039011    -1.3188729318
   56      H       0.0910805698    -0.1567119669    -3.0853838385
 ----------------------------------------------------------------

    9   -1510.2923505260      4.96E-09 Convergence criterion met
 Total energy in the final basis set = -1510.29235053
 Final energy is   -1510.29235052602
 **  OPTIMIZATION CONVERGED  **

                    Orbital Energies (a.u.)
 --------------------------------------------------------------

 Alpha MOs
 -- Occupied --
-18.954 -18.923 -18.922 -18.922 -18.896 -18.891 -18.881 -18.875
-18.870 -18.863 -10.117 -10.095 -10.092 -10.089 -10.077 -10.066
-10.059 -10.056 -10.055 -10.054 -10.051 -10.046 -10.039 -10.038
-10.032 -10.029 -10.024 -10.022 -10.015 -10.014  -1.028  -1.006
 -1.003  -0.996  -0.973  -0.963  -0.952  -0.932  -0.928  -0.924
 -0.767  -0.756  -0.728  -0.718  -0.712  -0.701  -0.688  -0.675
 -0.648  -0.614  -0.596  -0.577  -0.548  -0.540  -0.539  -0.531
 -0.516  -0.502  -0.481  -0.471  -0.464  -0.458  -0.452  -0.444
 -0.436  -0.429  -0.424  -0.422  -0.420  -0.410  -0.405  -0.391
 -0.382  -0.376  -0.371  -0.368  -0.362  -0.354  -0.352  -0.350
 -0.345  -0.336  -0.334  -0.330  -0.325  -0.322  -0.319  -0.314
 -0.308  -0.305  -0.304  -0.298  -0.288  -0.283  -0.279  -0.278
 -0.266  -0.262  -0.251  -0.239  -0.237  -0.235  -0.227  -0.194
 -0.179  -0.172  -0.162  -0.155  -0.152  -0.151  -0.147  -0.140
 -0.136

          Ground-State Mulliken Net Atomic Charges

     Atom                 Charge (a.u.)
  ----------------------------------------
      1 O                    -0.209740
      2 C                     0.214932
      3 C                    -0.077776
      4 C                    -0.079677
      5 C                     0.211302
      6 O                    -0.174714
      7 C                    -0.059946
      8 C                    -0.060435
      9 O                    -0.182084
     10 C                     0.214131
     11 C                    -0.079258
     12 C                    -0.077530
     13 C                     0.220716
     14 O                    -0.210244
     15 O                    -0.176391
     16 O                    -0.163730
     17 O                    -0.199197
     18 C                    -0.129761
     19 C                     0.025322
     20 C                    -0.143731
     21 C                    -0.143743
     22 C                     0.026096
     23 O                    -0.185456
     24 H                     0.085425
     25 H                     0.088849
     26 H                     0.092860
     27 H                     0.079415
     28 H                     0.073796
     29 H                     0.079211
     30 H                     0.074070
     31 H                     0.082809
     32 O                    -0.208386
     33 C                    -0.148857
     34 C                     0.024380
     35 C                    -0.144361
     36 C                    -0.143837
     37 C                     0.025459
     38 O                    -0.185822
     39 H                     0.083315
     40 H                     0.084143
     41 H                     0.099894
     42 H                     0.090288
     43 H                     0.077536
     44 H                     0.071981
     45 H                     0.077158
     46 H                     0.072398
     47 H                     0.082865
     48 H                     0.072222
     49 H                     0.104953
     50 H                     0.094892
     51 H                     0.090616
     52 H                     0.094381
     53 H                     0.108386
     54 H                     0.080992
     55 H                     0.100936
     56 H                     0.078945
  ----------------------------------------
  Sum of atomic charges =     0.000000

                    Cartesian Multipole Moments
 -----------------------------------------------------------------
    Charge (ESU x 10^10)
                -0.0000
    Dipole Moment (Debye)
         X       2.0449      Y       1.3276      Z      -4.2065
       Tot       4.8620
    Quadrupole Moments (Debye-Ang)
        XX    -133.5828     XY       0.1491     YY    -151.4174
        XZ       5.5180     YZ      -0.2161     ZZ    -167.6399

 Total job time:  112.14s(wall), 5342.25s(cpu)
        *  Thank you very much for using Q-Chem.  Have a nice day.  *
