 Q-Chem 5.0, Q-Chem, Inc., Pleasanton, CA (2017)
 Q-Chem 5.0.1 for Intel X86 EM64T Linux

User input:
--------------------------------------------------------------
$molecule
0  1
O -3.94934 -3.66094 2.70899
C -3.26408 -4.56952 2.26188
C -3.36658 -6.02376 2.66595
C -2.12836 -6.66087 3.31767
C -0.98754 -5.72649 3.65466
O -0.00117 -5.84143 2.71696
C 1.0856 -4.93404 2.9287
C 2.39583 -5.70404 3.05718
O 3.4386 -5.01754 2.34708
C 3.80806 -3.82081 2.86717
C 4.88576 -3.13625 2.06058
C 4.38435 -2.04058 1.10855
C 2.97195 -1.54849 1.3529
O 2.42723 -1.47116 2.44462
O -2.36245 -4.29156 1.28555
O 2.24148 -1.28055 0.23969
O 3.51844 -3.47182 4.0066
C 0.94847 -0.80466 0.26052
C 5.87681 -2.33066 2.92849
C 7.19026 -2.13549 2.17173
C 6.75848 -1.14377 1.11273
C 5.31173 -0.88994 1.55065
O 5.34754 -1.03095 2.94944
H 5.46707 -3.92754 1.5338
H 4.51375 -2.26737 0.02684
H 6.07419 -2.79676 3.91873
H 7.89604 -1.62717 2.86741
H 7.66216 -3.06526 1.78743
H 7.36952 -0.22085 1.22701
H 6.81342 -1.51075 0.06496
H 4.96413 0.09793 1.17304
O -1.08344 -4.81875 4.47371
C -2.16766 -3.03839 0.74725
C -4.40515 -6.26283 3.78417
C -4.86481 -7.72142 3.77245
C -3.63938 -8.40922 4.33604
C -2.74611 -7.19836 4.61915
O -3.65749 -6.18628 4.9735
H -3.68179 -6.57291 1.7504
H -1.72499 -7.48505 2.68507
H -1.85089 -2.32881 1.5409
H -5.28921 -5.59206 3.71567
H -5.69367 -7.81987 4.5096
H -5.20682 -8.09269 2.78245
H -3.92131 -8.90129 5.29364
H -3.15413 -9.14669 3.66073
H -1.97535 -7.45367 5.37983
H -3.10488 -2.67546 0.27391
H -1.37745 -3.09714 -0.02864
H 0.58402 -0.68929 -0.78074
H 0.91392 0.18408 0.76594
H 0.29286 -1.51826 0.79697
H 2.65011 -5.95894 4.10943
H 2.27518 -6.66349 2.50964
H 0.99816 -4.17947 3.7411
H 1.12804 -4.35034 1.9829
$end

$opt
CONSTRAINT
tors           1           2           3           4    -117.934
tors           3           4           5           6    -101.928
tors           4           5           6           7    +176.878
tors           5           6           7           8    +122.956
tors           6           7           8           9    +138.754
tors           7           8           9          10     +67.438
tors           8           9          10          11    -178.777
tors           9          10          11          12     +99.558
tors          11          12          13          14     +32.879
ENDCONSTRAINT
$end

$rem
JOBTYPE                   OPT
METHOD                    B3LYP
DFT_D                     d3_op
BASIS                     STO-3G
GEOM_OPT_MAX_CYCLES       100
GEOM_OPT_TOL_GRADIENT     300
GEOM_OPT_TOL_DISPLACEMENT 1200
GEOM_OPT_TOL_ENERGY       100
SYMMETRY                  False
THRESH                    12
SCF_CONVERGENCE           8
MAX_SUB_FILE_NUM          128
MEM_STATIC                400
MEM_TOTAL                 4000
$end
--------------------------------------------------------------

   15   -1510.1456216788      7.89E-09 Convergence criterion met
 Total energy in the final basis set = -1510.14562168
   13   -1510.2158477710      8.78E-09 Convergence criterion met
 Total energy in the final basis set = -1510.21584777
   14   -1510.2531979979      1.85E-09 Convergence criterion met
 Total energy in the final basis set = -1510.25319800
   14   -1510.2690755768      6.55E-09 Convergence criterion met
 Total energy in the final basis set = -1510.26907558
   14   -1510.2757640551      6.43E-09 Convergence criterion met
 Total energy in the final basis set = -1510.27576406
   14   -1510.2785530749      2.92E-09 Convergence criterion met
 Total energy in the final basis set = -1510.27855307
   13   -1510.2800081142      3.22E-09 Convergence criterion met
 Total energy in the final basis set = -1510.28000811
   12   -1510.2806235691      7.83E-09 Convergence criterion met
   12   -1510.2847835089      6.03E-09 Convergence criterion met
 Total energy in the final basis set = -1510.28478351
   12   -1510.2849010255      4.26E-09 Convergence criterion met
 Total energy in the final basis set = -1510.28490103
   11   -1510.2849000746      6.67E-09 Convergence criterion met
 Total energy in the final basis set = -1510.28490007
   11   -1510.2849051324      4.49E-09 Convergence criterion met
 Total energy in the final basis set = -1510.28490513
    9   -1510.2849030766      6.20E-09 Convergence criterion met
 Total energy in the final basis set = -1510.28490308
    9   -1510.2849013377      6.44E-09 Convergence criterion met
 Total energy in the final basis set = -1510.28490134

             Standard Nuclear Orientation (Angstroms)
    I     Atom           X                Y                Z
 ----------------------------------------------------------------
    1      O      -3.8232457645     2.1836633665     1.5504031734
    2      C      -3.5615048321     1.5983530483     0.4791263731
    3      C      -4.5141543236     0.6706985062    -0.3655061098
    4      C      -3.9651065493    -0.8210783028    -0.4883866246
    5      C      -2.5282335701    -0.9540398203     0.1136390323
    6      O      -1.5973392122    -0.9734666972    -0.9773203194
    7      C      -0.2137992992    -1.0227589103    -0.4600193497
    8      C       0.5866688353    -2.2652343277    -1.0030842382
    9      O       1.9708174367    -1.8487248097    -1.3455404467
   10      C       2.6908166991    -1.4957581108    -0.1555646390
   11      C       4.1293753312    -1.0366754575    -0.5871362225
   12      C       4.3037356338     0.5400514773    -0.6494678641
   13      C       2.9698950935     1.3598235672    -0.6185381795
   14      O       1.8948891213     1.0951307388    -0.0323875586
   15      O      -2.2752617146     1.6097324799    -0.1552987768
   16      O       3.1760643495     2.5493024490    -1.3864884030
   17      O       2.2524599789    -1.6436702682     1.0042231904
   18      C       1.9522324978     3.3854353307    -1.3727955489
   19      C       5.1472271093    -1.3864673235     0.5776278735
   20      C       6.6246155925    -1.1396988126     0.0741699392
   21      C       6.7239803362     0.4286940959     0.1610496758
   22      C       5.2541529549     0.7937222336     0.6080488238
   23      O       4.9087750694    -0.2919224399     1.5487207821
   24      H       4.3851706880    -1.5090309757    -1.5514554430
   25      H       4.8270490192     0.8327506261    -1.5769863233
   26      H       4.9665746061    -2.3677902809     1.0570155838
   27      H       7.3491232645    -1.6299819951     0.7431769409
   28      H       6.7772748493    -1.5176798031    -0.9493632954
   29      H       7.4452028933     0.7442406950     0.9321026705
   30      H       7.0008092943     0.8968502562    -0.7967971683
   31      H       5.1345721571     1.7834876247     1.0898643277
   32      O      -2.2122790055    -1.0371649238     1.3208400907
   33      C      -1.2744909617     2.3004042272     0.6928456073
   34      C      -5.8654849952     0.4234501536     0.4188784025
   35      C      -6.9002824252    -0.2754375126    -0.5485208828
   36      C      -6.3477484345    -1.7492253949    -0.5779488804
   37      C      -5.0679795124    -1.6102981067     0.3367467789
   38      O      -5.4947384353    -0.6465254280     1.3759637023
   39      H      -4.6728499632     1.1199289947    -1.3629787711
   40      H      -3.9305537239    -1.1408063505    -1.5445659952
   41      H      -1.4125147867     2.0451688606     1.7622079518
   42      H      -6.2376626273     1.3127129511     0.9634561458
   43      H      -7.9162105064    -0.2322782361    -0.1250035987
   44      H      -6.9139122820     0.1929187134    -1.5458490601
   45      H      -7.0640629196    -2.4556404735    -0.1288849116
   46      H      -6.1013849171    -2.0937247185    -1.5949692738
   47      H      -4.7101101476    -2.5483014901     0.8035643426
   48      H      -1.3491933072     3.4016089614     0.5788872939
   49      H      -0.2772505775     1.9561835865     0.3522862163
   50      H       2.1811510851     4.2709222742    -1.9935134054
   51      H       1.6911907378     3.7103081998    -0.3448567817
   52      H       1.0844412378     2.8447755033    -1.8029456867
   53      H       0.5895589263    -3.0910082968    -0.2603993871
   54      H       0.1439329058    -2.6261520896    -1.9538066209
   55      H      -0.2549351754    -1.0405789647     0.6497132591
   56      H       0.3177102688    -0.0989462215    -0.7758466517
 ----------------------------------------------------------------

    9   -1510.2848992960      6.97E-09 Convergence criterion met
 Total energy in the final basis set = -1510.28489930
 Final energy is   -1510.28489929597
 **  OPTIMIZATION CONVERGED  **

                    Orbital Energies (a.u.)
 --------------------------------------------------------------

 Alpha MOs
 -- Occupied --
-18.947 -18.929 -18.927 -18.922 -18.892 -18.889 -18.883 -18.875
-18.871 -18.866 -10.111 -10.095 -10.095 -10.092 -10.073 -10.066
-10.066 -10.062 -10.056 -10.054 -10.053 -10.048 -10.044 -10.039
-10.035 -10.032 -10.024 -10.023 -10.018 -10.016  -1.023  -1.010
 -1.006  -0.999  -0.974  -0.965  -0.947  -0.933  -0.932  -0.927
 -0.767  -0.759  -0.727  -0.721  -0.713  -0.703  -0.690  -0.672
 -0.655  -0.616  -0.597  -0.577  -0.549  -0.543  -0.539  -0.533
 -0.517  -0.504  -0.476  -0.473  -0.464  -0.456  -0.452  -0.448
 -0.437  -0.430  -0.422  -0.419  -0.416  -0.408  -0.407  -0.395
 -0.388  -0.379  -0.375  -0.364  -0.359  -0.358  -0.351  -0.349
 -0.346  -0.341  -0.337  -0.333  -0.328  -0.326  -0.323  -0.314
 -0.308  -0.307  -0.304  -0.302  -0.289  -0.282  -0.280  -0.275
 -0.270  -0.263  -0.248  -0.245  -0.238  -0.237  -0.229  -0.190
 -0.178  -0.173  -0.165  -0.159  -0.154  -0.149  -0.146  -0.145
 -0.139

          Ground-State Mulliken Net Atomic Charges

     Atom                 Charge (a.u.)
  ----------------------------------------
      1 O                    -0.206237
      2 C                     0.210636
      3 C                    -0.077060
      4 C                    -0.079354
      5 C                     0.212090
      6 O                    -0.174614
      7 C                    -0.064446
      8 C                    -0.051526
      9 O                    -0.176252
     10 C                     0.209787
     11 C                    -0.079962
     12 C                    -0.079759
     13 C                     0.211689
     14 O                    -0.213885
     15 O                    -0.173165
     16 O                    -0.167019
     17 O                    -0.205526
     18 C                    -0.129524
     19 C                     0.026779
     20 C                    -0.145172
     21 C                    -0.142306
     22 C                     0.026563
     23 O                    -0.182963
     24 H                     0.086457
     25 H                     0.087358
     26 H                     0.087014
     27 H                     0.079148
     28 H                     0.073969
     29 H                     0.079163
     30 H                     0.074494
     31 H                     0.084242
     32 O                    -0.215007
     33 C                    -0.135247
     34 C                     0.024191
     35 C                    -0.144585
     36 C                    -0.143381
     37 C                     0.025226
     38 O                    -0.186035
     39 H                     0.083921
     40 H                     0.084948
     41 H                     0.097590
     42 H                     0.089304
     43 H                     0.077809
     44 H                     0.072262
     45 H                     0.077679
     46 H                     0.072607
     47 H                     0.085059
     48 H                     0.079974
     49 H                     0.100015
     50 H                     0.093392
     51 H                     0.089870
     52 H                     0.091090
     53 H                     0.088842
     54 H                     0.089806
     55 H                     0.108075
     56 H                     0.091978
  ----------------------------------------
  Sum of atomic charges =    -0.000000

                    Cartesian Multipole Moments
 -----------------------------------------------------------------
    Charge (ESU x 10^10)
                 0.0000
    Dipole Moment (Debye)
         X       2.0490      Y       0.7208      Z      -4.7468
       Tot       5.2202
    Quadrupole Moments (Debye-Ang)
        XX    -140.8553     XY       3.8868     YY    -149.3217
        XZ       6.9148     YZ       0.5050     ZZ    -170.1088

 Total job time:  98.07s(wall), 4670.39s(cpu)
        *  Thank you very much for using Q-Chem.  Have a nice day.  *
