 Q-Chem 5.0, Q-Chem, Inc., Pleasanton, CA (2017)
 Q-Chem 5.0.1 for Intel X86 EM64T Linux

User input:
--------------------------------------------------------------
$molecule
0  1
O -3.8232457645 2.1836633665 1.5504031734
C -3.5615048321 1.5983530483 0.4791263731
C -4.5141543236 0.6706985062 -0.3655061098
C -3.9651065493 -0.8210783028 -0.4883866246
C -2.5282335701 -0.9540398203 0.1136390323
O -1.5973392122 -0.9734666972 -0.9773203194
C -0.2137992992 -1.0227589103 -0.4600193497
C 0.5866688353 -2.2652343277 -1.0030842382
O 1.9708174367 -1.8487248097 -1.3455404467
C 2.6908166991 -1.4957581108 -0.155564639
C 4.1293753312 -1.0366754575 -0.5871362225
C 4.3037356338 0.5400514773 -0.6494678641
C 2.9698950935 1.3598235672 -0.6185381795
O 1.8948891213 1.0951307388 -0.0323875586
O -2.2752617146 1.6097324799 -0.1552987768
O 3.1760643495 2.549302449 -1.386488403
O 2.2524599789 -1.6436702682 1.0042231904
C 1.9522324978 3.3854353307 -1.3727955489
C 5.1472271093 -1.3864673235 0.5776278735
C 6.6246155925 -1.1396988126 0.0741699392
C 6.7239803362 0.4286940959 0.1610496758
C 5.2541529549 0.7937222336 0.6080488238
O 4.9087750694 -0.2919224399 1.5487207821
H 4.385170688 -1.5090309757 -1.551455443
H 4.8270490192 0.8327506261 -1.5769863233
H 4.9665746061 -2.3677902809 1.0570155838
H 7.3491232645 -1.6299819951 0.7431769409
H 6.7772748493 -1.5176798031 -0.9493632954
H 7.4452028933 0.744240695 0.9321026705
H 7.0008092943 0.8968502562 -0.7967971683
H 5.1345721571 1.7834876247 1.0898643277
O -2.2122790055 -1.0371649238 1.3208400907
C -1.2744909617 2.3004042272 0.6928456073
C -5.8654849952 0.4234501536 0.4188784025
C -6.9002824252 -0.2754375126 -0.5485208828
C -6.3477484345 -1.7492253949 -0.5779488804
C -5.0679795124 -1.6102981067 0.3367467789
O -5.4947384353 -0.646525428 1.3759637023
H -4.6728499632 1.1199289947 -1.3629787711
H -3.9305537239 -1.1408063505 -1.5445659952
H -1.4125147867 2.0451688606 1.7622079518
H -6.2376626273 1.3127129511 0.9634561458
H -7.9162105064 -0.2322782361 -0.1250035987
H -6.913912282 0.1929187134 -1.5458490601
H -7.0640629196 -2.4556404735 -0.1288849116
H -6.1013849171 -2.0937247185 -1.5949692738
H -4.7101101476 -2.5483014901 0.8035643426
H -1.3491933072 3.4016089614 0.5788872939
H -0.2772505775 1.9561835865 0.3522862163
H 2.1811510851 4.2709222742 -1.9935134054
H 1.6911907378 3.7103081998 -0.3448567817
H 1.0844412378 2.8447755033 -1.8029456867
H 0.5895589263 -3.0910082968 -0.2603993871
H 0.1439329058 -2.6261520896 -1.9538066209
H -0.2549351754 -1.0405789647 0.6497132591
H 0.3177102688 -0.0989462215 -0.7758466517
$end

$rem
JOBTYPE                   OPT
METHOD                    B3LYP
DFT_D                     d3_op
BASIS                     STO-3G
GEOM_OPT_MAX_CYCLES       100
GEOM_OPT_TOL_GRADIENT     300
GEOM_OPT_TOL_DISPLACEMENT 1200
GEOM_OPT_TOL_ENERGY       100
SYMMETRY                  False
THRESH                    12
SCF_CONVERGENCE           8
MAX_SUB_FILE_NUM          128
MEM_STATIC                400
MEM_TOTAL                 4000
$end
--------------------------------------------------------------

   16   -1510.2848613004      2.84E-09 Convergence criterion met
 Total energy in the final basis set = -1510.28486130
   15   -1510.2813926888      2.62E-09 Convergence criterion met
 Total energy in the final basis set = -1510.28139269
   15   -1510.2851141592      4.21E-09 Convergence criterion met
 Total energy in the final basis set = -1510.28511416
   14   -1510.2867964005      3.90E-09 Convergence criterion met
 Total energy in the final basis set = -1510.28679640
   13   -1510.2855954046      6.84E-09 Convergence criterion met
 Total energy in the final basis set = -1510.28559540
   15   -1510.2876287370      2.22E-09 Convergence criterion met
 Total energy in the final basis set = -1510.28762874
   15   -1510.2877929168      1.64E-09 Convergence criterion met
 Total energy in the final basis set = -1510.28779292
   13   -1510.2897928875      9.30E-09 Convergence criterion met
   11   -1510.3002921575      4.50E-09 Convergence criterion met
 Total energy in the final basis set = -1510.30029216
   12   -1510.3002798504      4.66E-09 Convergence criterion met
 Total energy in the final basis set = -1510.30027985
   11   -1510.3002975957      4.73E-09 Convergence criterion met
 Total energy in the final basis set = -1510.30029760
   10   -1510.3003026995      9.56E-09 Convergence criterion met
 Total energy in the final basis set = -1510.30030270
   11   -1510.3003009713      3.31E-09 Convergence criterion met
 Total energy in the final basis set = -1510.30030097
    9   -1510.3003034219      7.21E-09 Convergence criterion met
 Total energy in the final basis set = -1510.30030342

             Standard Nuclear Orientation (Angstroms)
    I     Atom           X                Y                Z
 ----------------------------------------------------------------
    1      O      -3.4882027214     2.1600566901     2.1784916969
    2      C      -3.0103673951     1.6332592783     1.1529404383
    3      C      -3.7578515154     1.2215513598    -0.1676421677
    4      C      -3.3733010445    -0.2307077088    -0.6848374927
    5      C      -2.3742405847    -0.9773731224     0.2652503958
    6      O      -1.1231377821    -1.1707784485    -0.4284247245
    7      C      -0.1357038484    -1.8147352699     0.4755985749
    8      C       0.8221707869    -2.7172766294    -0.3756968942
    9      O       1.9527311932    -1.9218569032    -0.9167262016
   10      C       3.0692239963    -1.9860349182    -0.0157066235
   11      C       4.2026586633    -1.0423587916    -0.5491054411
   12      C       3.7476929355     0.4647740016    -0.7605397032
   13      C       2.2312494781     0.7107262728    -0.4465831606
   14      O       1.6682756887     0.6082086121     0.6706095152
   15      O      -1.6346925985     1.3022353181     0.9628785952
   16      O       1.5962066993     1.0947347875    -1.6581377182
   17      O       3.1091321439    -2.7092448688     1.0025717192
   18      C       0.1349025533     1.2772107714    -1.4700727658
   19      C       5.3347815770    -0.8686722551     0.5446922604
   20      C       6.6113408506    -0.2464413337    -0.1441251947
   21      C       6.1548702602     1.2485263710    -0.3341969163
   22      C       4.6993376216     1.2030587692     0.2775495342
   23      O       4.8177776420     0.2336304293     1.3890138515
   24      H       4.5947982421    -1.4665185458    -1.4918898310
   25      H       3.9352673510     0.7938966872    -1.7971687857
   26      H       5.5053692786    -1.7756592708     1.1569325680
   27      H       7.4844832313    -0.3205407156     0.5232705168
   28      H       6.8511713713    -0.7432260343    -1.0976930848
   29      H       6.7909701607     1.9411094915     0.2397030619
   30      H       6.1521496874     1.5629694223    -1.3901613012
   31      H       4.3111212298     2.1714292019     0.6484452459
   32      O      -2.6068511260    -1.4249704818     1.4081824981
   33      C      -0.8214715349     1.5570499755     2.1727771757
   34      C      -5.3160049949     1.0661913431     0.0642667435
   35      C      -6.0313645522     1.0692844755    -1.3417667800
   36      C      -5.6472294493    -0.3603673010    -1.8790535559
   37      C      -4.8026603732    -0.9264997051    -0.6688427574
   38      O      -5.4551009096    -0.3368163163     0.5215761311
   39      H      -3.5349120453     1.9799603813    -0.9411086204
   40      H      -2.9362845847    -0.1957421695    -1.6979063615
   41      H      -1.1327773709     0.8960018016     3.0067267964
   42      H      -5.7263489760     1.7630215195     0.8210293431
   43      H      -7.1210988351     1.1750043193    -1.2199664696
   44      H      -5.6673930229     1.8807143311    -1.9919191136
   45      H      -6.5403178019    -0.9822840717    -2.0501655516
   46      H      -5.0605932331    -0.3213062245    -2.8110086291
   47      H      -4.7746687022    -2.0303349289    -0.5869370275
   48      H      -0.9029925465     2.6124895536     2.5015352832
   49      H       0.2175868364     1.3205577109     1.8595223782
   50      H      -0.2545880653     1.5732944493    -2.4609537167
   51      H      -0.0818780362     2.0775097726    -0.7353439178
   52      H      -0.3588481744     0.3344077992    -1.1246437674
   53      H       1.2233213369    -3.5306621001     0.2663636389
   54      H       0.2818021611    -3.1442082535    -1.2448894097
   55      H      -0.6815327967    -2.4030517920     1.2434210492
   56      H       0.4642994129    -1.0165994652     0.9715555775
 ----------------------------------------------------------------

    9   -1510.3003031273      4.72E-09 Convergence criterion met
 Total energy in the final basis set = -1510.30030313
 Final energy is   -1510.30030312733
 **  OPTIMIZATION CONVERGED  **

                    Orbital Energies (a.u.)
 --------------------------------------------------------------

 Alpha MOs
 -- Occupied --
-18.937 -18.936 -18.936 -18.934 -18.889 -18.888 -18.883 -18.879
-18.876 -18.872 -10.104 -10.103 -10.103 -10.100 -10.073 -10.062
-10.062 -10.061 -10.059 -10.058 -10.050 -10.041 -10.040 -10.040
-10.039 -10.038 -10.022 -10.022 -10.021 -10.020  -1.019  -1.015
 -1.008  -1.006  -0.971  -0.970  -0.944  -0.938  -0.936  -0.935
 -0.766  -0.764  -0.729  -0.724  -0.712  -0.707  -0.698  -0.656
 -0.655  -0.618  -0.598  -0.581  -0.548  -0.545  -0.539  -0.537
 -0.512  -0.511  -0.487  -0.474  -0.459  -0.458  -0.454  -0.453
 -0.437  -0.432  -0.430  -0.418  -0.415  -0.409  -0.401  -0.398
 -0.392  -0.383  -0.372  -0.367  -0.364  -0.362  -0.354  -0.351
 -0.342  -0.341  -0.338  -0.332  -0.331  -0.327  -0.324  -0.312
 -0.311  -0.307  -0.306  -0.302  -0.293  -0.290  -0.285  -0.275
 -0.273  -0.263  -0.254  -0.245  -0.241  -0.236  -0.234  -0.185
 -0.178  -0.174  -0.170  -0.163  -0.159  -0.153  -0.151  -0.145
 -0.144

          Ground-State Mulliken Net Atomic Charges

     Atom                 Charge (a.u.)
  ----------------------------------------
      1 O                    -0.206086
      2 C                     0.213299
      3 C                    -0.078515
      4 C                    -0.079102
      5 C                     0.216840
      6 O                    -0.174958
      7 C                    -0.062260
      8 C                    -0.053914
      9 O                    -0.174028
     10 C                     0.211290
     11 C                    -0.078166
     12 C                    -0.079341
     13 C                     0.218142
     14 O                    -0.228455
     15 O                    -0.175601
     16 O                    -0.166701
     17 O                    -0.208612
     18 C                    -0.148436
     19 C                     0.024450
     20 C                    -0.144224
     21 C                    -0.143666
     22 C                     0.025426
     23 O                    -0.186873
     24 H                     0.086101
     25 H                     0.087054
     26 H                     0.090865
     27 H                     0.078775
     28 H                     0.073255
     29 H                     0.078359
     30 H                     0.073773
     31 H                     0.083224
     32 O                    -0.212263
     33 C                    -0.140275
     34 C                     0.023917
     35 C                    -0.143855
     36 C                    -0.144041
     37 C                     0.025799
     38 O                    -0.185734
     39 H                     0.083532
     40 H                     0.084506
     41 H                     0.088895
     42 H                     0.091124
     43 H                     0.078783
     44 H                     0.072803
     45 H                     0.078488
     46 H                     0.072864
     47 H                     0.083740
     48 H                     0.084767
     49 H                     0.113103
     50 H                     0.078655
     51 H                     0.083508
     52 H                     0.113424
     53 H                     0.100412
     54 H                     0.092000
     55 H                     0.099412
     56 H                     0.104524
  ----------------------------------------
  Sum of atomic charges =    -0.000000

                    Cartesian Multipole Moments
 -----------------------------------------------------------------
    Charge (ESU x 10^10)
                -0.0000
    Dipole Moment (Debye)
         X       1.4577      Y       0.6044      Z      -4.5649
       Tot       4.8300
    Quadrupole Moments (Debye-Ang)
        XX    -153.0302     XY       0.3287     YY    -155.5741
        XZ       6.5673     YZ       1.6641     ZZ    -167.2314

 Total job time:  122.15s(wall), 5821.39s(cpu)
        *  Thank you very much for using Q-Chem.  Have a nice day.  *
