 Q-Chem 5.0, Q-Chem, Inc., Pleasanton, CA (2017)
 Q-Chem 5.0.1 for Intel X86 EM64T Linux

User input:
--------------------------------------------------------------
$molecule
0  1
O -2.1855608893 0.9221839465 1.4538541413
C -2.8128625349 1.2949273746 0.4396952146
C -4.0640313667 0.6356862302 -0.2447931798
C -3.9557957096 -0.9394914428 -0.4800572733
C -2.6251459252 -1.5344290106 0.0885904082
O -1.7957210813 -1.950021473 -1.0230479238
C -0.3830597261 -1.619076914 -0.7228068122
C 0.5684235028 -2.8604305353 -0.8967412935
O 1.9742237954 -2.4476812986 -1.1581085475
C 2.4222026658 -1.4648363038 -0.2108110329
C 3.8330734166 -0.9626443517 -0.6744587307
C 4.045733398 0.6012609159 -0.5565650752
C 2.7734458976 1.5210153658 -0.5754919654
O 1.6140007601 1.3287317622 -0.1475122538
O -2.4071319426 2.4108171168 -0.3662813919
O 3.1949773261 2.7433735965 -1.2004042839
O 1.8339521478 -1.1781237718 0.8529915937
C 2.0852756431 3.7212280749 -1.2397638359
C 4.8830543374 -1.4567032631 0.4164874834
C 6.3523260693 -1.0964421472 -0.0453818455
C 6.428854582 0.4321877304 0.3232256917
C 4.9383368559 0.6960737674 0.7682007336
O 4.6087259597 -0.523913311 1.5343802819
H 4.0448494026 -1.3394362666 -1.6897345255
H 4.6537067443 0.946031454 -1.4121693845
H 4.7371602188 -2.5046485198 0.7429696787
H 7.0925523605 -1.6892539297 0.5146217163
H 6.496315412 -1.2785355272 -1.1225732041
H 7.1141435341 0.6067822035 1.1683643635
H 6.7384008134 1.0655750265 -0.5231074714
H 4.7735882321 1.6019576966 1.3832687021
O -2.2920841042 -1.6593606042 1.2842701836
C -1.1527759502 2.987754811 0.1773395782
C -5.3614725569 0.7055709046 0.6763511316
C -6.6269313187 0.4703204523 -0.2392340207
C -6.521824517 -1.0769398988 -0.5072213361
C -5.2293035893 -1.4437682185 0.3245822643
O -5.2863584618 -0.5291506953 1.4866890757
H -4.2287054207 1.161239645 -1.2019831501
H -4.0149919793 -1.1836726876 -1.5550741696
H -0.2892582934 2.2921702329 0.0621032187
H -5.412902774 1.5966169231 1.3315940879
H -7.5485935866 0.7234238264 0.3088128202
H -6.5893598918 1.0685143794 -1.1635817428
H -7.3992092361 -1.6164508565 -0.1165171074
H -6.4064773043 -1.3169777018 -1.576369071
H -5.1679266079 -2.4955129049 0.66515374
H -1.2558973973 3.2467147879 1.2501900421
H -0.96930326 3.9074081211 -0.4077702978
H 2.4905345173 4.6222716683 -1.7358238441
H 1.7362780225 3.9862514348 -0.2210065309
H 1.2221176454 3.3371718033 -1.8204232848
H 0.5103029826 -3.5081376584 0.0050968569
H 0.2711503502 -3.4551462225 -1.7843121589
H -0.2748875977 -1.2287937342 0.3090369664
H -0.0648415273 -0.8294624139 -1.4401136371
$end

$rem
JOBTYPE                   OPT
METHOD                    B3LYP
DFT_D                     d3_op
BASIS                     STO-3G
GEOM_OPT_MAX_CYCLES       100
GEOM_OPT_TOL_GRADIENT     300
GEOM_OPT_TOL_DISPLACEMENT 1200
GEOM_OPT_TOL_ENERGY       100
SYMMETRY                  False
THRESH                    12
SCF_CONVERGENCE           8
MAX_SUB_FILE_NUM          128
MEM_STATIC                400
MEM_TOTAL                 4000
$end
--------------------------------------------------------------

   16   -1510.2645554578      4.27E-09 Convergence criterion met
 Total energy in the final basis set = -1510.26455546
   13   -1510.2653491418      9.79E-09 Convergence criterion met
 Total energy in the final basis set = -1510.26534914
   13   -1510.2690606372      4.75E-09 Convergence criterion met
 Total energy in the final basis set = -1510.26906064
   14   -1510.2685708458      9.79E-09 Convergence criterion met
 Total energy in the final basis set = -1510.26857085
   14   -1510.2724915376      2.36E-09 Convergence criterion met
 Total energy in the final basis set = -1510.27249154
   14   -1510.2756979507      3.48E-09 Convergence criterion met
 Total energy in the final basis set = -1510.27569795
   14   -1510.2775320904      2.98E-09 Convergence criterion met
 Total energy in the final basis set = -1510.27753209
   13   -1510.2796064396      9.06E-09 Convergence criterion met
   12   -1510.3030539552      3.06E-09 Convergence criterion met
 Total energy in the final basis set = -1510.30305396
   11   -1510.3030698216      6.19E-09 Convergence criterion met
 Total energy in the final basis set = -1510.30306982
   11   -1510.3030865333      6.79E-09 Convergence criterion met
 Total energy in the final basis set = -1510.30308653
   10   -1510.3030880114      4.10E-09 Convergence criterion met
 Total energy in the final basis set = -1510.30308801
    9   -1510.3030909909      7.09E-09 Convergence criterion met
 Total energy in the final basis set = -1510.30309099
    9   -1510.3030921978      8.91E-09 Convergence criterion met
 Total energy in the final basis set = -1510.30309220

             Standard Nuclear Orientation (Angstroms)
    I     Atom           X                Y                Z
 ----------------------------------------------------------------
    1      O      -1.9207442033     0.3266104003     1.6765088911
    2      C      -2.1909850123     1.2241479120     0.8464720295
    3      C      -3.2559154678     1.1362023128    -0.2969758605
    4      C      -3.4659377444    -0.3523296184    -0.8044082520
    5      C      -2.5841485664    -1.4057433735    -0.0409603234
    6      O      -1.2194415379    -1.2693596919    -0.4909836506
    7      C      -0.3132545020    -2.0824106497     0.3539036356
    8      C       0.7196676799    -2.8464355331    -0.5450552892
    9      O       1.8375467657    -1.9659950753    -0.9669286220
   10      C       2.8976569592    -2.0249120683    -0.0002581867
   11      C       4.0364803017    -1.0376330628    -0.4360374577
   12      C       3.5499214783     0.4504945048    -0.6984237128
   13      C       2.0103230170     0.6490226375    -0.4848243523
   14      O       1.3771919073     0.5089563403     0.5902702757
   15      O      -1.5408749088     2.4936676390     0.7910903979
   16      O       1.4425805078     1.0432041754    -1.7261163170
   17      O       2.8982800791    -2.7810948452     0.9944070823
   18      C      -0.0338749854     1.1628576671    -1.6235005617
   19      C       5.0662174642    -0.8198824295     0.7472959747
   20      C       6.3790303640    -0.1733301698     0.1556592187
   21      C       5.8983288781     1.3035761097    -0.1031154491
   22      C       4.4014129477     1.2297170615     0.3952180339
   23      O       4.4553273553     0.2806966076     1.5292360151
   24      H       4.5258584776    -1.4505074861    -1.3377187907
   25      H       3.7965291494     0.7767942544    -1.7236418181
   26      H       5.2079776067    -1.7142454531     1.3850159461
   27      H       7.1948963706    -0.2096505713     0.8949988863
   28      H       6.7112254495    -0.6807722041    -0.7639817836
   29      H       6.4694587939     2.0263741501     0.5009089621
   30      H       5.9688459328     1.5948817867    -1.1633290596
   31      H       3.9620465162     2.1936664192     0.7172303744
   32      O      -2.9711640415    -2.2973366415     0.7424445256
   33      C      -0.4358463596     2.5281555739     1.7864873568
   34      C      -4.7218140691     1.4768934715     0.2260944226
   35      C      -5.6483204661     1.7152074564    -1.0305038977
   36      C      -5.8513106842     0.2405787930    -1.5423964419
   37      C      -5.0023533212    -0.5685389901    -0.4854317973
   38      O      -5.1975693462     0.1882855192     0.7738580460
   39      H      -2.9571930924     1.8134313565    -1.1157064132
   40      H      -3.2479666027    -0.4319357593    -1.8847875790
   41      H       0.3382522142     1.7738951585     1.5043900800
   42      H      -4.7606584556     2.2687475902     0.9993853613
   43      H      -6.6026512779     2.1711783703    -0.7224382679
   44      H      -5.1716808188     2.3662210618    -1.7807108373
   45      H      -6.9100139037    -0.0603089408    -1.4985269981
   46      H      -5.4836725836     0.0929892260    -2.5705110702
   47      H      -5.2885487159    -1.6286889973    -0.3441400809
   48      H      -0.8064319480     2.3224907049     2.8099149118
   49      H      -0.0192369819     3.5504188945     1.7372537252
   50      H      -0.3851643920     1.3672712059    -2.6508436573
   51      H      -0.3327262439     2.0000314907    -0.9583026804
   52      H      -0.4903845867     0.2173282657    -1.2369639327
   53      H       1.1254988176    -3.7061750776     0.0303617481
   54      H       0.2309914219    -3.2044383083    -1.4737797224
   55      H      -0.9332997538    -2.7951087792     0.9400460902
   56      H       0.2259115274    -1.3940084875     1.0422407814
 ----------------------------------------------------------------

    9   -1510.3030925508      4.72E-09 Convergence criterion met
 Total energy in the final basis set = -1510.30309255
 Final energy is   -1510.30309255085
 **  OPTIMIZATION CONVERGED  **

                    Orbital Energies (a.u.)
 --------------------------------------------------------------

 Alpha MOs
 -- Occupied --
-18.935 -18.935 -18.934 -18.932 -18.889 -18.888 -18.881 -18.879
-18.877 -18.870 -10.103 -10.102 -10.101 -10.100 -10.072 -10.063
-10.062 -10.061 -10.060 -10.058 -10.045 -10.040 -10.040 -10.039
-10.037 -10.036 -10.022 -10.021 -10.021 -10.020  -1.018  -1.014
 -1.007  -1.005  -0.972  -0.970  -0.942  -0.936  -0.935  -0.933
 -0.766  -0.764  -0.728  -0.724  -0.711  -0.707  -0.698  -0.655
 -0.654  -0.615  -0.597  -0.581  -0.550  -0.543  -0.540  -0.536
 -0.512  -0.510  -0.486  -0.470  -0.461  -0.458  -0.453  -0.450
 -0.435  -0.432  -0.431  -0.424  -0.414  -0.406  -0.402  -0.395
 -0.391  -0.383  -0.370  -0.366  -0.361  -0.359  -0.352  -0.350
 -0.344  -0.340  -0.335  -0.333  -0.331  -0.328  -0.325  -0.312
 -0.311  -0.307  -0.305  -0.301  -0.295  -0.286  -0.284  -0.277
 -0.270  -0.262  -0.252  -0.248  -0.237  -0.235  -0.234  -0.186
 -0.175  -0.172  -0.169  -0.161  -0.158  -0.151  -0.150  -0.146
 -0.144

          Ground-State Mulliken Net Atomic Charges

     Atom                 Charge (a.u.)
  ----------------------------------------
      1 O                    -0.206715
      2 C                     0.212690
      3 C                    -0.079756
      4 C                    -0.080058
      5 C                     0.222072
      6 O                    -0.181424
      7 C                    -0.057735
      8 C                    -0.052943
      9 O                    -0.173792
     10 C                     0.211739
     11 C                    -0.078159
     12 C                    -0.079382
     13 C                     0.217788
     14 O                    -0.226819
     15 O                    -0.172526
     16 O                    -0.167110
     17 O                    -0.208897
     18 C                    -0.156311
     19 C                     0.024310
     20 C                    -0.144037
     21 C                    -0.143856
     22 C                     0.025453
     23 O                    -0.186719
     24 H                     0.085618
     25 H                     0.086740
     26 H                     0.091150
     27 H                     0.078604
     28 H                     0.073078
     29 H                     0.078147
     30 H                     0.073685
     31 H                     0.082419
     32 O                    -0.205142
     33 C                    -0.144547
     34 C                     0.025827
     35 C                    -0.143521
     36 C                    -0.144254
     37 C                     0.025465
     38 O                    -0.186009
     39 H                     0.085355
     40 H                     0.084213
     41 H                     0.112964
     42 H                     0.084400
     43 H                     0.078806
     44 H                     0.073764
     45 H                     0.078884
     46 H                     0.072991
     47 H                     0.090024
     48 H                     0.087279
     49 H                     0.082583
     50 H                     0.077463
     51 H                     0.085653
     52 H                     0.110620
     53 H                     0.099388
     54 H                     0.090933
     55 H                     0.104355
     56 H                     0.105255
  ----------------------------------------
  Sum of atomic charges =     0.000000

                    Cartesian Multipole Moments
 -----------------------------------------------------------------
    Charge (ESU x 10^10)
                -0.0000
    Dipole Moment (Debye)
         X       0.9452      Y       1.6676      Z      -4.1086
       Tot       4.5337
    Quadrupole Moments (Debye-Ang)
        XX    -147.5342     XY      -3.7312     YY    -155.8754
        XZ       4.4154     YZ       6.2673     ZZ    -165.1243

 Total job time:  217.37s(wall), 10367.17s(cpu)
        *  Thank you very much for using Q-Chem.  Have a nice day.  *
