 Q-Chem 5.0, Q-Chem, Inc., Pleasanton, CA (2017)
 Q-Chem 5.0.1 for Intel X86 EM64T Linux

User input:
--------------------------------------------------------------
$molecule
0  1
O -3.94934 -3.66094 2.70899
C -3.26408 -4.56952 2.26188
C -3.36658 -6.02376 2.66595
C -3.41196 -6.33322 4.17128
C -3.529 -5.14556 5.10073
O -2.36693 -4.98799 5.80086
C -1.99356 -3.61653 5.971
C -1.73395 -3.32138 7.44464
O -0.86085 -2.1879 7.57033
C -1.21302 -1.09735 6.8452
C -0.17175 -0.0042 6.88315
C 0.09882 0.67916 5.53478
C -0.93187 0.43398 4.45114
O -2.12988 0.2746 4.63539
O -2.27312 -4.28205 1.37871
O -0.45983 0.39861 3.17822
O -2.40031 -0.84126 6.68961
C -1.26256 0.48702 2.05937
C -0.5989 1.19833 7.7462
C 0.63612 1.98126 8.18949
C 1.05341 2.61215 6.87744
C -0.09375 2.14689 5.97298
O -1.20256 2.08042 6.83633
H 0.76277 -0.43459 7.3118
H 1.11818 0.51715 5.119
H -1.21042 0.90761 8.62851
H 0.28544 2.78571 8.87522
H 1.42124 1.38219 8.699
H 1.03108 3.71811 6.99817
H 2.04319 2.29067 6.487
H -0.19924 2.83374 5.10327
O -4.47955 -4.37293 5.14502
C -1.89582 -3.01084 1.01369
C -4.72835 -6.61696 2.24287
C -4.62509 -8.13795 2.13075
C -4.53426 -8.52326 3.5928
C -4.70951 -7.15098 4.25204
O -5.55619 -6.45636 3.36955
H -2.56182 -6.58466 2.13745
H -2.51874 -6.92927 4.46969
H -1.50614 -2.47929 1.90485
H -5.11203 -6.1899 1.28996
H -5.59757 -8.5035 1.72944
H -3.80028 -8.51268 1.48728
H -5.39539 -9.18456 3.83635
H -3.58282 -9.01036 3.89782
H -5.07387 -7.26253 5.29739
H -2.75548 -2.46137 0.5738
H -1.08473 -3.07411 0.25975
H -0.6364 0.38353 1.14962
H -1.76655 1.4767 2.03641
H -2.03714 -0.30457 2.06579
H -2.69565 -3.16985 7.9814
H -1.20641 -4.18044 7.91124
H -2.6726 -2.87866 5.48996
H -1.01761 -3.52368 5.44616
$end

$opt
CONSTRAINT
tors           1           2           3           4     -47.567
tors           3           4           5           6    -111.029
tors           4           5           6           7    +140.939
tors           5           6           7           8    +127.625
tors           6           7           8           9    +156.213
tors           7           8           9          10     +49.458
tors           8           9          10          11    -172.870
tors           9          10          11          12    +137.662
tors          11          12          13          14     +32.879
ENDCONSTRAINT
$end

$rem
JOBTYPE                   OPT
METHOD                    B3LYP
DFT_D                     d3_op
BASIS                     STO-3G
GEOM_OPT_MAX_CYCLES       100
GEOM_OPT_TOL_GRADIENT     300
GEOM_OPT_TOL_DISPLACEMENT 1200
GEOM_OPT_TOL_ENERGY       100
SYMMETRY                  False
THRESH                    12
SCF_CONVERGENCE           8
MAX_SUB_FILE_NUM          128
MEM_STATIC                400
MEM_TOTAL                 4000
$end
--------------------------------------------------------------

   15   -1510.1182722745      9.02E-09 Convergence criterion met
 Total energy in the final basis set = -1510.11827227
   14   -1510.1908055050      2.49E-09 Convergence criterion met
 Total energy in the final basis set = -1510.19080550
   15   -1510.2279735932      2.54E-09 Convergence criterion met
 Total energy in the final basis set = -1510.22797359
   14   -1510.2471506649      8.12E-09 Convergence criterion met
 Total energy in the final basis set = -1510.24715066
   13   -1510.2548889192      8.12E-09 Convergence criterion met
 Total energy in the final basis set = -1510.25488892
   13   -1510.2587386109      7.28E-09 Convergence criterion met
 Total energy in the final basis set = -1510.25873861
   13   -1510.2604705307      7.08E-09 Convergence criterion met
 Total energy in the final basis set = -1510.26047053
   12   -1510.2608296373      6.44E-09 Convergence criterion met
   11   -1510.2644978287      3.00E-09 Convergence criterion met
 Total energy in the final basis set = -1510.26449783
   10   -1510.2645028510      6.56E-09 Convergence criterion met
 Total energy in the final basis set = -1510.26450285
   10   -1510.2645049542      6.58E-09 Convergence criterion met
 Total energy in the final basis set = -1510.26450495
    9   -1510.2645072573      8.29E-09 Convergence criterion met
 Total energy in the final basis set = -1510.26450726
   10   -1510.2645101970      4.46E-09 Convergence criterion met
 Total energy in the final basis set = -1510.26451020
   10   -1510.2645112517      4.29E-09 Convergence criterion met
 Total energy in the final basis set = -1510.26451125

             Standard Nuclear Orientation (Angstroms)
    I     Atom           X                Y                Z
 ----------------------------------------------------------------
    1      O      -2.1855608893     0.9221839465     1.4538541413
    2      C      -2.8128625349     1.2949273746     0.4396952146
    3      C      -4.0640313667     0.6356862302    -0.2447931798
    4      C      -3.9557957096    -0.9394914428    -0.4800572733
    5      C      -2.6251459252    -1.5344290106     0.0885904082
    6      O      -1.7957210813    -1.9500214730    -1.0230479238
    7      C      -0.3830597261    -1.6190769140    -0.7228068122
    8      C       0.5684235028    -2.8604305353    -0.8967412935
    9      O       1.9742237954    -2.4476812986    -1.1581085475
   10      C       2.4222026658    -1.4648363038    -0.2108110329
   11      C       3.8330734166    -0.9626443517    -0.6744587307
   12      C       4.0457333980     0.6012609159    -0.5565650752
   13      C       2.7734458976     1.5210153658    -0.5754919654
   14      O       1.6140007601     1.3287317622    -0.1475122538
   15      O      -2.4071319426     2.4108171168    -0.3662813919
   16      O       3.1949773261     2.7433735965    -1.2004042839
   17      O       1.8339521478    -1.1781237718     0.8529915937
   18      C       2.0852756431     3.7212280749    -1.2397638359
   19      C       4.8830543374    -1.4567032631     0.4164874834
   20      C       6.3523260693    -1.0964421472    -0.0453818455
   21      C       6.4288545820     0.4321877304     0.3232256917
   22      C       4.9383368559     0.6960737674     0.7682007336
   23      O       4.6087259597    -0.5239133110     1.5343802819
   24      H       4.0448494026    -1.3394362666    -1.6897345255
   25      H       4.6537067443     0.9460314540    -1.4121693845
   26      H       4.7371602188    -2.5046485198     0.7429696787
   27      H       7.0925523605    -1.6892539297     0.5146217163
   28      H       6.4963154120    -1.2785355272    -1.1225732041
   29      H       7.1141435341     0.6067822035     1.1683643635
   30      H       6.7384008134     1.0655750265    -0.5231074714
   31      H       4.7735882321     1.6019576966     1.3832687021
   32      O      -2.2920841042    -1.6593606042     1.2842701836
   33      C      -1.1527759502     2.9877548110     0.1773395782
   34      C      -5.3614725569     0.7055709046     0.6763511316
   35      C      -6.6269313187     0.4703204523    -0.2392340207
   36      C      -6.5218245170    -1.0769398988    -0.5072213361
   37      C      -5.2293035893    -1.4437682185     0.3245822643
   38      O      -5.2863584618    -0.5291506953     1.4866890757
   39      H      -4.2287054207     1.1612396450    -1.2019831501
   40      H      -4.0149919793    -1.1836726876    -1.5550741696
   41      H      -0.2892582934     2.2921702329     0.0621032187
   42      H      -5.4129027740     1.5966169231     1.3315940879
   43      H      -7.5485935866     0.7234238264     0.3088128202
   44      H      -6.5893598918     1.0685143794    -1.1635817428
   45      H      -7.3992092361    -1.6164508565    -0.1165171074
   46      H      -6.4064773043    -1.3169777018    -1.5763690710
   47      H      -5.1679266079    -2.4955129049     0.6651537400
   48      H      -1.2558973973     3.2467147879     1.2501900421
   49      H      -0.9693032600     3.9074081211    -0.4077702978
   50      H       2.4905345173     4.6222716683    -1.7358238441
   51      H       1.7362780225     3.9862514348    -0.2210065309
   52      H       1.2221176454     3.3371718033    -1.8204232848
   53      H       0.5103029826    -3.5081376584     0.0050968569
   54      H       0.2711503502    -3.4551462225    -1.7843121589
   55      H      -0.2748875977    -1.2287937342     0.3090369664
   56      H      -0.0648415273    -0.8294624139    -1.4401136371
 ----------------------------------------------------------------

    9   -1510.2645112892      5.94E-09 Convergence criterion met
 Total energy in the final basis set = -1510.26451129
 Final energy is   -1510.26451128920
 **  OPTIMIZATION CONVERGED  **

                    Orbital Energies (a.u.)
 --------------------------------------------------------------

 Alpha MOs
 -- Occupied --
-18.940 -18.928 -18.923 -18.911 -18.892 -18.887 -18.886 -18.880
-18.875 -18.868 -10.107 -10.095 -10.092 -10.088 -10.070 -10.066
-10.064 -10.063 -10.057 -10.056 -10.055 -10.048 -10.041 -10.039
-10.034 -10.033 -10.024 -10.022 -10.018 -10.017  -1.018  -1.007
 -1.003  -0.997  -0.974  -0.967  -0.943  -0.933  -0.929  -0.923
 -0.766  -0.759  -0.727  -0.720  -0.713  -0.704  -0.691  -0.670
 -0.653  -0.614  -0.595  -0.579  -0.548  -0.543  -0.540  -0.535
 -0.516  -0.507  -0.471  -0.468  -0.461  -0.456  -0.449  -0.446
 -0.437  -0.430  -0.426  -0.419  -0.415  -0.404  -0.402  -0.393
 -0.384  -0.380  -0.372  -0.365  -0.360  -0.356  -0.351  -0.346
 -0.341  -0.336  -0.334  -0.332  -0.328  -0.326  -0.319  -0.315
 -0.309  -0.306  -0.304  -0.301  -0.293  -0.285  -0.278  -0.274
 -0.269  -0.261  -0.249  -0.247  -0.237  -0.236  -0.231  -0.185
 -0.177  -0.170  -0.161  -0.157  -0.153  -0.148  -0.141  -0.140
 -0.135

          Ground-State Mulliken Net Atomic Charges

     Atom                 Charge (a.u.)
  ----------------------------------------
      1 O                    -0.201592
      2 C                     0.200348
      3 C                    -0.079525
      4 C                    -0.079726
      5 C                     0.211031
      6 O                    -0.186653
      7 C                    -0.060378
      8 C                    -0.051263
      9 O                    -0.175119
     10 C                     0.207613
     11 C                    -0.079430
     12 C                    -0.080213
     13 C                     0.209466
     14 O                    -0.207523
     15 O                    -0.174749
     16 O                    -0.170830
     17 O                    -0.196284
     18 C                    -0.130081
     19 C                     0.026396
     20 C                    -0.145302
     21 C                    -0.141643
     22 C                     0.027686
     23 O                    -0.182618
     24 H                     0.086537
     25 H                     0.086727
     26 H                     0.084595
     27 H                     0.079241
     28 H                     0.074252
     29 H                     0.079000
     30 H                     0.074807
     31 H                     0.085475
     32 O                    -0.184765
     33 C                    -0.139588
     34 C                     0.026557
     35 C                    -0.143624
     36 C                    -0.144206
     37 C                     0.026352
     38 O                    -0.183247
     39 H                     0.085359
     40 H                     0.085789
     41 H                     0.103222
     42 H                     0.083570
     43 H                     0.077737
     44 H                     0.073408
     45 H                     0.077739
     46 H                     0.073151
     47 H                     0.084693
     48 H                     0.087546
     49 H                     0.079413
     50 H                     0.091587
     51 H                     0.088987
     52 H                     0.088569
     53 H                     0.087858
     54 H                     0.089686
     55 H                     0.115928
     56 H                     0.078032
  ----------------------------------------
  Sum of atomic charges =    -0.000000

                    Cartesian Multipole Moments
 -----------------------------------------------------------------
    Charge (ESU x 10^10)
                 0.0000
    Dipole Moment (Debye)
         X       1.5480      Y       1.7611      Z      -4.4734
       Tot       5.0507
    Quadrupole Moments (Debye-Ang)
        XX    -136.9515     XY       0.1211     YY    -148.2547
        XZ       3.7826     YZ       2.5339     ZZ    -168.8515

 Total job time:  93.26s(wall), 4439.78s(cpu)
        *  Thank you very much for using Q-Chem.  Have a nice day.  *
