 Q-Chem 5.0, Q-Chem, Inc., Pleasanton, CA (2017)
 Q-Chem 5.0.1 for Intel X86 EM64T Linux

User input:
--------------------------------------------------------------
$molecule
0  1
O -3.94934 -3.66094 2.70899
C -3.26408 -4.56952 2.26188
C -3.36658 -6.02376 2.66595
C -2.28989 -6.56533 3.62057
C -1.33392 -5.54915 4.20504
O -0.17702 -5.52943 3.47937
C 0.65578 -4.40397 3.77778
C 1.5955 -4.73681 4.93203
O 2.72748 -3.85302 4.91197
C 2.96788 -3.18705 6.06862
C 4.12313 -2.22029 5.96172
C 3.79313 -0.89173 5.2658
C 2.31916 -0.57799 5.10556
O 1.40442 -1.16692 5.66321
O -2.2447 -4.26657 1.41658
O 2.02799 0.52507 4.36698
O 2.42923 -3.45106 7.13778
C 0.75066 0.99443 4.14279
C 4.62289 -1.66957 7.32203
C 6.07371 -1.20766 7.18636
C 5.89843 0.02743 6.32621
C 4.36856 0.1092 6.27588
O 3.94901 -0.44697 7.49774
H 4.9729 -2.77317 5.50024
H 4.24175 -0.85755 4.24865
H 4.53916 -2.39921 8.15668
H 6.40167 -0.8882 8.20192
H 6.79146 -1.96024 6.79496
H 6.33281 0.89702 6.86734
H 6.32758 -0.04178 5.30297
H 4.03695 1.15203 6.07526
O -1.68138 -4.66651 4.9832
C -1.9375 -2.99011 0.9951
C -4.6245 -6.29769 3.52555
C -5.00127 -7.77777 3.45129
C -3.90229 -8.39085 4.29203
C -3.16817 -7.12726 4.75005
O -4.18572 -6.16294 4.85466
H -3.46176 -6.60989 1.72452
H -1.68561 -7.3651 3.13431
H -1.67836 -2.35188 1.86702
H -5.49943 -5.67605 3.23396
H -5.96771 -7.90153 3.99079
H -5.10047 -8.18811 2.42339
H -4.36901 -8.90102 5.16399
H -3.22955 -9.09486 3.75606
H -2.58664 -7.32956 5.67688
H -2.79849 -2.54972 0.44826
H -1.06385 -3.03304 0.31297
H 0.80296 1.903 3.50859
H 0.26489 1.25832 5.10652
H 0.14729 0.22407 3.6162
H 1.01299 -4.7729 5.87864
H 1.99805 -5.75759 4.75547
H 0.11248 -3.43964 3.90305
H 1.29927 -4.26982 2.8819
$end

$opt
CONSTRAINT
tors           1           2           3           4    -102.963
tors           3           4           5           6     -97.284
tors           4           5           6           7    +167.056
tors           5           6           7           8     +88.744
tors           6           7           8           9    +158.640
tors           7           8           9          10    +126.175
tors           8           9          10          11    -176.907
tors           9          10          11          12     +78.677
tors          11          12          13          14     +12.635
ENDCONSTRAINT
$end

$rem
JOBTYPE                   OPT
METHOD                    B3LYP
DFT_D                     d3_op
BASIS                     STO-3G
GEOM_OPT_MAX_CYCLES       100
GEOM_OPT_TOL_GRADIENT     300
GEOM_OPT_TOL_DISPLACEMENT 1200
GEOM_OPT_TOL_ENERGY       100
SYMMETRY                  False
THRESH                    12
SCF_CONVERGENCE           8
MAX_SUB_FILE_NUM          128
MEM_STATIC                400
MEM_TOTAL                 4000
$end
--------------------------------------------------------------

   15   -1510.1505321812      6.47E-09 Convergence criterion met
 Total energy in the final basis set = -1510.15053218
   14   -1510.2200529445      8.03E-09 Convergence criterion met
 Total energy in the final basis set = -1510.22005294
   14   -1510.2576788128      9.92E-09 Convergence criterion met
 Total energy in the final basis set = -1510.25767881
   14   -1510.2746709886      9.04E-09 Convergence criterion met
 Total energy in the final basis set = -1510.27467099
   14   -1510.2805722378      6.17E-09 Convergence criterion met
 Total energy in the final basis set = -1510.28057224
   13   -1510.2827823497      3.95E-09 Convergence criterion met
 Total energy in the final basis set = -1510.28278235
   12   -1510.2835770456      6.24E-09 Convergence criterion met
 Total energy in the final basis set = -1510.28357705
   12   -1510.2840025022      5.94E-09 Convergence criterion met
   11   -1510.2852791607      4.25E-09 Convergence criterion met
 Total energy in the final basis set = -1510.28527916
   10   -1510.2852851635      6.66E-09 Convergence criterion met
 Total energy in the final basis set = -1510.28528516
   10   -1510.2852910193      5.06E-09 Convergence criterion met
 Total energy in the final basis set = -1510.28529102
   10   -1510.2852962978      4.43E-09 Convergence criterion met
 Total energy in the final basis set = -1510.28529630
    9   -1510.2853007739      6.60E-09 Convergence criterion met
 Total energy in the final basis set = -1510.28530077
   10   -1510.2853024180      5.50E-09 Convergence criterion met
 Total energy in the final basis set = -1510.28530242

             Standard Nuclear Orientation (Angstroms)
    I     Atom           X                Y                Z
 ----------------------------------------------------------------
    1      O      -3.7678575951     2.1507338927     1.3210292934
    2      C      -3.7872755506     1.6241789406     0.1891325135
    3      C      -4.7516978637     0.5001015731    -0.3321005812
    4      C      -4.0519887448    -0.9300504875    -0.3783518809
    5      C      -2.5110319724    -0.8453927651    -0.1138822456
    6      O      -1.8525899845    -0.8434107057    -1.3886616762
    7      C      -0.4305597316    -0.4562663675    -1.2377283211
    8      C       0.4920955736    -1.6988860205    -0.9616725716
    9      O       1.8732497471    -1.3187545346    -1.3388492971
   10      C       2.7720023793    -1.5574284414    -0.2424991270
   11      C       4.1983778478    -1.0609841994    -0.6782397793
   12      C       4.3901846025     0.5090388067    -0.5915170366
   13      C       3.1144388885     1.2590382543    -0.0825472511
   14      O       2.0967482663     0.7581588751     0.4474601839
   15      O      -2.8447933168     1.9233549638    -0.8507472276
   16      O       3.2958150940     2.6612523924    -0.2913716100
   17      O       2.4675898870    -2.1566226975     0.8104265616
   18      C       2.1138484696     3.4028747377     0.2075142551
   19      C       5.2993554932    -1.5559401877     0.3496266740
   20      C       6.7202193297    -1.3978950138    -0.3183141292
   21      C       6.9146507101     0.1627687810    -0.2493136297
   22      C       5.5774115824     0.6068037994     0.4644467924
   23      O       5.2889684436    -0.5052662276     1.3959084292
   24      H       4.3920147958    -1.4211337040    -1.7043981501
   25      H       4.6846023682     0.9437619590    -1.5634378680
   26      H       5.0825783253    -2.5444160570     0.7987156342
   27      H       7.4850214614    -1.9258096400     0.2731073016
   28      H       6.7415110424    -1.7842335181    -1.3498754907
   29      H       7.7862777458     0.4352540517     0.3668665056
   30      H       7.0278749084     0.6237102625    -1.2437790221
   31      H       5.6274465998     1.5717094401     1.0054832005
   32      O      -1.9230160578    -0.7252703705     0.9822023439
   33      C      -1.8477400851     2.9012127197    -0.3596331058
   34      C      -5.8891124201     0.2307516171     0.7361435837
   35      C      -6.9824175932    -0.7130984773     0.0959602445
   36      C      -6.2575643919    -2.1092567723     0.1559147784
   37      C      -4.8576895477    -1.6944708801     0.7568535257
   38      O      -5.2060640177    -0.6332377303     1.7279033912
   39      H      -5.1453278313     0.7828387348    -1.3249202163
   40      H      -4.2009753589    -1.3980472429    -1.3674304388
   41      H      -1.3228896592     2.5267290649     0.5431896146
   42      H      -6.2734644096     1.1460040004     1.2262642281
   43      H      -7.9016912644    -0.7075659319     0.7024647297
   44      H      -7.2355343632    -0.4114231309    -0.9330423602
   45      H      -6.7758719165    -2.8023329233     0.8376149222
   46      H      -6.1656424951    -2.5868658900    -0.8326520173
   47      H      -4.2924494774    -2.5051749750     1.2559983707
   48      H      -2.3146836353     3.8773433026    -0.1153331845
   49      H      -1.1237222796     3.0357651030    -1.1842710901
   50      H       2.3357829340     4.4740178598     0.0483311504
   51      H       1.9372666785     3.2140074244     1.2860608157
   52      H       1.1971444235     3.1271812419    -0.3521744539
   53      H       0.4667788794    -2.0016656382     0.1067596378
   54      H       0.1682201753    -2.5526139817    -1.5957783890
   55      H      -0.2973692046     0.2865465542    -0.4239274638
   56      H      -0.1404824959    -0.0008776283    -2.2068041405
 ----------------------------------------------------------------

    9   -1510.2853026934      5.77E-09 Convergence criterion met
 Total energy in the final basis set = -1510.28530269
 Final energy is   -1510.28530269336
 **  OPTIMIZATION CONVERGED  **

                    Orbital Energies (a.u.)
 --------------------------------------------------------------

 Alpha MOs
 -- Occupied --
-18.944 -18.933 -18.929 -18.919 -18.888 -18.886 -18.885 -18.877
-18.873 -18.866 -10.107 -10.098 -10.096 -10.093 -10.072 -10.066
-10.064 -10.063 -10.058 -10.057 -10.057 -10.056 -10.042 -10.037
-10.036 -10.035 -10.022 -10.020 -10.019 -10.018  -1.021  -1.013
 -1.006  -1.000  -0.971  -0.967  -0.944  -0.936  -0.934  -0.927
 -0.764  -0.762  -0.726  -0.722  -0.711  -0.704  -0.691  -0.670
 -0.664  -0.614  -0.597  -0.578  -0.547  -0.544  -0.538  -0.535
 -0.513  -0.508  -0.480  -0.474  -0.465  -0.457  -0.454  -0.451
 -0.434  -0.429  -0.424  -0.420  -0.416  -0.415  -0.407  -0.395
 -0.383  -0.381  -0.374  -0.371  -0.359  -0.355  -0.354  -0.350
 -0.346  -0.342  -0.339  -0.332  -0.328  -0.327  -0.323  -0.313
 -0.308  -0.305  -0.304  -0.302  -0.293  -0.282  -0.278  -0.276
 -0.271  -0.260  -0.255  -0.247  -0.241  -0.235  -0.231  -0.187
 -0.180  -0.176  -0.161  -0.159  -0.156  -0.148  -0.147  -0.145
 -0.141

          Ground-State Mulliken Net Atomic Charges

     Atom                 Charge (a.u.)
  ----------------------------------------
      1 O                    -0.204217
      2 C                     0.208026
      3 C                    -0.077422
      4 C                    -0.078880
      5 C                     0.206370
      6 O                    -0.171890
      7 C                    -0.049914
      8 C                    -0.056002
      9 O                    -0.181302
     10 C                     0.217913
     11 C                    -0.080725
     12 C                    -0.078163
     13 C                     0.213617
     14 O                    -0.207621
     15 O                    -0.172323
     16 O                    -0.168844
     17 O                    -0.211951
     18 C                    -0.128516
     19 C                     0.025376
     20 C                    -0.144236
     21 C                    -0.143451
     22 C                     0.025439
     23 O                    -0.187341
     24 H                     0.084555
     25 H                     0.086776
     26 H                     0.090152
     27 H                     0.078669
     28 H                     0.073369
     29 H                     0.078600
     30 H                     0.073605
     31 H                     0.084655
     32 O                    -0.208018
     33 C                    -0.130035
     34 C                     0.025268
     35 C                    -0.144801
     36 C                    -0.143248
     37 C                     0.025211
     38 O                    -0.184552
     39 H                     0.085536
     40 H                     0.085624
     41 H                     0.092981
     42 H                     0.087607
     43 H                     0.078107
     44 H                     0.072557
     45 H                     0.078175
     46 H                     0.072941
     47 H                     0.086046
     48 H                     0.088372
     49 H                     0.085967
     50 H                     0.092373
     51 H                     0.093463
     52 H                     0.085944
     53 H                     0.106548
     54 H                     0.080054
     55 H                     0.096761
     56 H                     0.086792
  ----------------------------------------
  Sum of atomic charges =    -0.000000

                    Cartesian Multipole Moments
 -----------------------------------------------------------------
    Charge (ESU x 10^10)
                -0.0000
    Dipole Moment (Debye)
         X       0.7880      Y       1.3793      Z      -4.4827
       Tot       4.7559
    Quadrupole Moments (Debye-Ang)
        XX    -138.2712     XY       5.7866     YY    -150.2830
        XZ       1.8199     YZ       2.4575     ZZ    -170.1834

 Total job time:  62.80s(wall), 2986.62s(cpu)
        *  Thank you very much for using Q-Chem.  Have a nice day.  *
