 Q-Chem 5.0, Q-Chem, Inc., Pleasanton, CA (2017)
 Q-Chem 5.0.1 for Intel X86 EM64T Linux

User input:
--------------------------------------------------------------
$molecule
0  1
O -3.7678575951 2.1507338927 1.3210292934
C -3.7872755506 1.6241789406 0.1891325135
C -4.7516978637 0.5001015731 -0.3321005812
C -4.0519887448 -0.9300504875 -0.3783518809
C -2.5110319724 -0.8453927651 -0.1138822456
O -1.8525899845 -0.8434107057 -1.3886616762
C -0.4305597316 -0.4562663675 -1.2377283211
C 0.4920955736 -1.6988860205 -0.9616725716
O 1.8732497471 -1.3187545346 -1.3388492971
C 2.7720023793 -1.5574284414 -0.242499127
C 4.1983778478 -1.0609841994 -0.6782397793
C 4.3901846025 0.5090388067 -0.5915170366
C 3.1144388885 1.2590382543 -0.0825472511
O 2.0967482663 0.7581588751 0.4474601839
O -2.8447933168 1.9233549638 -0.8507472276
O 3.295815094 2.6612523924 -0.29137161
O 2.467589887 -2.1566226975 0.8104265616
C 2.1138484696 3.4028747377 0.2075142551
C 5.2993554932 -1.5559401877 0.349626674
C 6.7202193297 -1.3978950138 -0.3183141292
C 6.9146507101 0.162768781 -0.2493136297
C 5.5774115824 0.6068037994 0.4644467924
O 5.2889684436 -0.5052662276 1.3959084292
H 4.3920147958 -1.421133704 -1.7043981501
H 4.6846023682 0.943761959 -1.563437868
H 5.0825783253 -2.544416057 0.7987156342
H 7.4850214614 -1.92580964 0.2731073016
H 6.7415110424 -1.7842335181 -1.3498754907
H 7.7862777458 0.4352540517 0.3668665056
H 7.0278749084 0.6237102625 -1.2437790221
H 5.6274465998 1.5717094401 1.0054832005
O -1.9230160578 -0.7252703705 0.9822023439
C -1.8477400851 2.9012127197 -0.3596331058
C -5.8891124201 0.2307516171 0.7361435837
C -6.9824175932 -0.7130984773 0.0959602445
C -6.2575643919 -2.1092567723 0.1559147784
C -4.8576895477 -1.6944708801 0.7568535257
O -5.2060640177 -0.6332377303 1.7279033912
H -5.1453278313 0.7828387348 -1.3249202163
H -4.2009753589 -1.3980472429 -1.3674304388
H -1.3228896592 2.5267290649 0.5431896146
H -6.2734644096 1.1460040004 1.2262642281
H -7.9016912644 -0.7075659319 0.7024647297
H -7.2355343632 -0.4114231309 -0.9330423602
H -6.7758719165 -2.8023329233 0.8376149222
H -6.1656424951 -2.58686589 -0.8326520173
H -4.2924494774 -2.505174975 1.2559983707
H -2.3146836353 3.8773433026 -0.1153331845
H -1.1237222796 3.035765103 -1.1842710901
H 2.335782934 4.4740178598 0.0483311504
H 1.9372666785 3.2140074244 1.2860608157
H 1.1971444235 3.1271812419 -0.3521744539
H 0.4667788794 -2.0016656382 0.1067596378
H 0.1682201753 -2.5526139817 -1.595778389
H -0.2973692046 0.2865465542 -0.4239274638
H -0.1404824959 -0.0008776283 -2.2068041405
$end

$rem
JOBTYPE                   OPT
METHOD                    B3LYP
DFT_D                     d3_op
BASIS                     STO-3G
GEOM_OPT_MAX_CYCLES       100
GEOM_OPT_TOL_GRADIENT     300
GEOM_OPT_TOL_DISPLACEMENT 1200
GEOM_OPT_TOL_ENERGY       100
SYMMETRY                  False
THRESH                    12
SCF_CONVERGENCE           8
MAX_SUB_FILE_NUM          128
MEM_STATIC                400
MEM_TOTAL                 4000
$end
--------------------------------------------------------------

   16   -1510.2853478987      7.96E-09 Convergence criterion met
 Total energy in the final basis set = -1510.28534790
   14   -1510.2859932903      3.05E-09 Convergence criterion met
 Total energy in the final basis set = -1510.28599329
   13   -1510.2870425702      6.86E-09 Convergence criterion met
 Total energy in the final basis set = -1510.28704257
   13   -1510.2874523490      7.99E-09 Convergence criterion met
 Total energy in the final basis set = -1510.28745235
   13   -1510.2882401030      7.47E-09 Convergence criterion met
 Total energy in the final basis set = -1510.28824010
   13   -1510.2889694981      3.29E-09 Convergence criterion met
 Total energy in the final basis set = -1510.28896950
   13   -1510.2893575194      5.44E-09 Convergence criterion met
 Total energy in the final basis set = -1510.28935752
   13   -1510.2896881779      4.84E-09 Convergence criterion met
   13   -1510.2921639472      9.33E-09 Convergence criterion met
 Total energy in the final basis set = -1510.29216395
   12   -1510.2920176097      6.50E-09 Convergence criterion met
 Total energy in the final basis set = -1510.29201761
   11   -1510.2921383783      9.77E-09 Convergence criterion met
 Total energy in the final basis set = -1510.29213838
   11   -1510.2921309254      3.85E-09 Convergence criterion met
 Total energy in the final basis set = -1510.29213093
   11   -1510.2921408809      4.37E-09 Convergence criterion met
 Total energy in the final basis set = -1510.29214088
    9   -1510.2921333817      8.87E-09 Convergence criterion met
 Total energy in the final basis set = -1510.29213338

             Standard Nuclear Orientation (Angstroms)
    I     Atom           X                Y                Z
 ----------------------------------------------------------------
    1      O      -2.5100878801     1.2807515661     2.3495077243
    2      C      -2.8281526005     1.3130279906     1.1419025636
    3      C      -4.0433062621     0.5862064067     0.4571980034
    4      C      -3.6057580415    -0.4338631385    -0.6769251726
    5      C      -2.0515213673    -0.5053442588    -0.8403572882
    6      O      -1.7346532460    -0.5057574379    -2.2399740189
    7      C      -0.2669005771    -0.4160219229    -2.4247114791
    8      C       0.4828584703    -1.7823616225    -2.1791664168
    9      O       1.9107443368    -1.4883500870    -1.9020304275
   10      C       2.1518316005    -1.5342139882    -0.4841738975
   11      C       3.6341879391    -1.0846629735    -0.2250864076
   12      C       3.9249617144     0.4494223293    -0.4973160239
   13      C       2.6493129699     1.2737742404    -0.8634976375
   14      O       1.4696714732     1.0392305008    -0.5032009159
   15      O      -2.1550712489     2.0819082179     0.1362433851
   16      O       3.0350086142     2.3840586322    -1.6702330892
   17      O       1.3347431444    -1.9576312641     0.3598907241
   18      C       1.8544079497     3.2138074720    -2.0129909733
   19      C       4.0028017020    -1.2010323013     1.3126399614
   20      C       5.5748982459    -1.2171528410     1.4477597842
   21      C       5.9182296316     0.2842131615     1.1234148061
   22      C       4.4737972464     0.8961424957     0.9307644509
   23      O       3.6273736728     0.1234997545     1.8635635352
   24      H       4.2948213605    -1.7117395736    -0.8512895266
   25      H       4.6790059859     0.5986272848    -1.2898282361
   26      H       3.4577828007    -2.0057216974     1.8432182007
   27      H       5.8691538732    -1.4849454559     2.4750933081
   28      H       6.0479675244    -1.9239669803     0.7474712752
   29      H       6.4344652003     0.7739780827     1.9643694337
   30      H       6.5359734823     0.3929453587     0.2175768915
   31      H       4.3909622243     1.9818979278     1.1327031425
   32      O      -1.1999733225    -0.5476146975     0.0742621308
   33      C      -0.8910034067     2.6415200833     0.6719309746
   34      C      -4.7795785254    -0.3804750419     1.4728436278
   35      C      -6.1867956853    -0.7641887181     0.8691463993
   36      C      -5.7649241448    -1.7657541558    -0.2693425829
   37      C      -4.1948950872    -1.7904984382    -0.0888175456
   38      O      -4.0052144886    -1.6404696237     1.3703025091
   39      H      -4.7261518475     1.3535949946     0.0486589523
   40      H      -4.0556919752    -0.1853390881    -1.6535710531
   41      H      -0.0305872596     2.0680347125     0.2568370978
   42      H      -4.7826270053    -0.0152191003     2.5181673745
   43      H      -6.8108220285    -1.2585738684     1.6305349563
   44      H      -6.7292809942     0.1142242452     0.4841442098
   45      H      -6.1871626437    -2.7694226578    -0.1025817229
   46      H      -6.0599845428    -1.4194058936    -1.2727695976
   47      H      -3.6927792114    -2.7073883358    -0.4541755881
   48      H      -0.8898835190     2.5691554613     1.7774717844
   49      H      -0.8274950479     3.7010711377     0.3578359645
   50      H       2.2205930560     3.9877253175    -2.7121470142
   51      H       1.4261023410     3.7001096102    -1.1134534262
   52      H       1.0615795528     2.6132620235    -2.5026402747
   53      H       0.0449074714    -2.2933210867    -1.2949312058
   54      H       0.4395711172    -2.4407106055    -3.0694250617
   55      H       0.1754754003     0.3244110421    -1.7166176280
   56      H      -0.1187651780    -0.0752533865    -3.4683353359
 ----------------------------------------------------------------

   11   -1510.2921324656      1.12E-09 Convergence criterion met
 Total energy in the final basis set = -1510.29213247
 Final energy is   -1510.29213246565
 **  OPTIMIZATION CONVERGED  **

                    Orbital Energies (a.u.)
 --------------------------------------------------------------

 Alpha MOs
 -- Occupied --
-18.954 -18.924 -18.922 -18.913 -18.896 -18.890 -18.880 -18.874
-18.866 -18.862 -10.117 -10.094 -10.088 -10.086 -10.076 -10.065
-10.058 -10.058 -10.054 -10.054 -10.050 -10.045 -10.038 -10.034
-10.029 -10.028 -10.023 -10.021 -10.015 -10.013  -1.028  -1.006
 -1.001  -0.992  -0.972  -0.962  -0.952  -0.931  -0.925  -0.920
 -0.766  -0.755  -0.727  -0.717  -0.711  -0.700  -0.688  -0.674
 -0.643  -0.614  -0.595  -0.576  -0.547  -0.539  -0.537  -0.530
 -0.516  -0.500  -0.480  -0.469  -0.463  -0.457  -0.450  -0.443
 -0.435  -0.429  -0.424  -0.422  -0.419  -0.409  -0.401  -0.391
 -0.379  -0.376  -0.369  -0.365  -0.362  -0.354  -0.349  -0.346
 -0.344  -0.335  -0.333  -0.328  -0.325  -0.320  -0.318  -0.313
 -0.307  -0.304  -0.302  -0.296  -0.287  -0.281  -0.278  -0.275
 -0.264  -0.259  -0.251  -0.237  -0.235  -0.233  -0.226  -0.193
 -0.178  -0.171  -0.157  -0.154  -0.150  -0.146  -0.145  -0.139
 -0.135

          Ground-State Mulliken Net Atomic Charges

     Atom                 Charge (a.u.)
  ----------------------------------------
      1 O                    -0.210097
      2 C                     0.216236
      3 C                    -0.078468
      4 C                    -0.079117
      5 C                     0.209756
      6 O                    -0.175035
      7 C                    -0.062776
      8 C                    -0.058535
      9 O                    -0.181997
     10 C                     0.214612
     11 C                    -0.079262
     12 C                    -0.077465
     13 C                     0.221480
     14 O                    -0.208229
     15 O                    -0.180225
     16 O                    -0.163494
     17 O                    -0.197644
     18 C                    -0.129412
     19 C                     0.025453
     20 C                    -0.143750
     21 C                    -0.143795
     22 C                     0.026136
     23 O                    -0.185017
     24 H                     0.085043
     25 H                     0.088661
     26 H                     0.093663
     27 H                     0.079460
     28 H                     0.073600
     29 H                     0.079083
     30 H                     0.073768
     31 H                     0.082830
     32 O                    -0.201860
     33 C                    -0.147473
     34 C                     0.024682
     35 C                    -0.144161
     36 C                    -0.143909
     37 C                     0.025531
     38 O                    -0.185736
     39 H                     0.082335
     40 H                     0.084299
     41 H                     0.102205
     42 H                     0.090144
     43 H                     0.077224
     44 H                     0.072039
     45 H                     0.076894
     46 H                     0.072483
     47 H                     0.081527
     48 H                     0.097592
     49 H                     0.072042
     50 H                     0.094835
     51 H                     0.091703
     52 H                     0.093379
     53 H                     0.103725
     54 H                     0.081381
     55 H                     0.104726
     56 H                     0.078930
  ----------------------------------------
  Sum of atomic charges =    -0.000000

                    Cartesian Multipole Moments
 -----------------------------------------------------------------
    Charge (ESU x 10^10)
                -0.0000
    Dipole Moment (Debye)
         X       1.8428      Y       1.4898      Z      -3.8620
       Tot       4.5311
    Quadrupole Moments (Debye-Ang)
        XX    -133.3164     XY       0.1144     YY    -151.6963
        XZ       3.1839     YZ       0.7491     ZZ    -165.3178

 Total job time:  84.84s(wall), 4039.71s(cpu)
        *  Thank you very much for using Q-Chem.  Have a nice day.  *
