 Q-Chem 5.0, Q-Chem, Inc., Pleasanton, CA (2017)
 Q-Chem 5.0.1 for Intel X86 EM64T Linux

User input:
--------------------------------------------------------------
$molecule
0  1
O -3.94934 -3.66094 2.70899
C -3.26408 -4.56952 2.26188
C -3.36658 -6.02376 2.66595
C -2.05117 -6.7719 2.93767
C -0.79006 -5.93669 2.94827
O -0.34096 -5.75824 1.67081
C 0.57275 -4.66369 1.54287
C 1.9711 -5.18109 1.22184
O 2.78373 -4.11172 0.71296
C 3.44157 -3.38316 1.64869
C 4.25685 -2.25983 1.05362
C 3.44995 -1.01614 0.65308
C 2.0465 -0.92877 1.21824
O 1.49031 -1.79908 1.87227
O -2.54239 -4.31706 1.13897
O 1.36212 0.2117 0.93696
O 3.49095 -3.68634 2.83573
C 0.07142 0.46655 1.34992
C 5.2525 -1.61384 2.04875
C 6.38669 -0.94086 1.27668
C 5.65355 0.23637 0.66882
C 4.28398 0.07925 1.33945
O 4.57023 -0.50794 2.58435
H 4.85834 -2.6944 0.22308
H 3.36924 -0.89952 -0.44977
H 5.67575 -2.33147 2.78501
H 7.10586 -0.55706 2.03591
H 6.93235 -1.58454 0.5537
H 6.15839 1.17175 0.99756
H 5.56156 0.2187 -0.43892
H 3.75839 1.05885 1.37538
O -0.16866 -5.61525 3.9557
C -2.44621 -3.07694 0.54055
C -4.10254 -6.21475 4.00455
C -4.65112 -7.63813 4.10433
C -3.37537 -8.41296 4.34651
C -2.3557 -7.271 4.37091
O -3.06658 -6.20542 4.95256
H -3.92898 -6.51678 1.84174
H -1.87598 -7.64987 2.27559
H -1.99158 -2.34963 1.24596
H -4.92459 -5.48427 4.16712
H -5.28303 -7.70312 5.01882
H -5.24321 -7.95972 3.22052
H -3.43282 -8.87487 5.35771
H -3.1385 -9.19232 3.59047
H -1.44253 -7.60211 4.91327
H -3.45177 -2.72165 0.22941
H -1.80473 -3.15356 -0.3609
H -0.23557 1.46855 0.98645
H 0.01489 0.45503 2.45944
H -0.62076 -0.2928 0.9293
H 2.43511 -5.74538 2.06165
H 1.85711 -5.90335 0.38544
H 0.62151 -3.99765 2.4316
H 0.22232 -4.04468 0.69199
$end

$opt
CONSTRAINT
tors           1           2           3           4    -134.895
tors           3           4           5           6     -83.245
tors           4           5           6           7    +161.508
tors           5           6           7           8    +111.653
tors           6           7           8           9    +163.145
tors           7           8           9          10     +88.025
tors           8           9          10          11    -178.926
tors           9          10          11          12     +78.677
tors          11          12          13          14      -5.530
ENDCONSTRAINT
$end

$rem
JOBTYPE                   OPT
METHOD                    B3LYP
DFT_D                     d3_op
BASIS                     STO-3G
GEOM_OPT_MAX_CYCLES       100
GEOM_OPT_TOL_GRADIENT     300
GEOM_OPT_TOL_DISPLACEMENT 1200
GEOM_OPT_TOL_ENERGY       100
SYMMETRY                  False
THRESH                    12
SCF_CONVERGENCE           8
MAX_SUB_FILE_NUM          128
MEM_STATIC                400
MEM_TOTAL                 4000
$end
--------------------------------------------------------------

   15   -1510.1548928318      7.15E-09 Convergence criterion met
 Total energy in the final basis set = -1510.15489283
   13   -1510.2239483064      6.67E-09 Convergence criterion met
 Total energy in the final basis set = -1510.22394831
   13   -1510.2602912211      7.28E-09 Convergence criterion met
 Total energy in the final basis set = -1510.26029122
   14   -1510.2752596426      6.96E-09 Convergence criterion met
 Total energy in the final basis set = -1510.27525964
   14   -1510.2794992190      5.12E-09 Convergence criterion met
 Total energy in the final basis set = -1510.27949922
    2   -1510.2794992190      1.62E-09 Convergence criterion met
 Total energy in the final basis set = -1510.27949922
   13   -1510.2806101001      5.96E-09 Convergence criterion met
 Total energy in the final basis set = -1510.28061010
   13   -1510.2815404649      2.60E-09 Convergence criterion met
   11   -1510.2850307654      8.35E-09 Convergence criterion met
 Total energy in the final basis set = -1510.28503077
   11   -1510.2850791730      8.30E-09 Convergence criterion met
 Total energy in the final basis set = -1510.28507917
   11   -1510.2850895333      6.59E-09 Convergence criterion met
 Total energy in the final basis set = -1510.28508953
   11   -1510.2850970305      2.91E-09 Convergence criterion met
 Total energy in the final basis set = -1510.28509703
   10   -1510.2850995258      6.75E-09 Convergence criterion met
 Total energy in the final basis set = -1510.28509953
    9   -1510.2851006584      7.18E-09 Convergence criterion met
 Total energy in the final basis set = -1510.28510066

             Standard Nuclear Orientation (Angstroms)
    I     Atom           X                Y                Z
 ----------------------------------------------------------------
    1      O       3.7509696474    -2.6798849508     0.7584223969
    2      C       3.4528896066    -1.6824848114     0.0661804131
    3      C       4.4642880402    -0.6113580026    -0.5029110946
    4      C       4.0290690397     0.9103626968    -0.3361395716
    5      C       2.5061195115     1.1139097942    -0.0408675014
    6      O       1.8149709034     1.0854321781    -1.3027620050
    7      C       0.3752503553     0.8272178098    -1.0862914632
    8      C      -0.5343722210     2.0596856475    -1.4282733668
    9      O      -1.9328283544     1.5819626133    -1.5737786265
   10      C      -2.5965439641     1.5887464222    -0.3008746874
   11      C      -4.0554938714     1.0490270584    -0.5185352665
   12      C      -4.2165546455    -0.5204502734    -0.6497032202
   13      C      -2.9289834811    -1.3577680217    -0.3250553281
   14      O      -1.7728791084    -0.9516822688    -0.0688587477
   15      O       2.1179812471    -1.3564044565    -0.3211650686
   16      O      -3.3105631037    -2.7345988263    -0.3659528008
   17      O      -2.1027704887     2.0348310320     0.7561528572
   18      C      -2.1657838851    -3.6155039514    -0.0432008142
   19      C      -4.9966375372     1.3506339046     0.7244286822
   20      C      -6.4904777244     1.3350304121     0.2182705857
   21      C      -6.7047687525    -0.2054762984    -0.0270769252
   22      C      -5.3214676078    -0.7912303288     0.4634586800
   23      O      -4.9081516102     0.1234400309     1.5507431810
   24      H      -4.4455712680     1.5315761629    -1.4329777470
   25      H      -4.5716447766    -0.8115053597    -1.6552072610
   26      H      -4.6927280101     2.2356062028     1.3162865646
   27      H      -7.1653016629     1.7146708581     1.0020559033
   28      H      -6.6312092248     1.9373277785    -0.6935537807
   29      H      -7.5300283774    -0.6041002764     0.5838906366
   30      H      -6.9013366402    -0.4441575744    -1.0845909733
   31      H      -5.3486250676    -1.8400052322     0.8178551166
   32      O       1.9523006065     1.2589738873     1.0693719224
   33      C       1.1412707457    -2.2781340578     0.3055719053
   34      C       5.7421631397    -0.6370442765     0.4318590797
   35      C       6.8908647495     0.2504335832    -0.1905033599
   36      C       6.4003345498     1.7003420633     0.1799021048
   37      C       4.9991122654     1.3788727288     0.8305808847
   38      O       5.2714056819     0.1443449694     1.6023832093
   39      H       4.6882109900    -0.8500631349    -1.5590952647
   40      H       4.2532525949     1.4521781174    -1.2728525622
   41      H       1.3348939501    -2.3912383093     1.3908290776
   42      H       6.0350703891    -1.6582127317     0.7448992798
   43      H       7.8590168948     0.0170510313     0.2797024844
   44      H       6.9826079870     0.1000887707    -1.2783860006
   45      H       7.0662723291     2.1713368515     0.9206418818
   46      H       6.3194253006     2.3634369353    -0.6961055935
   47      H       4.5776062794     2.1628764874     1.4890764915
   48      H       1.1836570701    -3.2817430661    -0.1651853710
   49      H       0.1390996014    -1.8260313709     0.1459213439
   50      H      -2.5774284579    -4.6402335699     0.0105287791
   51      H      -1.7048156402    -3.3494394723     0.9293097217
   52      H      -1.3864216902    -3.5749541894    -0.8312127898
   53      H      -0.4644806596     2.8291114517    -0.6310804523
   54      H      -0.2508129699     2.4973032072    -2.4068886897
   55      H       0.1946219210     0.5376311555    -0.0317786801
   56      H       0.0936276617    -0.0129987037    -1.7544884157
 ----------------------------------------------------------------

    9   -1510.2851013400      3.19E-09 Convergence criterion met
 Total energy in the final basis set = -1510.28510134
 Final energy is   -1510.28510134002
 **  OPTIMIZATION CONVERGED  **

                    Orbital Energies (a.u.)
 --------------------------------------------------------------

 Alpha MOs
 -- Occupied --
-18.948 -18.933 -18.925 -18.917 -18.894 -18.889 -18.880 -18.872
-18.871 -18.866 -10.115 -10.096 -10.096 -10.092 -10.075 -10.063
-10.061 -10.059 -10.053 -10.053 -10.053 -10.053 -10.045 -10.037
-10.035 -10.031 -10.023 -10.021 -10.017 -10.015  -1.025  -1.011
 -1.005  -0.996  -0.973  -0.964  -0.951  -0.933  -0.932  -0.925
 -0.766  -0.758  -0.727  -0.720  -0.712  -0.701  -0.689  -0.673
 -0.656  -0.614  -0.597  -0.577  -0.546  -0.540  -0.538  -0.533
 -0.517  -0.503  -0.481  -0.475  -0.467  -0.456  -0.454  -0.445
 -0.435  -0.429  -0.423  -0.422  -0.415  -0.408  -0.407  -0.390
 -0.389  -0.382  -0.372  -0.368  -0.361  -0.359  -0.349  -0.346
 -0.342  -0.338  -0.335  -0.329  -0.327  -0.324  -0.323  -0.316
 -0.310  -0.305  -0.303  -0.301  -0.291  -0.285  -0.279  -0.277
 -0.268  -0.263  -0.247  -0.242  -0.237  -0.237  -0.229  -0.191
 -0.178  -0.174  -0.169  -0.156  -0.153  -0.149  -0.147  -0.144
 -0.139

          Ground-State Mulliken Net Atomic Charges

     Atom                 Charge (a.u.)
  ----------------------------------------
      1 O                    -0.212373
      2 C                     0.211223
      3 C                    -0.076291
      4 C                    -0.080582
      5 C                     0.216252
      6 O                    -0.177060
      7 C                    -0.051597
      8 C                    -0.053060
      9 O                    -0.176226
     10 C                     0.213221
     11 C                    -0.081529
     12 C                    -0.076370
     13 C                     0.218406
     14 O                    -0.211139
     15 O                    -0.171526
     16 O                    -0.168799
     17 O                    -0.209926
     18 C                    -0.129013
     19 C                     0.024689
     20 C                    -0.143369
     21 C                    -0.144434
     22 C                     0.024751
     23 O                    -0.189449
     24 H                     0.084509
     25 H                     0.088108
     26 H                     0.090374
     27 H                     0.078774
     28 H                     0.073491
     29 H                     0.078843
     30 H                     0.073523
     31 H                     0.087507
     32 O                    -0.212228
     33 C                    -0.137762
     34 C                     0.023273
     35 C                    -0.145430
     36 C                    -0.142595
     37 C                     0.023633
     38 O                    -0.189643
     39 H                     0.084584
     40 H                     0.083512
     41 H                     0.091387
     42 H                     0.090175
     43 H                     0.077802
     44 H                     0.072285
     45 H                     0.077508
     46 H                     0.072406
     47 H                     0.087371
     48 H                     0.078816
     49 H                     0.105963
     50 H                     0.094315
     51 H                     0.093189
     52 H                     0.088328
     53 H                     0.095255
     54 H                     0.085435
     55 H                     0.107020
     56 H                     0.084471
  ----------------------------------------
  Sum of atomic charges =    -0.000000

                    Cartesian Multipole Moments
 -----------------------------------------------------------------
    Charge (ESU x 10^10)
                 0.0000
    Dipole Moment (Debye)
         X      -1.9320      Y      -0.7863      Z      -3.9951
       Tot       4.5069
    Quadrupole Moments (Debye-Ang)
        XX    -140.5218     XY       6.9853     YY    -152.7837
        XZ      -3.3890     YZ      -1.3442     ZZ    -167.1594

 Total job time:  77.65s(wall), 3694.50s(cpu)
        *  Thank you very much for using Q-Chem.  Have a nice day.  *
