 Q-Chem 5.0, Q-Chem, Inc., Pleasanton, CA (2017)
 Q-Chem 5.0.1 for Intel X86 EM64T Linux

User input:
--------------------------------------------------------------
$molecule
0  1
O 3.7509696474 -2.6798849508 0.7584223969
C 3.4528896066 -1.6824848114 0.0661804131
C 4.4642880402 -0.6113580026 -0.5029110946
C 4.0290690397 0.9103626968 -0.3361395716
C 2.5061195115 1.1139097942 -0.0408675014
O 1.8149709034 1.0854321781 -1.302762005
C 0.3752503553 0.8272178098 -1.0862914632
C -0.534372221 2.0596856475 -1.4282733668
O -1.9328283544 1.5819626133 -1.5737786265
C -2.5965439641 1.5887464222 -0.3008746874
C -4.0554938714 1.0490270584 -0.5185352665
C -4.2165546455 -0.5204502734 -0.6497032202
C -2.9289834811 -1.3577680217 -0.3250553281
O -1.7728791084 -0.9516822688 -0.0688587477
O 2.1179812471 -1.3564044565 -0.3211650686
O -3.3105631037 -2.7345988263 -0.3659528008
O -2.1027704887 2.034831032 0.7561528572
C -2.1657838851 -3.6155039514 -0.0432008142
C -4.9966375372 1.3506339046 0.7244286822
C -6.4904777244 1.3350304121 0.2182705857
C -6.7047687525 -0.2054762984 -0.0270769252
C -5.3214676078 -0.7912303288 0.46345868
O -4.9081516102 0.1234400309 1.550743181
H -4.445571268 1.5315761629 -1.432977747
H -4.5716447766 -0.8115053597 -1.655207261
H -4.6927280101 2.2356062028 1.3162865646
H -7.1653016629 1.7146708581 1.0020559033
H -6.6312092248 1.9373277785 -0.6935537807
H -7.5300283774 -0.6041002764 0.5838906366
H -6.9013366402 -0.4441575744 -1.0845909733
H -5.3486250676 -1.8400052322 0.8178551166
O 1.9523006065 1.2589738873 1.0693719224
C 1.1412707457 -2.2781340578 0.3055719053
C 5.7421631397 -0.6370442765 0.4318590797
C 6.8908647495 0.2504335832 -0.1905033599
C 6.4003345498 1.7003420633 0.1799021048
C 4.9991122654 1.3788727288 0.8305808847
O 5.2714056819 0.1443449694 1.6023832093
H 4.68821099 -0.8500631349 -1.5590952647
H 4.2532525949 1.4521781174 -1.2728525622
H 1.3348939501 -2.3912383093 1.3908290776
H 6.0350703891 -1.6582127317 0.7448992798
H 7.8590168948 0.0170510313 0.2797024844
H 6.982607987 0.1000887707 -1.2783860006
H 7.0662723291 2.1713368515 0.9206418818
H 6.3194253006 2.3634369353 -0.6961055935
H 4.5776062794 2.1628764874 1.4890764915
H 1.1836570701 -3.2817430661 -0.165185371
H 0.1390996014 -1.8260313709 0.1459213439
H -2.5774284579 -4.6402335699 0.0105287791
H -1.7048156402 -3.3494394723 0.9293097217
H -1.3864216902 -3.5749541894 -0.8312127898
H -0.4644806596 2.8291114517 -0.6310804523
H -0.2508129699 2.4973032072 -2.4068886897
H 0.194621921 0.5376311555 -0.0317786801
H 0.0936276617 -0.0129987037 -1.7544884157
$end

$rem
JOBTYPE                   OPT
METHOD                    B3LYP
DFT_D                     d3_op
BASIS                     STO-3G
GEOM_OPT_MAX_CYCLES       100
GEOM_OPT_TOL_GRADIENT     300
GEOM_OPT_TOL_DISPLACEMENT 1200
GEOM_OPT_TOL_ENERGY       100
SYMMETRY                  False
THRESH                    12
SCF_CONVERGENCE           8
MAX_SUB_FILE_NUM          128
MEM_STATIC                400
MEM_TOTAL                 4000
$end
--------------------------------------------------------------

   16   -1510.2850679099      4.38E-09 Convergence criterion met
 Total energy in the final basis set = -1510.28506791
   14   -1510.2844310150      2.27E-09 Convergence criterion met
 Total energy in the final basis set = -1510.28443101
   14   -1510.2861422117      4.17E-09 Convergence criterion met
 Total energy in the final basis set = -1510.28614221
   14   -1510.2766734041      8.08E-09 Convergence criterion met
 Total energy in the final basis set = -1510.27667340
   15   -1510.2836729743      3.72E-09 Convergence criterion met
 Total energy in the final basis set = -1510.28367297
   15   -1510.2861456367      3.16E-09 Convergence criterion met
 Total energy in the final basis set = -1510.28614564
   14   -1510.2862799990      2.94E-09 Convergence criterion met
 Total energy in the final basis set = -1510.28628000
   14   -1510.2874893229      2.62E-09 Convergence criterion met
   12   -1510.2923455165      2.09E-09 Convergence criterion met
 Total energy in the final basis set = -1510.29234552
   11   -1510.2923473060      8.72E-09 Convergence criterion met
 Total energy in the final basis set = -1510.29234731
   11   -1510.2923411153      4.51E-09 Convergence criterion met
 Total energy in the final basis set = -1510.29234112
    9   -1510.2923417201      6.13E-09 Convergence criterion met
 Total energy in the final basis set = -1510.29234172
    9   -1510.2923484561      7.88E-09 Convergence criterion met
 Total energy in the final basis set = -1510.29234846
    9   -1510.2923483573      3.14E-09 Convergence criterion met
 Total energy in the final basis set = -1510.29234836

             Standard Nuclear Orientation (Angstroms)
    I     Atom           X                Y                Z
 ----------------------------------------------------------------
    1      O       3.0257372592    -1.9148244652     2.0306682083
    2      C       3.0692794383    -1.5699553492     0.8302636586
    3      C       4.2280306252    -0.7874895291     0.1139504674
    4      C       3.7443039989     0.5132612359    -0.6590793613
    5      C       2.1920871081     0.7124014795    -0.5998495389
    6      O       1.6905703978     0.6478295748    -1.9436691492
    7      C       0.2100838882     0.6195991521    -1.9493876497
    8      C      -0.4691590657     1.9869843669    -1.5634295366
    9      O      -1.9294380700     1.7462662475    -1.4609981360
   10      C      -2.3202774771     1.6375667829    -0.0814320966
   11      C      -3.8331498808     1.2182032324    -0.0553202841
   12      C      -4.1084572325    -0.2800120759    -0.4936509095
   13      C      -2.8081682299    -1.1141668324    -0.7346165861
   14      O      -1.6810104838    -0.9283702656    -0.2146464311
   15      O       2.0475170673    -1.8504035866    -0.1343578103
   16      O      -3.1142769741    -2.1727452681    -1.6393716283
   17      O      -1.5915076299     1.9195408266     0.8920711924
   18      C      -1.9296379649    -3.0358482734    -1.8614669572
   19      C      -4.4207685874     1.2206105683     1.4171620145
   20      C      -5.9937787393     1.2800871916     1.3174942202
   21      C      -6.3189716272    -0.1809301674     0.8287705213
   22      C      -4.8752500405    -0.8219908001     0.7953497873
   23      O      -4.1610248705    -0.1555349416     1.9044573326
   24      H      -4.3880337759     1.9104685915    -0.7142025609
   25      H      -4.7380513688    -0.3431407964    -1.3984582548
   26      H      -3.9467575419     1.9614295743     2.0897787989
   27      H      -6.4353974857     1.4804638747     2.3065768697
   28      H      -6.3383721430     2.0529778319     0.6120538616
   29      H      -6.9594510044    -0.7167393882     1.5472113607
   30      H      -6.8041865033    -0.2011479209    -0.1602278456
   31      H      -4.8456488639    -1.9227597950     0.9146593587
   32      O       1.4881551635     0.9141633241     0.4129822712
   33      C       0.8866833373    -2.5145993010     0.5087080744
   34      C       5.2104662062    -0.1582333419     1.1831341533
   35      C       6.5341565676     0.2992267985     0.4544596799
   36      C       6.0410041617     1.5969602078    -0.2878474597
   37      C       4.5232219007     1.6386150918     0.1505306184
   38      O       4.5468536522     1.1192368916     1.5356724916
   39      H       4.7474941202    -1.4812707087    -0.5727065743
   40      H       4.0489461892     0.4853531564    -1.7196586227
   41      H       1.0502185320    -2.5626178634     1.6033823868
   42      H       5.3448121456    -0.7841191843     2.0867976112
   43      H       7.3187022603     0.5300248821     1.1924996094
   44      H       6.9163145398    -0.4686418230    -0.2374132856
   45      H       6.5696628884     2.4942260241     0.0711559183
   46      H       6.1549944551     1.5321843599    -1.3817001179
   47      H       4.0485329270     2.6385154796     0.1204502257
   48      H       0.7941964250    -3.5418506924     0.1032646398
   49      H      -0.0331149664    -1.9335482506     0.2755244738
   50      H      -2.2179573646    -3.7468802243    -2.6572966601
   51      H      -1.6627456131    -3.5982929159    -0.9438612360
   52      H      -1.0482198962    -2.4480950252    -2.1876536630
   53      H      -0.0844530621     2.3246156752    -0.5772036121
   54      H      -0.3025952566     2.7607965415    -2.3393202652
   55      H      -0.1815002848    -0.1477602238    -1.2430571676
   56      H      -0.0721174500     0.3369582698    -2.9835473121
 ----------------------------------------------------------------

    9   -1510.2923481812      6.03E-09 Convergence criterion met
 Total energy in the final basis set = -1510.29234818
 Final energy is   -1510.29234818118
 **  OPTIMIZATION CONVERGED  **

                    Orbital Energies (a.u.)
 --------------------------------------------------------------

 Alpha MOs
 -- Occupied --
-18.954 -18.923 -18.922 -18.921 -18.896 -18.891 -18.881 -18.874
-18.870 -18.863 -10.117 -10.095 -10.092 -10.089 -10.077 -10.066
-10.059 -10.056 -10.055 -10.054 -10.052 -10.046 -10.039 -10.038
-10.032 -10.029 -10.024 -10.021 -10.016 -10.015  -1.028  -1.006
 -1.003  -0.996  -0.973  -0.963  -0.953  -0.932  -0.928  -0.925
 -0.767  -0.757  -0.728  -0.719  -0.712  -0.702  -0.688  -0.675
 -0.648  -0.614  -0.596  -0.577  -0.548  -0.540  -0.539  -0.531
 -0.516  -0.502  -0.482  -0.471  -0.464  -0.458  -0.452  -0.444
 -0.436  -0.429  -0.424  -0.422  -0.420  -0.410  -0.405  -0.391
 -0.382  -0.376  -0.371  -0.368  -0.361  -0.354  -0.352  -0.350
 -0.345  -0.336  -0.335  -0.330  -0.326  -0.322  -0.319  -0.314
 -0.308  -0.305  -0.304  -0.298  -0.288  -0.283  -0.279  -0.278
 -0.267  -0.262  -0.251  -0.239  -0.237  -0.235  -0.227  -0.194
 -0.179  -0.172  -0.163  -0.155  -0.152  -0.151  -0.147  -0.140
 -0.136

          Ground-State Mulliken Net Atomic Charges

     Atom                 Charge (a.u.)
  ----------------------------------------
      1 O                    -0.209683
      2 C                     0.214772
      3 C                    -0.077808
      4 C                    -0.079733
      5 C                     0.211616
      6 O                    -0.174569
      7 C                    -0.059479
      8 C                    -0.060616
      9 O                    -0.182313
     10 C                     0.214419
     11 C                    -0.079574
     12 C                    -0.077375
     13 C                     0.220872
     14 O                    -0.210223
     15 O                    -0.176387
     16 O                    -0.164049
     17 O                    -0.199925
     18 C                    -0.129609
     19 C                     0.025216
     20 C                    -0.143654
     21 C                    -0.143780
     22 C                     0.025959
     23 O                    -0.186089
     24 H                     0.085385
     25 H                     0.088922
     26 H                     0.092555
     27 H                     0.079309
     28 H                     0.073824
     29 H                     0.079231
     30 H                     0.074097
     31 H                     0.082894
     32 O                    -0.208948
     33 C                    -0.148197
     34 C                     0.024375
     35 C                    -0.144363
     36 C                    -0.143845
     37 C                     0.025477
     38 O                    -0.185840
     39 H                     0.083378
     40 H                     0.084295
     41 H                     0.100108
     42 H                     0.090423
     43 H                     0.077602
     44 H                     0.072036
     45 H                     0.077207
     46 H                     0.072447
     47 H                     0.082832
     48 H                     0.072353
     49 H                     0.104769
     50 H                     0.094931
     51 H                     0.090695
     52 H                     0.094356
     53 H                     0.109290
     54 H                     0.080855
     55 H                     0.100298
     56 H                     0.079260
  ----------------------------------------
  Sum of atomic charges =    -0.000000

                    Cartesian Multipole Moments
 -----------------------------------------------------------------
    Charge (ESU x 10^10)
                -0.0000
    Dipole Moment (Debye)
         X      -1.9631      Y      -1.2330      Z      -4.3301
       Tot       4.9117
    Quadrupole Moments (Debye-Ang)
        XX    -133.6804     XY       0.0586     YY    -151.3730
        XZ      -5.0524     YZ       0.5644     ZZ    -168.4383

 Total job time:  100.71s(wall), 4800.79s(cpu)
        *  Thank you very much for using Q-Chem.  Have a nice day.  *
