 Q-Chem 5.0, Q-Chem, Inc., Pleasanton, CA (2017)
 Q-Chem 5.0.1 for Intel X86 EM64T Linux

User input:
--------------------------------------------------------------
$molecule
0  1
O -3.5562205189 1.4328597505 2.2433164676
C -3.4925456177 1.4224562179 0.9955497213
C -4.5176308388 0.7813636786 -0.0084276036
C -4.0169331191 -0.5952606924 -0.6382277148
C -2.5582350138 -0.9729429095 -0.2097326724
O -1.6633614928 -0.2716581905 -1.0801822659
C -0.257308503 -0.447299653 -0.6502294966
C 0.5116098753 -1.3186903713 -1.7127228533
O 1.9895724528 -1.2067434213 -1.6248232695
C 2.4909440625 -1.3580126623 -0.2903912529
C 4.0538351897 -1.1946918616 -0.3767868074
C 4.5212832523 0.3074168502 -0.580113624
C 3.3262030392 1.3124273956 -0.668579089
O 2.2190852753 1.2263511957 -0.089369296
O -2.4317335631 2.0188681328 0.2403448578
O 3.7009327672 2.4056580849 -1.5091093692
O 1.8231637321 -1.6877370948 0.7117780808
C 2.5897980152 3.3834799606 -1.5904039801
C 4.7298114831 -1.5375211559 1.0137209637
C 6.2799511332 -1.7288932298 0.7858495134
C 6.7441187521 -0.2385763215 0.5842609471
C 5.3739525553 0.5322346283 0.7472830102
O 4.6427305205 -0.2588751234 1.7591854623
H 4.4267950395 -1.8359178684 -1.19531157
H 5.1456824532 0.4280196236 -1.4827449801
H 4.219507822 -2.3434873288 1.5758399449
H 6.7473956273 -2.1809988529 1.6750620188
H 6.495797716 -2.3633065266 -0.0886443788
H 7.4560145997 0.0736237523 1.3649282104
H 7.2017680952 -0.0637324495 -0.4024640858
H 5.4611583935 1.5895867991 1.0645377459
O -2.2029063003 -1.7176532621 0.7290066781
C -1.39724197 2.5575625552 1.1536498907
C -5.8166746644 0.2954416259 0.757253874
C -6.9417912332 -0.0297322632 -0.3023816191
C -6.4336574114 -1.4047823304 -0.8770445997
C -5.0976201141 -1.5998063931 -0.0578848321
O -5.4234179001 -1.0368671359 1.2720578007
H -4.7409649002 1.5149346565 -0.8037501405
H -4.050751137 -0.5443737472 -1.7411825289
H -1.0174041418 1.7786849835 1.8456083363
H -6.1210395612 0.9542634871 1.5933950056
H -7.9192233573 -0.1355835905 0.1945158424
H -7.0227184299 0.7506902383 -1.0761272813
H -7.1416008853 -2.219890813 -0.6581928959
H -6.2557226885 -1.3728237578 -1.9638228906
H -4.742617407 -2.643729822 0.0420468938
H -1.7844807508 3.4055349676 1.755210553
H -0.5722119574 2.9087355244 0.5068789835
H 2.9521312408 4.2036399428 -2.2368622704
H 2.3258647528 3.7852198556 -0.5908100886
H 1.6821625624 2.9302731409 -2.0392915624
H 0.2024804719 -2.3828433156 -1.6107057733
H 0.2580252026 -0.9750350253 -2.7364975561
H -0.219063592 -0.9478510215 0.3381907386
H 0.2210052579 0.5528126824 -0.5794834642
$end

$rem
JOBTYPE                   OPT
METHOD                    B3LYP
DFT_D                     d3_op
BASIS                     STO-3G
GEOM_OPT_MAX_CYCLES       100
GEOM_OPT_TOL_GRADIENT     300
GEOM_OPT_TOL_DISPLACEMENT 1200
GEOM_OPT_TOL_ENERGY       100
SYMMETRY                  False
THRESH                    12
SCF_CONVERGENCE           8
MAX_SUB_FILE_NUM          128
MEM_STATIC                400
MEM_TOTAL                 4000
$end
--------------------------------------------------------------

   16   -1510.2840729284      5.95E-09 Convergence criterion met
 Total energy in the final basis set = -1510.28407293
   15   -1510.2822051666      2.66E-09 Convergence criterion met
 Total energy in the final basis set = -1510.28220517
   15   -1510.2844762704      2.38E-09 Convergence criterion met
 Total energy in the final basis set = -1510.28447627
   14   -1510.2855275035      5.88E-09 Convergence criterion met
 Total energy in the final basis set = -1510.28552750
   13   -1510.2860872729      6.03E-09 Convergence criterion met
 Total energy in the final basis set = -1510.28608727
   13   -1510.2865157698      4.68E-09 Convergence criterion met
 Total energy in the final basis set = -1510.28651577
   14   -1510.2869526459      5.17E-09 Convergence criterion met
 Total energy in the final basis set = -1510.28695265
   14   -1510.2876521026      5.78E-09 Convergence criterion met
   12   -1510.3001089676      4.38E-09 Convergence criterion met
 Total energy in the final basis set = -1510.30010897
   11   -1510.3001681994      7.46E-09 Convergence criterion met
 Total energy in the final basis set = -1510.30016820
   11   -1510.3001746788      8.48E-09 Convergence criterion met
 Total energy in the final basis set = -1510.30017468
   11   -1510.3001854991      6.91E-09 Convergence criterion met
 Total energy in the final basis set = -1510.30018550
   11   -1510.3001860605      2.15E-09 Convergence criterion met
 Total energy in the final basis set = -1510.30018606
   10   -1510.3001870858      8.97E-09 Convergence criterion met
 Total energy in the final basis set = -1510.30018709

             Standard Nuclear Orientation (Angstroms)
    I     Atom           X                Y                Z
 ----------------------------------------------------------------
    1      O      -3.4502136289     1.8955685941     2.4585457614
    2      C      -2.9857965645     1.5479853700     1.3535583640
    3      C      -3.7412155861     1.3894722707    -0.0154137569
    4      C      -3.3758209498     0.0469377891    -0.7838590197
    5      C      -2.4179203825    -0.8822933178     0.0391024366
    6      O      -1.1631338419    -1.0130515762    -0.6640317035
    7      C      -0.2166532489    -1.8257165468     0.1433415704
    8      C       0.7234685999    -2.6286694901    -0.8216540028
    9      O       1.9190167189    -1.8276909962    -1.1877016431
   10      C       2.9745756475    -2.0659396727    -0.2434855438
   11      C       4.1756900448    -1.1128618538    -0.5752639642
   12      C       3.7923603649     0.4280949913    -0.6087310611
   13      C       2.2767529848     0.6925958601    -0.3074843090
   14      O       1.6735112147     0.4375655010     0.7637810683
   15      O      -1.6169614775     1.2287583166     1.1010140889
   16      O       1.6966513052     1.2908677095    -1.4571627180
   17      O       2.9241399516    -2.9201316828     0.6670294311
   18      C       0.2379212133     1.5048495578    -1.2779056054
   19      C       5.2373247000    -1.1401671651     0.6003716854
   20      C       6.5866440583    -0.5139993248     0.0744677409
   21      C       6.2127602366     1.0145116592     0.0290187363
   22      C       4.7232139909     0.9816442269     0.5555428944
   23      O       4.7231209071    -0.1196245338     1.5434567453
   24      H       4.6155569900    -1.4254773914    -1.5403322353
   25      H       4.0336460601     0.8811548524    -1.5856554755
   26      H       5.3176654198    -2.1236984154     1.1027961802
   27      H       7.4047974937    -0.7086056821     0.7858343185
   28      H       6.8729949431    -0.9121051647    -0.9120523527
   29      H       6.8474341877     1.6068883270     0.7072293507
   30      H       6.2852794048     1.4397932746    -0.9847160874
   31      H       4.3651032671     1.9199630335     1.0216792879
   32      O      -2.6835338595    -1.4958936115     1.0945272842
   33      C      -0.8000194642     1.2460227201     2.3353462357
   34      C      -5.3032956429     1.2208322606     0.1825837863
   35      C      -6.0120530887     1.5051229206    -1.1986323495
   36      C      -5.6362647317     0.2045728898    -2.0020398748
   37      C      -4.8199059056    -0.6042505145    -0.9172753015
   38      O      -5.4728874370    -0.2408281273     0.3603807469
   39      H      -3.5051210819     2.2698901375    -0.6418981329
   40      H      -2.9157014295     0.2521701280    -1.7658544428
   41      H      -1.1447774984     0.4721508430     3.0505761100
   42      H      -5.7052018310     1.7675525641     1.0579359609
   43      H      -7.1015063867     1.5931363771    -1.0608172165
   44      H      -5.6403647098     2.4250961003    -1.6775297548
   45      H      -6.5340086179    -0.3578844582    -2.3038287936
   46      H      -5.0346265243     0.4177041179    -2.9001594768
   47      H      -4.8174284484    -1.7034658408    -1.0505885383
   48      H      -0.8382306187     2.2361336819     2.8322066055
   49      H       0.2299851669     1.0183516949     1.9864840835
   50      H      -0.1095969121     1.9610325154    -2.2225315860
   51      H       0.0310005618     2.1970681219    -0.4378719892
   52      H      -0.3037201640     0.5436520795    -1.0899003857
   53      H       1.0465553328    -3.5661234816    -0.3207023690
   54      H       0.1947443449    -2.8633253377    -1.7678194029
   55      H      -0.7986409395    -2.4998068953     0.8069147950
   56      H       0.4028074572    -1.1349176693     0.7621817169
 ----------------------------------------------------------------

    9   -1510.3001871194      5.20E-09 Convergence criterion met
 Total energy in the final basis set = -1510.30018712
 Final energy is   -1510.30018711943
 **  OPTIMIZATION CONVERGED  **

                    Orbital Energies (a.u.)
 --------------------------------------------------------------

 Alpha MOs
 -- Occupied --
-18.937 -18.937 -18.936 -18.933 -18.889 -18.888 -18.883 -18.879
-18.876 -18.873 -10.104 -10.104 -10.102 -10.100 -10.074 -10.062
-10.061 -10.061 -10.059 -10.058 -10.048 -10.041 -10.041 -10.040
-10.038 -10.038 -10.022 -10.022 -10.021 -10.020  -1.019  -1.015
 -1.009  -1.006  -0.972  -0.970  -0.943  -0.937  -0.936  -0.935
 -0.766  -0.764  -0.729  -0.724  -0.712  -0.706  -0.698  -0.657
 -0.654  -0.618  -0.598  -0.581  -0.548  -0.545  -0.539  -0.537
 -0.512  -0.511  -0.486  -0.474  -0.459  -0.459  -0.455  -0.453
 -0.437  -0.432  -0.429  -0.418  -0.415  -0.408  -0.401  -0.398
 -0.391  -0.383  -0.372  -0.368  -0.363  -0.362  -0.354  -0.351
 -0.342  -0.341  -0.338  -0.332  -0.331  -0.327  -0.324  -0.312
 -0.311  -0.307  -0.306  -0.302  -0.292  -0.290  -0.285  -0.275
 -0.273  -0.263  -0.254  -0.245  -0.242  -0.236  -0.234  -0.185
 -0.178  -0.174  -0.171  -0.163  -0.158  -0.153  -0.151  -0.145
 -0.144

          Ground-State Mulliken Net Atomic Charges

     Atom                 Charge (a.u.)
  ----------------------------------------
      1 O                    -0.206065
      2 C                     0.213311
      3 C                    -0.078650
      4 C                    -0.078730
      5 C                     0.216629
      6 O                    -0.175232
      7 C                    -0.063337
      8 C                    -0.053564
      9 O                    -0.174193
     10 C                     0.211076
     11 C                    -0.078391
     12 C                    -0.079078
     13 C                     0.218780
     14 O                    -0.228191
     15 O                    -0.176156
     16 O                    -0.166064
     17 O                    -0.208629
     18 C                    -0.148065
     19 C                     0.024392
     20 C                    -0.144065
     21 C                    -0.143848
     22 C                     0.025599
     23 O                    -0.186740
     24 H                     0.085948
     25 H                     0.087186
     26 H                     0.091242
     27 H                     0.078825
     28 H                     0.073254
     29 H                     0.078405
     30 H                     0.073774
     31 H                     0.083084
     32 O                    -0.212111
     33 C                    -0.141364
     34 C                     0.023952
     35 C                    -0.143666
     36 C                    -0.144246
     37 C                     0.025815
     38 O                    -0.185636
     39 H                     0.083497
     40 H                     0.084479
     41 H                     0.088684
     42 H                     0.091174
     43 H                     0.078787
     44 H                     0.072798
     45 H                     0.078432
     46 H                     0.072917
     47 H                     0.083529
     48 H                     0.083949
     49 H                     0.113653
     50 H                     0.079247
     51 H                     0.083653
     52 H                     0.113529
     53 H                     0.099505
     54 H                     0.092421
     55 H                     0.099676
     56 H                     0.104818
  ----------------------------------------
  Sum of atomic charges =    -0.000000

                    Cartesian Multipole Moments
 -----------------------------------------------------------------
    Charge (ESU x 10^10)
                -0.0000
    Dipole Moment (Debye)
         X       1.6365      Y       1.2803      Z      -4.4106
       Tot       4.8755
    Quadrupole Moments (Debye-Ang)
        XX    -152.2192     XY      -1.5760     YY    -156.1910
        XZ       7.1847     YZ       3.0631     ZZ    -166.6065

 Total job time:  141.14s(wall), 6048.93s(cpu)
        *  Thank you very much for using Q-Chem.  Have a nice day.  *
