 Q-Chem 5.0, Q-Chem, Inc., Pleasanton, CA (2017)
 Q-Chem 5.0.1 for Intel X86 EM64T Linux

User input:
--------------------------------------------------------------
$molecule
0  1
O -3.94934 -3.66094 2.70899
C -3.26408 -4.56952 2.26188
C -3.36658 -6.02376 2.66595
C -2.27765 -6.57099 3.6033
C -1.30845 -5.55956 4.17404
O -0.31012 -5.31476 3.27469
C 0.56676 -4.25848 3.68039
C 1.94706 -4.81808 4.00866
O 2.91933 -3.76099 3.99633
C 2.57892 -2.64751 4.69162
C 3.63292 -1.56794 4.62635
C 3.70456 -0.8131 3.29092
C 2.51496 -0.98791 2.36843
O 1.35908 -1.16044 2.72726
O -2.25969 -4.26766 1.39821
O 2.80778 -1.1085 1.04712
O 1.71697 -2.61288 5.56071
C 1.87223 -1.35489 0.06413
C 3.39984 -0.3927 5.60376
C 4.718 0.33718 5.86213
C 4.91983 1.03187 4.53322
C 3.62506 0.63371 3.81799
O 2.67619 0.54601 4.8523
H 4.60058 -2.05206 4.8898
H 4.64201 -0.97732 2.71409
H 2.9495 -0.69814 6.57302
H 4.52116 1.11037 6.63925
H 5.55915 -0.30904 6.19343
H 4.94107 2.13018 4.71116
H 5.82249 0.72061 3.9642
H 3.39386 1.36367 3.00993
O -1.30518 -5.18543 5.34297
C -1.96015 -2.99224 0.96772
C -4.62456 -6.28505 3.52533
C -5.01403 -7.76098 3.45388
C -3.91911 -8.37834 4.29284
C -3.17129 -7.11816 4.73952
O -4.17852 -6.14551 4.84905
H -3.46675 -6.60578 1.72264
H -1.68218 -7.40261 3.16375
H -1.68207 -2.3523 1.83249
H -5.49545 -5.6575 3.2339
H -5.98128 -7.87812 3.99339
H -5.11471 -8.17005 2.42557
H -4.38809 -8.87544 5.17129
H -3.25729 -9.09539 3.76072
H -2.59848 -7.33541 5.66819
H -2.83143 -2.55215 0.43732
H -1.10139 -3.03788 0.26765
H 2.3816 -1.39991 -0.92018
H 1.11755 -0.5398 0.04052
H 1.36959 -2.32769 0.25122
H 1.9176 -5.32759 4.99617
H 2.2523 -5.5576 3.23818
H 0.10085 -3.58996 4.42713
H 0.67602 -3.62356 2.77704
$end

$opt
CONSTRAINT
tors           1           2           3           4    -103.881
tors           3           4           5           6     -83.245
tors           4           5           6           7    +173.511
tors           5           6           7           8    +111.653
tors           6           7           8           9    +161.687
tors           7           8           9          10     +48.306
tors           8           9          10          11    -179.291
tors           9          10          11          12     +74.856
tors          11          12          13          14     +32.046
ENDCONSTRAINT
$end

$rem
JOBTYPE                   OPT
METHOD                    B3LYP
DFT_D                     d3_op
BASIS                     STO-3G
GEOM_OPT_MAX_CYCLES       100
GEOM_OPT_TOL_GRADIENT     300
GEOM_OPT_TOL_DISPLACEMENT 1200
GEOM_OPT_TOL_ENERGY       100
SYMMETRY                  False
THRESH                    12
SCF_CONVERGENCE           8
MAX_SUB_FILE_NUM          128
MEM_STATIC                400
MEM_TOTAL                 4000
$end
--------------------------------------------------------------

   15   -1510.1467640667      6.65E-09 Convergence criterion met
 Total energy in the final basis set = -1510.14676407
   14   -1510.2172113662      8.26E-09 Convergence criterion met
 Total energy in the final basis set = -1510.21721137
   14   -1510.2551735451      5.56E-09 Convergence criterion met
 Total energy in the final basis set = -1510.25517355
   14   -1510.2728503865      6.15E-09 Convergence criterion met
 Total energy in the final basis set = -1510.27285039
   14   -1510.2791155808      5.41E-09 Convergence criterion met
 Total energy in the final basis set = -1510.27911558
   14   -1510.2817702065      3.70E-09 Convergence criterion met
 Total energy in the final basis set = -1510.28177021
   12   -1510.2828009652      7.87E-09 Convergence criterion met
 Total energy in the final basis set = -1510.28280097
   13   -1510.2832587039      4.86E-09 Convergence criterion met
    9   -1510.2840632091      4.60E-09 Convergence criterion met
 Total energy in the final basis set = -1510.28406321
   11   -1510.2840683854      2.49E-09 Convergence criterion met
 Total energy in the final basis set = -1510.28406839
    9   -1510.2840695137      6.61E-09 Convergence criterion met
 Total energy in the final basis set = -1510.28406951
    9   -1510.2840720711      9.34E-09 Convergence criterion met
 Total energy in the final basis set = -1510.28407207
    9   -1510.2840743624      6.95E-09 Convergence criterion met
 Total energy in the final basis set = -1510.28407436
   11   -1510.2840764172      1.42E-09 Convergence criterion met
 Total energy in the final basis set = -1510.28407642

             Standard Nuclear Orientation (Angstroms)
    I     Atom           X                Y                Z
 ----------------------------------------------------------------
    1      O      -3.5562205189     1.4328597505     2.2433164676
    2      C      -3.4925456177     1.4224562179     0.9955497213
    3      C      -4.5176308388     0.7813636786    -0.0084276036
    4      C      -4.0169331191    -0.5952606924    -0.6382277148
    5      C      -2.5582350138    -0.9729429095    -0.2097326724
    6      O      -1.6633614928    -0.2716581905    -1.0801822659
    7      C      -0.2573085030    -0.4472996530    -0.6502294966
    8      C       0.5116098753    -1.3186903713    -1.7127228533
    9      O       1.9895724528    -1.2067434213    -1.6248232695
   10      C       2.4909440625    -1.3580126623    -0.2903912529
   11      C       4.0538351897    -1.1946918616    -0.3767868074
   12      C       4.5212832523     0.3074168502    -0.5801136240
   13      C       3.3262030392     1.3124273956    -0.6685790890
   14      O       2.2190852753     1.2263511957    -0.0893692960
   15      O      -2.4317335631     2.0188681328     0.2403448578
   16      O       3.7009327672     2.4056580849    -1.5091093692
   17      O       1.8231637321    -1.6877370948     0.7117780808
   18      C       2.5897980152     3.3834799606    -1.5904039801
   19      C       4.7298114831    -1.5375211559     1.0137209637
   20      C       6.2799511332    -1.7288932298     0.7858495134
   21      C       6.7441187521    -0.2385763215     0.5842609471
   22      C       5.3739525553     0.5322346283     0.7472830102
   23      O       4.6427305205    -0.2588751234     1.7591854623
   24      H       4.4267950395    -1.8359178684    -1.1953115700
   25      H       5.1456824532     0.4280196236    -1.4827449801
   26      H       4.2195078220    -2.3434873288     1.5758399449
   27      H       6.7473956273    -2.1809988529     1.6750620188
   28      H       6.4957977160    -2.3633065266    -0.0886443788
   29      H       7.4560145997     0.0736237523     1.3649282104
   30      H       7.2017680952    -0.0637324495    -0.4024640858
   31      H       5.4611583935     1.5895867991     1.0645377459
   32      O      -2.2029063003    -1.7176532621     0.7290066781
   33      C      -1.3972419700     2.5575625552     1.1536498907
   34      C      -5.8166746644     0.2954416259     0.7572538740
   35      C      -6.9417912332    -0.0297322632    -0.3023816191
   36      C      -6.4336574114    -1.4047823304    -0.8770445997
   37      C      -5.0976201141    -1.5998063931    -0.0578848321
   38      O      -5.4234179001    -1.0368671359     1.2720578007
   39      H      -4.7409649002     1.5149346565    -0.8037501405
   40      H      -4.0507511370    -0.5443737472    -1.7411825289
   41      H      -1.0174041418     1.7786849835     1.8456083363
   42      H      -6.1210395612     0.9542634871     1.5933950056
   43      H      -7.9192233573    -0.1355835905     0.1945158424
   44      H      -7.0227184299     0.7506902383    -1.0761272813
   45      H      -7.1416008853    -2.2198908130    -0.6581928959
   46      H      -6.2557226885    -1.3728237578    -1.9638228906
   47      H      -4.7426174070    -2.6437298220     0.0420468938
   48      H      -1.7844807508     3.4055349676     1.7552105530
   49      H      -0.5722119574     2.9087355244     0.5068789835
   50      H       2.9521312408     4.2036399428    -2.2368622704
   51      H       2.3258647528     3.7852198556    -0.5908100886
   52      H       1.6821625624     2.9302731409    -2.0392915624
   53      H       0.2024804719    -2.3828433156    -1.6107057733
   54      H       0.2580252026    -0.9750350253    -2.7364975561
   55      H      -0.2190635920    -0.9478510215     0.3381907386
   56      H       0.2210052579     0.5528126824    -0.5794834642
 ----------------------------------------------------------------

   10   -1510.2840770703      4.15E-09 Convergence criterion met
 Total energy in the final basis set = -1510.28407707
 Final energy is   -1510.28407707029
 **  OPTIMIZATION CONVERGED  **

                    Orbital Energies (a.u.)
 --------------------------------------------------------------

 Alpha MOs
 -- Occupied --
-18.946 -18.929 -18.927 -18.925 -18.890 -18.884 -18.882 -18.873
-18.872 -18.871 -10.108 -10.098 -10.094 -10.093 -10.073 -10.067
-10.064 -10.059 -10.058 -10.054 -10.054 -10.051 -10.042 -10.037
-10.034 -10.033 -10.023 -10.021 -10.017 -10.016  -1.022  -1.009
 -1.005  -1.001  -0.972  -0.964  -0.945  -0.935  -0.931  -0.929
 -0.765  -0.759  -0.727  -0.720  -0.711  -0.703  -0.691  -0.670
 -0.657  -0.616  -0.596  -0.580  -0.547  -0.542  -0.538  -0.533
 -0.514  -0.505  -0.477  -0.471  -0.462  -0.457  -0.454  -0.449
 -0.435  -0.431  -0.423  -0.419  -0.414  -0.408  -0.406  -0.393
 -0.386  -0.381  -0.370  -0.364  -0.362  -0.360  -0.352  -0.350
 -0.345  -0.342  -0.337  -0.332  -0.327  -0.326  -0.323  -0.312
 -0.308  -0.306  -0.302  -0.300  -0.290  -0.284  -0.277  -0.274
 -0.271  -0.262  -0.251  -0.249  -0.237  -0.236  -0.229  -0.188
 -0.181  -0.172  -0.163  -0.158  -0.154  -0.148  -0.146  -0.144
 -0.139

          Ground-State Mulliken Net Atomic Charges

     Atom                 Charge (a.u.)
  ----------------------------------------
      1 O                    -0.207559
      2 C                     0.205533
      3 C                    -0.077335
      4 C                    -0.077958
      5 C                     0.206746
      6 O                    -0.173811
      7 C                    -0.065764
      8 C                    -0.050429
      9 O                    -0.178974
     10 C                     0.215802
     11 C                    -0.079486
     12 C                    -0.078827
     13 C                     0.213949
     14 O                    -0.214921
     15 O                    -0.169399
     16 O                    -0.166560
     17 O                    -0.207614
     18 C                    -0.128599
     19 C                     0.025226
     20 C                    -0.144162
     21 C                    -0.143372
     22 C                     0.025866
     23 O                    -0.186443
     24 H                     0.085330
     25 H                     0.087369
     26 H                     0.091104
     27 H                     0.078967
     28 H                     0.073599
     29 H                     0.078740
     30 H                     0.073964
     31 H                     0.082815
     32 O                    -0.207245
     33 C                    -0.129107
     34 C                     0.024990
     35 C                    -0.144488
     36 C                    -0.143793
     37 C                     0.024802
     38 O                    -0.185481
     39 H                     0.084652
     40 H                     0.084314
     41 H                     0.094843
     42 H                     0.087786
     43 H                     0.077705
     44 H                     0.072120
     45 H                     0.077577
     46 H                     0.071999
     47 H                     0.086771
     48 H                     0.086203
     49 H                     0.089255
     50 H                     0.093016
     51 H                     0.089696
     52 H                     0.090118
     53 H                     0.082438
     54 H                     0.087806
     55 H                     0.114145
     56 H                     0.096081
  ----------------------------------------
  Sum of atomic charges =    -0.000000

                    Cartesian Multipole Moments
 -----------------------------------------------------------------
    Charge (ESU x 10^10)
                -0.0000
    Dipole Moment (Debye)
         X       2.0663      Y       1.8057      Z      -4.5287
       Tot       5.2952
    Quadrupole Moments (Debye-Ang)
        XX    -138.2391     XY      -2.9179     YY    -151.0809
        XZ       8.2158     YZ       3.8897     ZZ    -168.2736

 Total job time:  82.39s(wall), 3742.03s(cpu)
        *  Thank you very much for using Q-Chem.  Have a nice day.  *
