 Q-Chem 5.0, Q-Chem, Inc., Pleasanton, CA (2017)
 Q-Chem 5.0.1 for Intel X86 EM64T Linux

User input:
--------------------------------------------------------------
$molecule
0  1
O -2.9326620157 1.7066919385 2.1016049876
C -2.9051732844 1.4259545322 0.882690573
C -4.1320461103 0.9464723239 0.0215447787
C -4.0444528522 -0.4714918837 -0.6985666472
C -2.6775802728 -1.2307117588 -0.5800040328
O -1.7765757462 -0.7626352452 -1.6019360311
C -0.396916357 -0.6678797919 -1.0712551074
C 0.4147675069 -1.9970228594 -1.3298721733
O 1.8766926158 -1.7563594671 -1.4032392583
C 2.4252989396 -1.5656289807 -0.0891160337
C 3.9506491398 -1.2112097396 -0.2519050228
C 4.265233794 0.2859356025 -0.6642159431
C 2.9914243998 1.1828202783 -0.7619731266
O 1.8876321035 0.9714281364 -0.2077219041
O -1.7684539307 1.6208210178 0.0401360133
O 3.2827729256 2.3223474591 -1.5674861576
O 1.8001335371 -1.7559646984 0.9749588738
C 2.1021909608 3.2166740371 -1.643684605
C 4.6972624136 -1.3033631596 1.1443442934
C 6.2474495887 -1.4186160145 0.8744312205
C 6.5859288616 0.0526213415 0.4274322091
C 5.1722150765 0.7458346315 0.5634178575
O 4.5464625742 0.0578760852 1.7115649137
H 4.3833879508 -1.9071992343 -0.9929414143
H 4.816044172 0.3476208508 -1.6192446998
H 4.2673975854 -2.0546825865 1.8346156044
H 6.7804645414 -1.6906760795 1.7993173302
H 6.4809819291 -2.1651631689 0.0985303587
H 7.3122094217 0.5266747476 1.10653248
H 6.9754980946 0.1071566189 -0.6017364764
H 5.1971368141 1.8409911315 0.7265385588
O -2.3524863751 -2.0491610407 0.3073522714
C -0.6499360792 2.2233003519 0.8109468531
C -5.3786142709 0.7119071286 0.9734567625
C -6.6959978693 0.680043822 0.1034056745
C -6.5939617151 -0.7470565431 -0.5528297931
C -5.2184242713 -1.2510677293 0.0364899852
O -5.2063856421 -0.6936875173 1.4068057484
H -4.3306349935 1.7312624682 -0.7317345484
H -4.2600642624 -0.3448364837 -1.775355745
H 0.3005861766 1.8179193856 0.4001217756
H -5.3916376976 1.3859191521 1.8518263421
H -7.5852887117 0.7661448857 0.7477670043
H -6.7215806506 1.4904071226 -0.6427913186
H -7.4160512455 -1.4022025779 -0.2231442065
H -6.5897825956 -0.7126010284 -1.6540485327
H -5.0836336747 -2.3496390634 0.0655095053
H -0.7482166049 1.9774665064 1.8859643685
H -0.6737074038 3.3261810147 0.6970079334
H 2.3747626006 4.0193651397 -2.3529912365
H 1.8655103068 3.6607283015 -0.655364629
H 1.2058391051 2.6792110086 -2.0143866875
H 0.1681483325 -2.7387457996 -0.5407209732
H 0.1351416287 -2.4082413688 -2.3211039102
H -0.3905022665 -0.4396476283 0.0116796816
H 0.0837187243 0.1668966387 -1.6204680691
$end

$rem
JOBTYPE                   OPT
METHOD                    B3LYP
DFT_D                     d3_op
BASIS                     STO-3G
GEOM_OPT_MAX_CYCLES       100
GEOM_OPT_TOL_GRADIENT     300
GEOM_OPT_TOL_DISPLACEMENT 1200
GEOM_OPT_TOL_ENERGY       100
SYMMETRY                  False
THRESH                    12
SCF_CONVERGENCE           8
MAX_SUB_FILE_NUM          128
MEM_STATIC                400
MEM_TOTAL                 4000
$end
--------------------------------------------------------------

   16   -1510.2812771349      5.96E-09 Convergence criterion met
 Total energy in the final basis set = -1510.28127713
   15   -1510.2814057220      2.77E-09 Convergence criterion met
 Total energy in the final basis set = -1510.28140572
   13   -1510.2847943879      5.23E-09 Convergence criterion met
 Total energy in the final basis set = -1510.28479439
   14   -1510.2840947629      5.61E-09 Convergence criterion met
 Total energy in the final basis set = -1510.28409476
   13   -1510.2857700436      8.70E-09 Convergence criterion met
 Total energy in the final basis set = -1510.28577004
   13   -1510.2865612177      6.17E-09 Convergence criterion met
 Total energy in the final basis set = -1510.28656122
   14   -1510.2859084369      2.60E-09 Convergence criterion met
 Total energy in the final basis set = -1510.28590844
   14   -1510.2873044966      7.96E-09 Convergence criterion met
   12   -1510.2923966292      5.36E-09 Convergence criterion met
 Total energy in the final basis set = -1510.29239663
   12   -1510.2924213998      2.87E-09 Convergence criterion met
 Total energy in the final basis set = -1510.29242140
   12   -1510.2924352666      3.79E-09 Convergence criterion met
 Total energy in the final basis set = -1510.29243527
   11   -1510.2924354389      9.06E-09 Convergence criterion met
 Total energy in the final basis set = -1510.29243544
   11   -1510.2924412115      4.68E-09 Convergence criterion met
 Total energy in the final basis set = -1510.29244121
   10   -1510.2924426928      8.96E-09 Convergence criterion met
 Total energy in the final basis set = -1510.29244269

             Standard Nuclear Orientation (Angstroms)
    I     Atom           X                Y                Z
 ----------------------------------------------------------------
    1      O      -2.8526668477     1.8825103572     2.2104434628
    2      C      -2.9448496522     1.6932490698     0.9785651811
    3      C      -4.1563017548     1.0527669499     0.2095816174
    4      C      -3.7575970312    -0.1896416531    -0.6967323954
    5      C      -2.2194309695    -0.4851336304    -0.6649009041
    6      O      -1.7238724623    -0.3801653727    -2.0081725334
    7      C      -0.2435195200    -0.4165535417    -2.0233980580
    8      C       0.3791614575    -1.8319515950    -1.7256799302
    9      O       1.8475019087    -1.6543455232    -1.6043998290
   10      C       2.2363335791    -1.6735627098    -0.2199363392
   11      C       3.7630693311    -1.3154249657    -0.1505981800
   12      C       4.0996858644     0.1975536982    -0.4826905520
   13      C       2.8344922688     1.0920188874    -0.6884244173
   14      O       1.6993957723     0.9218039239    -0.1800880107
   15      O      -1.9425411525     2.0546436606     0.0212743454
   16      O       3.1809074275     2.1784372958    -1.5436732678
   17      O       1.4906784346    -2.0069027574     0.7244048866
   18      C       2.0263714648     3.0893987573    -1.7328246654
   19      C       4.3249390575    -1.4403145014     1.3272330317
   20      C       5.8966672290    -1.5477675349     1.2488913085
   21      C       6.2791898496    -0.0708495554     0.8619713708
   22      C       4.8596656173     0.6228887950     0.8524497859
   23      O       4.1029244787    -0.0915387928     1.9019649107
   24      H       4.3009346544    -1.9832511224    -0.8478014920
   25      H       4.7483325610     0.2973378988    -1.3704127960
   26      H       3.8122950354    -2.2077878140     1.9389143140
   27      H       6.3130392955    -1.8274344997     2.2296869323
   28      H       6.2275674995    -2.2848596280     0.4997688613
   29      H       6.9278560593     0.3928895310     1.6219660829
   30      H       6.7788981744    -0.0036765884    -0.1176505448
   31      H       4.8663387908     1.7131356800     1.0470392955
   32      O      -1.5194559126    -0.7696778703     0.3305327028
   33      C      -0.7366725246     2.5850756399     0.7041821586
   34      C      -5.1665016267     0.3777619210     1.2237671663
   35      C      -6.5231127016     0.0885873417     0.4696712706
   36      C      -6.1224637300    -1.1526429793    -0.4123110356
   37      C      -4.6077132135    -1.3408453380    -0.0029778551
   38      O      -4.5878678587    -0.9713652989     1.4293132813
   39      H      -4.6408150745     1.8390877222    -0.3981469933
   40      H      -4.0569330064    -0.0339933207    -1.7475926103
   41      H       0.1443567641     1.9764445282     0.4014521526
   42      H      -5.2513289489     0.9106289092     2.1907604909
   43      H      -7.3174137500    -0.1666868618     1.1890598382
   44      H      -6.8559771723     0.9490691513    -0.1324797951
   45      H      -6.7069449902    -2.0462653056    -0.1412735907
   46      H      -6.2426706239    -0.9662854759    -1.4916559231
   47      H      -4.2032773392    -2.3616515303    -0.1456891756
   48      H      -0.8851671218     2.5345169747     1.8009069966
   49      H      -0.5897080143     3.6394443818     0.3970116050
   50      H       2.3384142861     3.8178750585    -2.5034985126
   51      H       1.7797212775     3.6274719398    -0.7952105116
   52      H       1.1249809293     2.5441634333    -2.0775423681
   53      H      -0.0203060218    -2.2175729734    -0.7631471465
   54      H       0.1854601972    -2.5472278139    -2.5499762245
   55      H       0.1829341941     0.2881265849    -1.2732657239
   56      H       0.0455217162    -0.0836597095    -3.0405749476
 ----------------------------------------------------------------

   11   -1510.2924429376      2.20E-09 Convergence criterion met
 Total energy in the final basis set = -1510.29244294
 Final energy is   -1510.29244293762
 **  OPTIMIZATION CONVERGED  **

                    Orbital Energies (a.u.)
 --------------------------------------------------------------

 Alpha MOs
 -- Occupied --
-18.955 -18.923 -18.922 -18.921 -18.897 -18.891 -18.881 -18.874
-18.869 -18.864 -10.118 -10.095 -10.091 -10.089 -10.077 -10.066
-10.059 -10.056 -10.055 -10.054 -10.051 -10.046 -10.039 -10.037
-10.032 -10.029 -10.024 -10.022 -10.016 -10.014  -1.029  -1.006
 -1.003  -0.996  -0.973  -0.963  -0.953  -0.932  -0.927  -0.925
 -0.767  -0.757  -0.728  -0.718  -0.712  -0.702  -0.689  -0.676
 -0.647  -0.614  -0.596  -0.577  -0.548  -0.540  -0.539  -0.531
 -0.517  -0.502  -0.482  -0.471  -0.464  -0.458  -0.452  -0.444
 -0.436  -0.429  -0.424  -0.423  -0.420  -0.410  -0.404  -0.391
 -0.381  -0.376  -0.371  -0.368  -0.362  -0.354  -0.352  -0.350
 -0.345  -0.336  -0.334  -0.330  -0.326  -0.322  -0.319  -0.314
 -0.308  -0.305  -0.304  -0.298  -0.288  -0.283  -0.280  -0.278
 -0.267  -0.262  -0.251  -0.238  -0.237  -0.235  -0.227  -0.194
 -0.179  -0.173  -0.162  -0.155  -0.151  -0.150  -0.147  -0.140
 -0.136

          Ground-State Mulliken Net Atomic Charges

     Atom                 Charge (a.u.)
  ----------------------------------------
      1 O                    -0.209700
      2 C                     0.214806
      3 C                    -0.077957
      4 C                    -0.079558
      5 C                     0.211276
      6 O                    -0.174594
      7 C                    -0.059721
      8 C                    -0.060647
      9 O                    -0.182309
     10 C                     0.214439
     11 C                    -0.079413
     12 C                    -0.077441
     13 C                     0.221231
     14 O                    -0.210064
     15 O                    -0.177420
     16 O                    -0.163668
     17 O                    -0.199923
     18 C                    -0.129663
     19 C                     0.025233
     20 C                    -0.143638
     21 C                    -0.143784
     22 C                     0.025987
     23 O                    -0.185833
     24 H                     0.085444
     25 H                     0.088952
     26 H                     0.092917
     27 H                     0.079426
     28 H                     0.073848
     29 H                     0.079230
     30 H                     0.074089
     31 H                     0.082921
     32 O                    -0.207880
     33 C                    -0.149374
     34 C                     0.024409
     35 C                    -0.144331
     36 C                    -0.143809
     37 C                     0.025536
     38 O                    -0.185821
     39 H                     0.083128
     40 H                     0.084402
     41 H                     0.104748
     42 H                     0.090462
     43 H                     0.077492
     44 H                     0.072004
     45 H                     0.077189
     46 H                     0.072430
     47 H                     0.082603
     48 H                     0.099983
     49 H                     0.071724
     50 H                     0.095030
     51 H                     0.090856
     52 H                     0.094682
     53 H                     0.109393
     54 H                     0.080899
     55 H                     0.100504
     56 H                     0.079274
  ----------------------------------------
  Sum of atomic charges =     0.000000

                    Cartesian Multipole Moments
 -----------------------------------------------------------------
    Charge (ESU x 10^10)
                -0.0000
    Dipole Moment (Debye)
         X       2.0552      Y       1.4799      Z      -4.2343
       Tot       4.9339
    Quadrupole Moments (Debye-Ang)
        XX    -133.5351     XY      -1.3514     YY    -151.2652
        XZ       4.9476     YZ       0.2232     ZZ    -168.1980

 Total job time:  85.34s(wall), 4065.64s(cpu)
        *  Thank you very much for using Q-Chem.  Have a nice day.  *
