 Q-Chem 5.0, Q-Chem, Inc., Pleasanton, CA (2017)
 Q-Chem 5.0.1 for Intel X86 EM64T Linux

User input:
--------------------------------------------------------------
$molecule
0  1
O -3.94934 -3.66094 2.70899
C -3.26408 -4.56952 2.26188
C -3.36658 -6.02376 2.66595
C -2.10847 -6.67841 3.25962
C -0.94207 -5.7594 3.54777
O -0.2002 -5.58202 2.41482
C 0.28779 -4.24461 2.26489
C 1.67813 -4.12041 2.87942
O 2.40429 -3.06075 2.23699
C 2.05531 -1.80469 2.6107
C 2.78226 -0.73534 1.83051
C 2.22722 -0.47049 0.42337
C 0.84861 -1.03259 0.14023
O 0.01476 -1.3242 0.98534
O -2.49104 -4.32918 1.18441
O 0.48178 -0.86799 -1.16031
O 1.34405 -1.55978 3.57872
C -0.67242 -1.29312 -1.76898
C 2.646 0.68644 2.43064
C 3.81714 1.5528 1.96787
C 3.47345 1.73316 0.5037
C 2.0967 1.06038 0.46285
O 1.56614 1.2732 1.74757
H 3.86515 -0.99556 1.84745
H 2.91154 -0.86248 -0.36134
H 2.58744 0.69776 3.54084
H 3.70895 2.53563 2.48092
H 4.83228 1.1487 2.17037
H 3.39673 2.8228 0.29262
H 4.17492 1.25179 -0.21197
H 1.494 1.45759 -0.38365
O -0.76751 -5.14494 4.59413
C -2.52467 -3.15436 0.48019
C -4.37086 -6.23537 3.81748
C -4.84628 -7.68847 3.84312
C -3.61511 -8.37503 4.38936
C -2.6971 -7.16871 4.60272
O -3.58056 -6.13974 4.97338
H -3.72573 -6.56664 1.7631
H -1.727 -7.55595 2.69053
H -2.27114 -2.29888 1.13888
H -5.25087 -5.55759 3.76646
H -5.66119 -7.77208 4.59734
H -5.20836 -8.06781 2.86328
H -3.87146 -8.82199 5.37606
H -3.16768 -9.14967 3.72996
H -1.90831 -7.42377 5.3451
H -3.53209 -2.99877 0.03887
H -1.79316 -3.24834 -0.32812
H -0.70628 -0.87499 -2.79573
H -1.56544 -0.93767 -1.21305
H -0.64462 -2.39343 -1.87852
H 1.67813 -4.05765 3.98996
H 2.22427 -5.04955 2.60889
H -0.41095 -3.4569 2.62658
H 0.40075 -4.09842 1.16909
$end

$opt
CONSTRAINT
tors           1           2           3           4    -120.609
tors           3           4           5           6     -84.370
tors           4           5           6           7    +141.516
tors           5           6           7           8     +92.386
tors           6           7           8           9    +153.675
tors           7           8           9          10     +76.744
tors           8           9          10          11    -175.871
tors           9          10          11          12     +78.677
tors          11          12          13          14     +21.791
ENDCONSTRAINT
$end

$rem
JOBTYPE                   OPT
METHOD                    B3LYP
DFT_D                     d3_op
BASIS                     STO-3G
GEOM_OPT_MAX_CYCLES       100
GEOM_OPT_TOL_GRADIENT     300
GEOM_OPT_TOL_DISPLACEMENT 1200
GEOM_OPT_TOL_ENERGY       100
SYMMETRY                  False
THRESH                    12
SCF_CONVERGENCE           8
MAX_SUB_FILE_NUM          128
MEM_STATIC                400
MEM_TOTAL                 4000
$end
--------------------------------------------------------------

   15   -1510.1425775714      6.46E-09 Convergence criterion met
 Total energy in the final basis set = -1510.14257757
   14   -1510.2124585202      6.50E-09 Convergence criterion met
 Total energy in the final basis set = -1510.21245852
   14   -1510.2396090773      6.69E-09 Convergence criterion met
 Total energy in the final basis set = -1510.23960908
   14   -1510.2654789678      4.29E-09 Convergence criterion met
 Total energy in the final basis set = -1510.26547897
   14   -1510.2717302960      2.58E-09 Convergence criterion met
 Total energy in the final basis set = -1510.27173030
   13   -1510.2747394700      7.29E-09 Convergence criterion met
 Total energy in the final basis set = -1510.27473947
   13   -1510.2756810506      3.69E-09 Convergence criterion met
 Total energy in the final basis set = -1510.27568105
   12   -1510.2764206140      9.50E-09 Convergence criterion met
   11   -1510.2812565578      7.73E-09 Convergence criterion met
 Total energy in the final basis set = -1510.28125656
   11   -1510.2812620585      4.56E-09 Convergence criterion met
 Total energy in the final basis set = -1510.28126206
   11   -1510.2812680488      4.43E-09 Convergence criterion met
 Total energy in the final basis set = -1510.28126805
   11   -1510.2812728770      2.80E-09 Convergence criterion met
 Total energy in the final basis set = -1510.28127288
   10   -1510.2812755598      7.30E-09 Convergence criterion met
 Total energy in the final basis set = -1510.28127556
    9   -1510.2812765867      8.75E-09 Convergence criterion met
 Total energy in the final basis set = -1510.28127659

             Standard Nuclear Orientation (Angstroms)
    I     Atom           X                Y                Z
 ----------------------------------------------------------------
    1      O      -2.9326620157     1.7066919385     2.1016049876
    2      C      -2.9051732844     1.4259545322     0.8826905730
    3      C      -4.1320461103     0.9464723239     0.0215447787
    4      C      -4.0444528522    -0.4714918837    -0.6985666472
    5      C      -2.6775802728    -1.2307117588    -0.5800040328
    6      O      -1.7765757462    -0.7626352452    -1.6019360311
    7      C      -0.3969163570    -0.6678797919    -1.0712551074
    8      C       0.4147675069    -1.9970228594    -1.3298721733
    9      O       1.8766926158    -1.7563594671    -1.4032392583
   10      C       2.4252989396    -1.5656289807    -0.0891160337
   11      C       3.9506491398    -1.2112097396    -0.2519050228
   12      C       4.2652337940     0.2859356025    -0.6642159431
   13      C       2.9914243998     1.1828202783    -0.7619731266
   14      O       1.8876321035     0.9714281364    -0.2077219041
   15      O      -1.7684539307     1.6208210178     0.0401360133
   16      O       3.2827729256     2.3223474591    -1.5674861576
   17      O       1.8001335371    -1.7559646984     0.9749588738
   18      C       2.1021909608     3.2166740371    -1.6436846050
   19      C       4.6972624136    -1.3033631596     1.1443442934
   20      C       6.2474495887    -1.4186160145     0.8744312205
   21      C       6.5859288616     0.0526213415     0.4274322091
   22      C       5.1722150765     0.7458346315     0.5634178575
   23      O       4.5464625742     0.0578760852     1.7115649137
   24      H       4.3833879508    -1.9071992343    -0.9929414143
   25      H       4.8160441720     0.3476208508    -1.6192446998
   26      H       4.2673975854    -2.0546825865     1.8346156044
   27      H       6.7804645414    -1.6906760795     1.7993173302
   28      H       6.4809819291    -2.1651631689     0.0985303587
   29      H       7.3122094217     0.5266747476     1.1065324800
   30      H       6.9754980946     0.1071566189    -0.6017364764
   31      H       5.1971368141     1.8409911315     0.7265385588
   32      O      -2.3524863751    -2.0491610407     0.3073522714
   33      C      -0.6499360792     2.2233003519     0.8109468531
   34      C      -5.3786142709     0.7119071286     0.9734567625
   35      C      -6.6959978693     0.6800438220     0.1034056745
   36      C      -6.5939617151    -0.7470565431    -0.5528297931
   37      C      -5.2184242713    -1.2510677293     0.0364899852
   38      O      -5.2063856421    -0.6936875173     1.4068057484
   39      H      -4.3306349935     1.7312624682    -0.7317345484
   40      H      -4.2600642624    -0.3448364837    -1.7753557450
   41      H       0.3005861766     1.8179193856     0.4001217756
   42      H      -5.3916376976     1.3859191521     1.8518263421
   43      H      -7.5852887117     0.7661448857     0.7477670043
   44      H      -6.7215806506     1.4904071226    -0.6427913186
   45      H      -7.4160512455    -1.4022025779    -0.2231442065
   46      H      -6.5897825956    -0.7126010284    -1.6540485327
   47      H      -5.0836336747    -2.3496390634     0.0655095053
   48      H      -0.7482166049     1.9774665064     1.8859643685
   49      H      -0.6737074038     3.3261810147     0.6970079334
   50      H       2.3747626006     4.0193651397    -2.3529912365
   51      H       1.8655103068     3.6607283015    -0.6553646290
   52      H       1.2058391051     2.6792110086    -2.0143866875
   53      H       0.1681483325    -2.7387457996    -0.5407209732
   54      H       0.1351416287    -2.4082413688    -2.3211039102
   55      H      -0.3905022665    -0.4396476283     0.0116796816
   56      H       0.0837187243     0.1668966387    -1.6204680691
 ----------------------------------------------------------------

    8   -1510.2812768483      9.47E-09 Convergence criterion met
 Total energy in the final basis set = -1510.28127685
 Final energy is   -1510.28127684827
 **  OPTIMIZATION CONVERGED  **

                    Orbital Energies (a.u.)
 --------------------------------------------------------------

 Alpha MOs
 -- Occupied --
-18.955 -18.926 -18.925 -18.916 -18.897 -18.892 -18.881 -18.878
-18.871 -18.869 -10.119 -10.096 -10.096 -10.093 -10.078 -10.067
-10.061 -10.060 -10.060 -10.053 -10.052 -10.047 -10.039 -10.038
-10.035 -10.033 -10.025 -10.022 -10.016 -10.015  -1.030  -1.007
 -1.004  -1.000  -0.975  -0.964  -0.954  -0.933  -0.929  -0.927
 -0.768  -0.757  -0.728  -0.719  -0.713  -0.702  -0.690  -0.676
 -0.650  -0.615  -0.596  -0.581  -0.549  -0.541  -0.539  -0.533
 -0.518  -0.505  -0.482  -0.472  -0.463  -0.459  -0.453  -0.444
 -0.437  -0.430  -0.425  -0.422  -0.418  -0.412  -0.406  -0.389
 -0.386  -0.382  -0.374  -0.370  -0.358  -0.356  -0.352  -0.348
 -0.346  -0.339  -0.335  -0.332  -0.328  -0.325  -0.324  -0.315
 -0.310  -0.306  -0.305  -0.300  -0.290  -0.285  -0.280  -0.275
 -0.269  -0.264  -0.251  -0.241  -0.238  -0.237  -0.228  -0.196
 -0.182  -0.173  -0.166  -0.157  -0.152  -0.149  -0.148  -0.145
 -0.138

          Ground-State Mulliken Net Atomic Charges

     Atom                 Charge (a.u.)
  ----------------------------------------
      1 O                    -0.212121
      2 C                     0.206400
      3 C                    -0.077570
      4 C                    -0.078462
      5 C                     0.210263
      6 O                    -0.180487
      7 C                    -0.046504
      8 C                    -0.054494
      9 O                    -0.178632
     10 C                     0.213033
     11 C                    -0.080307
     12 C                    -0.078081
     13 C                     0.219726
     14 O                    -0.211689
     15 O                    -0.175309
     16 O                    -0.164412
     17 O                    -0.208347
     18 C                    -0.129081
     19 C                     0.025396
     20 C                    -0.143946
     21 C                    -0.143551
     22 C                     0.026006
     23 O                    -0.187004
     24 H                     0.085309
     25 H                     0.088967
     26 H                     0.091502
     27 H                     0.079296
     28 H                     0.074084
     29 H                     0.079318
     30 H                     0.074252
     31 H                     0.083358
     32 O                    -0.200570
     33 C                    -0.151439
     34 C                     0.024102
     35 C                    -0.144805
     36 C                    -0.143930
     37 C                     0.024786
     38 O                    -0.187108
     39 H                     0.083989
     40 H                     0.083658
     41 H                     0.109440
     42 H                     0.090727
     43 H                     0.077663
     44 H                     0.071755
     45 H                     0.077363
     46 H                     0.071927
     47 H                     0.085828
     48 H                     0.095832
     49 H                     0.072420
     50 H                     0.095305
     51 H                     0.091003
     52 H                     0.093282
     53 H                     0.096823
     54 H                     0.086420
     55 H                     0.100899
     56 H                     0.087716
  ----------------------------------------
  Sum of atomic charges =    -0.000000

                    Cartesian Multipole Moments
 -----------------------------------------------------------------
    Charge (ESU x 10^10)
                -0.0000
    Dipole Moment (Debye)
         X       2.2935      Y       2.0956      Z      -4.2969
       Tot       5.3024
    Quadrupole Moments (Debye-Ang)
        XX    -136.6086     XY      -3.3869     YY    -152.8226
        XZ       6.1177     YZ       0.3659     ZZ    -169.1410

 Total job time:  111.93s(wall), 5334.32s(cpu)
        *  Thank you very much for using Q-Chem.  Have a nice day.  *
