 Q-Chem 5.0, Q-Chem, Inc., Pleasanton, CA (2017)
 Q-Chem 5.0.1 for Intel X86 EM64T Linux

User input:
--------------------------------------------------------------
$molecule
0  1
O -3.4451534456 0.8970536817 2.5479056557
C -3.4045958052 1.1759784151 1.3303538864
C -4.5061694737 0.8626538031 0.2515423614
C -4.1351892143 -0.3305554039 -0.7370235152
C -2.6698935871 -0.8489783081 -0.5495320126
O -1.8000584784 0.0131224186 -1.2968404896
C -0.400427623 -0.1277969404 -0.8284148803
C 0.449513254 -0.8138593028 -1.9614119517
O 1.9065584552 -0.9879501866 -1.7128822462
C 2.3164382032 -1.0705068509 -0.3449606312
C 3.8833694504 -1.2399884685 -0.3672644481
C 4.6366136955 0.1540508424 -0.4621923221
C 3.6625695335 1.3462755454 -0.7385066813
O 2.555729988 1.5655869852 -0.1958743914
O -2.3202948214 1.8700912124 0.7053703297
O 4.2527594189 2.2038685115 -1.7198274471
O 1.5866317001 -1.1501120027 0.6653440661
C 3.3551503018 3.3509835887 -1.9934200727
C 4.3718727343 -1.7436328674 1.0527249733
C 5.8962430194 -2.1458558237 0.9637946785
C 6.5861230418 -0.7310458106 0.9376313317
C 5.3256965508 0.2202580763 0.9716623107
O 4.3804185474 -0.4956483296 1.8543903925
H 4.1659395746 -1.9129684436 -1.1956729937
H 5.3974284458 0.1473311081 -1.2625770521
H 3.7030947746 -2.4920902712 1.5194768486
H 6.1953976532 -2.7257075181 1.8511573196
H 6.1139905855 -2.7415594832 0.062642685
H 7.2087613737 -0.5706038938 1.8324604083
H 7.2073903541 -0.5740417893 0.0413349175
H 5.5140577558 1.2437947987 1.3497807394
O -2.28126948 -1.7908243191 0.1742843795
C -1.2543693398 2.1364774627 1.7011892179
C -5.7863014503 0.2584067496 0.9640472326
C -6.9893554511 0.2438949852 -0.0597344666
C -6.6026063055 -0.9806306087 -0.9714395765
C -5.2250565391 -1.408738908 -0.3305682945
O -5.4330009132 -1.172524652 1.1160196842
H -4.7249196684 1.7857629525 -0.3150771303
H -4.2531416182 -0.0040038824 -1.7859264038
H -0.8232810663 1.1940602655 2.096312844
H -6.0014983388 0.706762014 1.9530351045
H -7.9416330875 0.0715740302 0.4664074828
H -7.0636659231 1.1868736471 -0.6247118566
H -7.3367793572 -1.797046023 -0.8811725626
H -6.5051340595 -0.7086764848 -2.0346577615
H -4.9173334376 -2.4570798296 -0.5097649453
H -1.6331277904 2.7367172738 2.5531893836
H -0.4697160179 2.7021233419 1.1662227162
H 3.8661498365 3.9627811775 -2.7592592598
H 3.1834974007 3.9614324093 -1.0833025149
H 2.3722070853 3.014137659 -2.3815521803
H 0.0115071269 -1.8169051662 -2.1666181399
H 0.3807070683 -0.2149420735 -2.8937826918
H -0.3486817503 -0.7382267063 0.0941322949
H -0.0087773525 0.8903778443 -0.6270213799
$end

$rem
JOBTYPE                   OPT
METHOD                    B3LYP
DFT_D                     d3_op
BASIS                     STO-3G
GEOM_OPT_MAX_CYCLES       100
GEOM_OPT_TOL_GRADIENT     300
GEOM_OPT_TOL_DISPLACEMENT 1200
GEOM_OPT_TOL_ENERGY       100
SYMMETRY                  False
THRESH                    12
SCF_CONVERGENCE           8
MAX_SUB_FILE_NUM          128
MEM_STATIC                400
MEM_TOTAL                 4000
$end
--------------------------------------------------------------

   16   -1510.2758419477      6.19E-09 Convergence criterion met
 Total energy in the final basis set = -1510.27584195
   14   -1510.2790505250      6.15E-09 Convergence criterion met
 Total energy in the final basis set = -1510.27905053
   14   -1510.2805261571      2.33E-09 Convergence criterion met
 Total energy in the final basis set = -1510.28052616
   14   -1510.2822037922      3.10E-09 Convergence criterion met
 Total energy in the final basis set = -1510.28220379
   13   -1510.2836861178      6.56E-09 Convergence criterion met
 Total energy in the final basis set = -1510.28368612
   13   -1510.2851253972      7.88E-09 Convergence criterion met
 Total energy in the final basis set = -1510.28512540
   13   -1510.2861456832      4.14E-09 Convergence criterion met
 Total energy in the final basis set = -1510.28614568
   13   -1510.2869081459      7.15E-09 Convergence criterion met
   12   -1510.3001361739      4.23E-09 Convergence criterion met
 Total energy in the final basis set = -1510.30013617
   12   -1510.3002122243      8.84E-09 Convergence criterion met
 Total energy in the final basis set = -1510.30021222
   11   -1510.3002352701      7.15E-09 Convergence criterion met
 Total energy in the final basis set = -1510.30023527
   11   -1510.3002325631      6.72E-09 Convergence criterion met
 Total energy in the final basis set = -1510.30023256
   11   -1510.3002470417      2.64E-09 Convergence criterion met
 Total energy in the final basis set = -1510.30024704
    9   -1510.3002465280      6.34E-09 Convergence criterion met
 Total energy in the final basis set = -1510.30024653

             Standard Nuclear Orientation (Angstroms)
    I     Atom           X                Y                Z
 ----------------------------------------------------------------
    1      O      -3.4493231620     0.9463828540     2.9591826400
    2      C      -2.9644737249     0.9935383746     1.8099408423
    3      C      -3.6740553781     1.4179657860     0.4729614454
    4      C      -3.3575139041     0.4559535719    -0.7524978021
    5      C      -2.4555899240    -0.7651369169    -0.3599523421
    6      O      -1.1786151456    -0.6437607989    -1.0241642877
    7      C      -0.2851102886    -1.7534697227    -0.6015781191
    8      C       0.6600075548    -2.1354761147    -1.7930490378
    9      O       1.8879955206    -1.3005470262    -1.7850972936
   10      C       2.9123783639    -1.9425478192    -1.0098850157
   11      C       4.1473296230    -0.9797091089    -0.9113929478
   12      C       3.8048950025     0.4526937905    -0.3165870235
   13      C       2.2902758139     0.6268854800     0.0470634297
   14      O       1.6507102517    -0.0200247990     0.9123450930
   15      O      -1.6128441679     0.6806714520     1.4758956720
   16      O       1.7612785469     1.6662455151    -0.7631885988
   17      O       2.8142399036    -3.0909878994    -0.5277153022
   18      C       0.3068800820     1.8504924958    -0.5268651996
   19      C       5.1836221283    -1.5178409706     0.1586928497
   20      C       6.5579855776    -0.7717078444    -0.0528033413
   21      C       6.2227579147     0.6506148687     0.5328801420
   22      C       4.7216764529     0.4510514705     0.9825729184
   23      O       4.6746686441    -0.9575956765     1.4327113960
   24      H       4.5981544897    -0.8861081704    -1.9166194013
   25      H       4.0811898131     1.2564543512    -1.0207772849
   26      H       5.2316067066    -2.6227577047     0.2152035104
   27      H       7.3576632399    -1.2667510758     0.5206944031
   28      H       6.8533752024    -0.7369491771    -1.1136619773
   29      H       6.8555499169     0.8890267663     1.4026490678
   30      H       6.3295188180     1.4547975245    -0.2124651760
   31      H       4.3756820756     1.1264302294     1.7889287005
   32      O      -2.7782180520    -1.7488065727     0.3395604131
   33      C      -0.8434374254     0.1920738715     2.6422415878
   34      C      -5.2481829476     1.2810769893     0.5770116251
   35      C      -5.8990580229     2.1056529014    -0.6007621173
   36      C      -5.5757604842     1.1789366005    -1.8321230875
   37      C      -4.8274239369    -0.0204228084    -1.1264383985
   38      O      -5.4950555742    -0.1280805094     0.1895729826
   39      H      -3.3711503840     2.4556745223     0.2385920593
   40      H      -2.8724514782     1.0027779260    -1.5798984426
   41      H      -1.2429266260    -0.7768711413     3.0040505916
   42      H      -5.6476230238     1.4809737197     1.5904514102
   43      H      -6.9852391587     2.2060190304    -0.4463365265
   44      H      -5.4613173447     3.1120505559    -0.6976318086
   45      H      -6.4954201186     0.8228082317    -2.3228719045
   46      H      -4.9434189938     1.6753575768    -2.5854576729
   47      H      -4.8732094525    -0.9879155253    -1.6628488253
   48      H      -0.8647665042     0.9226772434     3.4755176495
   49      H       0.1901203168     0.0651652077     2.2553347724
   50      H       0.0005510170     2.6671923807    -1.2053538525
   51      H       0.1027415205     2.1467944469     0.5209821519
   52      H      -0.2724572534     0.9200423922    -0.7533947913
   53      H       0.9423965751    -3.2066140285    -1.7066162795
   54      H       0.1538879946    -1.9503132037    -2.7622486067
   55      H      -0.9115923612    -2.6119803357    -0.2796155539
   56      H       0.3360516262    -1.3998493709     0.2542960402
 ----------------------------------------------------------------

    9   -1510.3002462279      2.26E-09 Convergence criterion met
 Total energy in the final basis set = -1510.30024623
 Final energy is   -1510.30024622788
 **  OPTIMIZATION CONVERGED  **

                    Orbital Energies (a.u.)
 --------------------------------------------------------------

 Alpha MOs
 -- Occupied --
-18.937 -18.936 -18.936 -18.934 -18.889 -18.888 -18.883 -18.879
-18.875 -18.873 -10.104 -10.104 -10.102 -10.100 -10.073 -10.062
-10.061 -10.061 -10.059 -10.058 -10.049 -10.041 -10.041 -10.040
-10.039 -10.038 -10.022 -10.022 -10.021 -10.020  -1.019  -1.015
 -1.009  -1.006  -0.971  -0.970  -0.943  -0.938  -0.936  -0.935
 -0.766  -0.764  -0.729  -0.724  -0.712  -0.707  -0.698  -0.657
 -0.655  -0.618  -0.598  -0.581  -0.548  -0.545  -0.539  -0.537
 -0.512  -0.511  -0.486  -0.474  -0.459  -0.458  -0.454  -0.453
 -0.437  -0.432  -0.429  -0.418  -0.415  -0.408  -0.401  -0.397
 -0.392  -0.383  -0.372  -0.368  -0.364  -0.362  -0.354  -0.351
 -0.342  -0.341  -0.338  -0.332  -0.331  -0.327  -0.324  -0.312
 -0.311  -0.307  -0.306  -0.302  -0.293  -0.290  -0.285  -0.275
 -0.273  -0.263  -0.254  -0.245  -0.242  -0.236  -0.234  -0.185
 -0.178  -0.174  -0.171  -0.163  -0.158  -0.153  -0.151  -0.145
 -0.144

          Ground-State Mulliken Net Atomic Charges

     Atom                 Charge (a.u.)
  ----------------------------------------
      1 O                    -0.206645
      2 C                     0.213190
      3 C                    -0.078569
      4 C                    -0.079012
      5 C                     0.217020
      6 O                    -0.175264
      7 C                    -0.063619
      8 C                    -0.053650
      9 O                    -0.174322
     10 C                     0.211148
     11 C                    -0.078277
     12 C                    -0.079171
     13 C                     0.218822
     14 O                    -0.228329
     15 O                    -0.175446
     16 O                    -0.166231
     17 O                    -0.208586
     18 C                    -0.148074
     19 C                     0.024353
     20 C                    -0.144025
     21 C                    -0.143839
     22 C                     0.025554
     23 O                    -0.186709
     24 H                     0.085951
     25 H                     0.087199
     26 H                     0.091129
     27 H                     0.078784
     28 H                     0.073240
     29 H                     0.078391
     30 H                     0.073821
     31 H                     0.083034
     32 O                    -0.212312
     33 C                    -0.140845
     34 C                     0.023889
     35 C                    -0.143793
     36 C                    -0.144186
     37 C                     0.025974
     38 O                    -0.185852
     39 H                     0.083476
     40 H                     0.084311
     41 H                     0.088679
     42 H                     0.091232
     43 H                     0.078767
     44 H                     0.072783
     45 H                     0.078440
     46 H                     0.072874
     47 H                     0.083833
     48 H                     0.084541
     49 H                     0.113756
     50 H                     0.079097
     51 H                     0.083077
     52 H                     0.113975
     53 H                     0.099515
     54 H                     0.092244
     55 H                     0.099721
     56 H                     0.104933
  ----------------------------------------
  Sum of atomic charges =    -0.000000

                    Cartesian Multipole Moments
 -----------------------------------------------------------------
    Charge (ESU x 10^10)
                -0.0000
    Dipole Moment (Debye)
         X       1.7980      Y       2.8598      Z      -3.4820
       Tot       4.8514
    Quadrupole Moments (Debye-Ang)
        XX    -153.1102     XY      -4.3702     YY    -160.0425
        XZ       6.4433     YZ       5.4587     ZZ    -162.3868

 Total job time:  120.98s(wall), 5764.79s(cpu)
        *  Thank you very much for using Q-Chem.  Have a nice day.  *
