 Q-Chem 5.0, Q-Chem, Inc., Pleasanton, CA (2017)
 Q-Chem 5.0.1 for Intel X86 EM64T Linux

User input:
--------------------------------------------------------------
$molecule
0  1
O -3.94934 -3.66094 2.70899
C -3.26408 -4.56952 2.26188
C -3.36658 -6.02376 2.66595
C -2.25378 -6.58254 3.56778
C -1.25852 -5.58084 4.11013
O -0.28861 -5.33981 3.17921
C 0.43588 -4.12913 3.42132
C 1.87309 -4.44747 3.82035
O 2.61333 -3.22933 3.99661
C 1.87516 -2.14134 4.32909
C 2.70827 -0.89218 4.49094
C 2.9886 -0.12786 3.18882
C 2.12376 -0.50401 2.00254
O 0.9138 -0.67599 2.03367
O -2.27714 -4.26883 1.37776
O 2.78501 -0.75268 0.84184
O 0.93252 -2.19521 5.10779
C 2.17441 -1.15578 -0.32744
C 2.07439 0.24567 5.33687
C 3.16903 1.17018 5.87189
C 3.58228 1.8835 4.60347
C 2.57271 1.29127 3.6164
O 1.42509 1.06172 4.39638
H 3.65154 -1.20279 4.99623
H 4.05518 -0.16646 2.87272
H 1.455 -0.10775 6.18904
H 2.67798 1.90778 6.5468
H 3.9905 0.66282 6.42198
H 3.3991 2.97297 4.73724
H 4.63145 1.71084 4.27946
H 2.44031 1.97122 2.74524
O -1.2175 -5.18716 5.27167
C -2.00633 -2.99675 0.91787
C -4.60032 -6.2779 3.56118
C -5.00039 -7.75163 3.50131
C -3.88711 -8.3751 4.3111
C -3.11677 -7.11984 4.73201
O -4.11375 -6.14018 4.87065
H -3.49575 -6.60216 1.72398
H -1.68053 -7.42102 3.11209
H -1.73691 -2.33196 1.76644
H -5.47566 -5.6453 3.29527
H -5.95374 -7.86408 4.06592
H -5.12978 -8.15929 2.47564
H -4.33478 -8.86378 5.20528
H -3.24763 -9.10085 3.7637
H -2.51749 -7.33931 5.64335
H -2.89034 -2.58598 0.3851
H -1.15049 -3.03893 0.21326
H 2.94511 -1.28565 -1.11457
H 1.44545 -0.3874 -0.66305
H 1.65348 -2.12514 -0.17258
H 1.88838 -5.02424 4.76949
H 2.35337 -5.05523 3.02421
H -0.25181 -3.47195 3.97117
H 0.49673 -3.59903 2.44612
$end

$opt
CONSTRAINT
tors           1           2           3           4    -105.738
tors           3           4           5           6     -83.081
tors           4           5           6           7    +161.508
tors           5           6           7           8    +111.653
tors           6           7           8           9    +177.120
tors           7           8           9          10     +26.026
tors           8           9          10          11    -179.615
tors           9          10          11          12     +85.043
tors          11          12          13          14     +44.266
ENDCONSTRAINT
$end

$rem
JOBTYPE                   OPT
METHOD                    B3LYP
DFT_D                     d3_op
BASIS                     STO-3G
GEOM_OPT_MAX_CYCLES       100
GEOM_OPT_TOL_GRADIENT     300
GEOM_OPT_TOL_DISPLACEMENT 1200
GEOM_OPT_TOL_ENERGY       100
SYMMETRY                  False
THRESH                    12
SCF_CONVERGENCE           8
MAX_SUB_FILE_NUM          128
MEM_STATIC                400
MEM_TOTAL                 4000
$end
--------------------------------------------------------------

   15   -1510.1113285486      8.14E-09 Convergence criterion met
 Total energy in the final basis set = -1510.11132855
   14   -1510.1866023554      6.14E-09 Convergence criterion met
 Total energy in the final basis set = -1510.18660236
   14   -1510.2281864999      7.73E-09 Convergence criterion met
 Total energy in the final basis set = -1510.22818650
   15   -1510.2521224578      1.84E-09 Convergence criterion met
 Total energy in the final basis set = -1510.25212246
   13   -1510.2639848628      9.12E-09 Convergence criterion met
 Total energy in the final basis set = -1510.26398486
   14   -1510.2695786771      2.59E-09 Convergence criterion met
 Total energy in the final basis set = -1510.26957868
   13   -1510.2725248657      8.74E-09 Convergence criterion met
 Total energy in the final basis set = -1510.27252487
   12   -1510.2739933050      9.95E-09 Convergence criterion met
   10   -1510.2759038691      9.57E-09 Convergence criterion met
 Total energy in the final basis set = -1510.27590387
   11   -1510.2759106514      3.25E-09 Convergence criterion met
 Total energy in the final basis set = -1510.27591065
    9   -1510.2759131271      9.32E-09 Convergence criterion met
 Total energy in the final basis set = -1510.27591313
    9   -1510.2759149217      4.03E-09 Convergence criterion met
 Total energy in the final basis set = -1510.27591492
    9   -1510.2759162910      3.49E-09 Convergence criterion met
 Total energy in the final basis set = -1510.27591629
    9   -1510.2759174936      4.18E-09 Convergence criterion met
 Total energy in the final basis set = -1510.27591749

             Standard Nuclear Orientation (Angstroms)
    I     Atom           X                Y                Z
 ----------------------------------------------------------------
    1      O      -3.4451534456     0.8970536817     2.5479056557
    2      C      -3.4045958052     1.1759784151     1.3303538864
    3      C      -4.5061694737     0.8626538031     0.2515423614
    4      C      -4.1351892143    -0.3305554039    -0.7370235152
    5      C      -2.6698935871    -0.8489783081    -0.5495320126
    6      O      -1.8000584784     0.0131224186    -1.2968404896
    7      C      -0.4004276230    -0.1277969404    -0.8284148803
    8      C       0.4495132540    -0.8138593028    -1.9614119517
    9      O       1.9065584552    -0.9879501866    -1.7128822462
   10      C       2.3164382032    -1.0705068509    -0.3449606312
   11      C       3.8833694504    -1.2399884685    -0.3672644481
   12      C       4.6366136955     0.1540508424    -0.4621923221
   13      C       3.6625695335     1.3462755454    -0.7385066813
   14      O       2.5557299880     1.5655869852    -0.1958743914
   15      O      -2.3202948214     1.8700912124     0.7053703297
   16      O       4.2527594189     2.2038685115    -1.7198274471
   17      O       1.5866317001    -1.1501120027     0.6653440661
   18      C       3.3551503018     3.3509835887    -1.9934200727
   19      C       4.3718727343    -1.7436328674     1.0527249733
   20      C       5.8962430194    -2.1458558237     0.9637946785
   21      C       6.5861230418    -0.7310458106     0.9376313317
   22      C       5.3256965508     0.2202580763     0.9716623107
   23      O       4.3804185474    -0.4956483296     1.8543903925
   24      H       4.1659395746    -1.9129684436    -1.1956729937
   25      H       5.3974284458     0.1473311081    -1.2625770521
   26      H       3.7030947746    -2.4920902712     1.5194768486
   27      H       6.1953976532    -2.7257075181     1.8511573196
   28      H       6.1139905855    -2.7415594832     0.0626426850
   29      H       7.2087613737    -0.5706038938     1.8324604083
   30      H       7.2073903541    -0.5740417893     0.0413349175
   31      H       5.5140577558     1.2437947987     1.3497807394
   32      O      -2.2812694800    -1.7908243191     0.1742843795
   33      C      -1.2543693398     2.1364774627     1.7011892179
   34      C      -5.7863014503     0.2584067496     0.9640472326
   35      C      -6.9893554511     0.2438949852    -0.0597344666
   36      C      -6.6026063055    -0.9806306087    -0.9714395765
   37      C      -5.2250565391    -1.4087389080    -0.3305682945
   38      O      -5.4330009132    -1.1725246520     1.1160196842
   39      H      -4.7249196684     1.7857629525    -0.3150771303
   40      H      -4.2531416182    -0.0040038824    -1.7859264038
   41      H      -0.8232810663     1.1940602655     2.0963128440
   42      H      -6.0014983388     0.7067620140     1.9530351045
   43      H      -7.9416330875     0.0715740302     0.4664074828
   44      H      -7.0636659231     1.1868736471    -0.6247118566
   45      H      -7.3367793572    -1.7970460230    -0.8811725626
   46      H      -6.5051340595    -0.7086764848    -2.0346577615
   47      H      -4.9173334376    -2.4570798296    -0.5097649453
   48      H      -1.6331277904     2.7367172738     2.5531893836
   49      H      -0.4697160179     2.7021233419     1.1662227162
   50      H       3.8661498365     3.9627811775    -2.7592592598
   51      H       3.1834974007     3.9614324093    -1.0833025149
   52      H       2.3722070853     3.0141376590    -2.3815521803
   53      H       0.0115071269    -1.8169051662    -2.1666181399
   54      H       0.3807070683    -0.2149420735    -2.8937826918
   55      H      -0.3486817503    -0.7382267063     0.0941322949
   56      H      -0.0087773525     0.8903778443    -0.6270213799
 ----------------------------------------------------------------

    9   -1510.2759181715      2.84E-09 Convergence criterion met
 Total energy in the final basis set = -1510.27591817
 Final energy is   -1510.27591817147
 **  OPTIMIZATION CONVERGED  **

                    Orbital Energies (a.u.)
 --------------------------------------------------------------

 Alpha MOs
 -- Occupied --
-18.942 -18.930 -18.928 -18.925 -18.889 -18.882 -18.879 -18.875
-18.874 -18.870 -10.104 -10.100 -10.095 -10.092 -10.070 -10.069
-10.063 -10.058 -10.056 -10.055 -10.055 -10.054 -10.039 -10.036
-10.035 -10.034 -10.022 -10.020 -10.017 -10.016  -1.018  -1.009
 -1.005  -1.001  -0.971  -0.965  -0.941  -0.937  -0.932  -0.929
 -0.764  -0.759  -0.726  -0.720  -0.710  -0.702  -0.693  -0.668
 -0.656  -0.616  -0.595  -0.582  -0.547  -0.542  -0.537  -0.533
 -0.512  -0.505  -0.476  -0.469  -0.461  -0.457  -0.452  -0.448
 -0.435  -0.432  -0.423  -0.417  -0.413  -0.407  -0.405  -0.391
 -0.386  -0.381  -0.367  -0.365  -0.362  -0.357  -0.352  -0.349
 -0.344  -0.342  -0.336  -0.331  -0.328  -0.326  -0.324  -0.311
 -0.307  -0.305  -0.301  -0.299  -0.289  -0.285  -0.278  -0.275
 -0.270  -0.261  -0.255  -0.247  -0.236  -0.234  -0.229  -0.184
 -0.179  -0.172  -0.163  -0.158  -0.155  -0.146  -0.145  -0.144
 -0.139

          Ground-State Mulliken Net Atomic Charges

     Atom                 Charge (a.u.)
  ----------------------------------------
      1 O                    -0.207759
      2 C                     0.205206
      3 C                    -0.077243
      4 C                    -0.078053
      5 C                     0.207470
      6 O                    -0.174517
      7 C                    -0.061848
      8 C                    -0.051066
      9 O                    -0.177258
     10 C                     0.216697
     11 C                    -0.078637
     12 C                    -0.080166
     13 C                     0.209310
     14 O                    -0.215678
     15 O                    -0.170450
     16 O                    -0.167333
     17 O                    -0.206168
     18 C                    -0.128614
     19 C                     0.025761
     20 C                    -0.144726
     21 C                    -0.142816
     22 C                     0.025858
     23 O                    -0.184807
     24 H                     0.086057
     25 H                     0.086269
     26 H                     0.089589
     27 H                     0.078887
     28 H                     0.073546
     29 H                     0.078481
     30 H                     0.073859
     31 H                     0.082889
     32 O                    -0.207092
     33 C                    -0.130067
     34 C                     0.024990
     35 C                    -0.144720
     36 C                    -0.143626
     37 C                     0.024779
     38 O                    -0.185671
     39 H                     0.084881
     40 H                     0.084369
     41 H                     0.095129
     42 H                     0.088430
     43 H                     0.077756
     44 H                     0.072210
     45 H                     0.077640
     46 H                     0.072114
     47 H                     0.086271
     48 H                     0.088328
     49 H                     0.091515
     50 H                     0.091889
     51 H                     0.089562
     52 H                     0.089552
     53 H                     0.082595
     54 H                     0.086240
     55 H                     0.118597
     56 H                     0.091591
  ----------------------------------------
  Sum of atomic charges =    -0.000000

                    Cartesian Multipole Moments
 -----------------------------------------------------------------
    Charge (ESU x 10^10)
                -0.0000
    Dipole Moment (Debye)
         X       1.9896      Y       1.9627      Z      -4.0268
       Tot       4.9016
    Quadrupole Moments (Debye-Ang)
        XX    -137.3792     XY      -6.0330     YY    -152.6018
        XZ       7.4157     YZ       3.2189     ZZ    -165.5625

 Total job time:  65.65s(wall), 3121.47s(cpu)
        *  Thank you very much for using Q-Chem.  Have a nice day.  *
