 Q-Chem 5.0, Q-Chem, Inc., Pleasanton, CA (2017)
 Q-Chem 5.0.1 for Intel X86 EM64T Linux

User input:
--------------------------------------------------------------
$molecule
0  1
O -3.2473466861 1.9338873859 1.8367610561
C -3.1390022955 1.5185658687 0.6626113782
C -4.2575226974 0.7907284031 -0.1761183334
C -3.9965700454 -0.7664253369 -0.3823213736
C -2.5112294945 -1.1799754326 -0.1224571241
O -1.7870430872 -0.9350279132 -1.3398713199
C -0.3486373022 -0.7245557115 -1.0659311886
C 0.5223710451 -1.8437466327 -1.7448110151
O 1.9661336767 -1.4956033219 -1.7369080691
C 2.4969177929 -1.538834006 -0.4038805413
C 4.005108189 -1.096787326 -0.4705979962
C 4.2535198916 0.4640973337 -0.5816800607
C 2.9509163789 1.3267384129 -0.5986222512
O 1.8261671889 1.0137545166 -0.1439212197
O -1.9402909988 1.6114887941 -0.1126945603
O 3.2565061598 2.5813008138 -1.2067870952
O 1.8735593189 -1.9526469604 0.5958889999
C 2.0671179684 3.4654707385 -1.208522297
C 4.7325075028 -1.4215026605 0.9012982996
C 6.292801698 -1.3864001521 0.6669521267
C 6.545541688 0.1622339331 0.5447421931
C 5.0850469532 0.7268692711 0.7533362961
O 4.4762748829 -0.2116893214 1.7186927752
H 4.476825292 -1.6191225569 -1.3224619482
H 4.8474400942 0.7208800698 -1.4766533272
H 4.3392946082 -2.3199838017 1.4149168471
H 6.8221350533 -1.8146974947 1.5328914849
H 6.5897102023 -1.9394793884 -0.2383970174
H 7.2148819153 0.5277520538 1.3397053351
H 6.9657603092 0.4508516666 -0.4319252042
H 5.030075904 1.767500163 1.1282698941
O -1.992030809 -1.5619400825 0.9474972103
C -0.8606083412 2.2481201213 0.6833873794
C -5.5696688714 0.730757043 0.7091980697
C -6.7700742379 0.1638194996 -0.1492505204
C -6.456180305 -1.3793542293 -0.1450039171
C -5.06764559 -1.3937560111 0.6060196345
O -5.2523025376 -0.3660377625 1.6560457207
H -4.3939499208 1.3052343221 -1.1444286574
H -4.2285112497 -1.0359489026 -1.4287841634
H 0.1073064503 1.8246918877 0.336821725
H -5.7779808659 1.6652123431 1.2651081615
H -7.7328918438 0.3839847357 0.3381493534
H -6.7846457861 0.5888658531 -1.1658036181
H -7.20876499 -1.9406395252 0.4315771853
H -6.3924588103 -1.8071568664 -1.158251145
H -4.770449696 -2.3604893156 1.0564736295
H -1.0059672575 2.0475716467 1.7626679087
H -0.8709038171 3.3460487917 0.52593229
H 2.3647280661 4.3736505101 -1.7640197275
H 1.7676831681 3.7448711374 -0.1779141445
H 1.2024563858 2.9876569279 -1.7123069872
H 0.3474102254 -2.8136604715 -1.2307942208
H 0.2512503525 -1.9444415902 -2.8150903485
H -0.1624695995 -0.7343703287 0.0273982682
H -0.0696505881 0.2632015217 -1.4859727011
$end

$rem
JOBTYPE                   OPT
METHOD                    B3LYP
DFT_D                     d3_op
BASIS                     STO-3G
GEOM_OPT_MAX_CYCLES       100
GEOM_OPT_TOL_GRADIENT     300
GEOM_OPT_TOL_DISPLACEMENT 1200
GEOM_OPT_TOL_ENERGY       100
SYMMETRY                  False
THRESH                    12
SCF_CONVERGENCE           8
MAX_SUB_FILE_NUM          128
MEM_STATIC                400
MEM_TOTAL                 4000
$end
--------------------------------------------------------------

   16   -1510.2856550949      6.11E-09 Convergence criterion met
 Total energy in the final basis set = -1510.28565509
   15   -1510.2839602409      3.25E-09 Convergence criterion met
 Total energy in the final basis set = -1510.28396024
   13   -1510.2855586876      5.12E-09 Convergence criterion met
 Total energy in the final basis set = -1510.28555869
   14   -1510.2848564034      5.64E-09 Convergence criterion met
 Total energy in the final basis set = -1510.28485640
   14   -1510.2849372020      3.15E-09 Convergence criterion met
 Total energy in the final basis set = -1510.28493720
   15   -1510.2843194481      3.39E-09 Convergence criterion met
 Total energy in the final basis set = -1510.28431945
   13   -1510.2869437731      9.70E-09 Convergence criterion met
 Total energy in the final basis set = -1510.28694377
   15   -1510.2824046499      2.48E-09 Convergence criterion met
   12   -1510.3001424660      3.99E-09 Convergence criterion met
 Total energy in the final basis set = -1510.30014247
   12   -1510.3001561697      2.56E-09 Convergence criterion met
 Total energy in the final basis set = -1510.30015617
   11   -1510.3001655540      4.39E-09 Convergence criterion met
 Total energy in the final basis set = -1510.30016555
   10   -1510.3001668873      5.93E-09 Convergence criterion met
 Total energy in the final basis set = -1510.30016689
   10   -1510.3001699900      6.06E-09 Convergence criterion met
 Total energy in the final basis set = -1510.30016999
    9   -1510.3001687990      8.99E-09 Convergence criterion met
 Total energy in the final basis set = -1510.30016880

             Standard Nuclear Orientation (Angstroms)
    I     Atom           X                Y                Z
 ----------------------------------------------------------------
    1      O      -3.4569084081     2.0404362676     2.3747829785
    2      C      -2.9947276140     1.6024134256     1.3014105531
    3      C      -3.7569576425     1.3228560611    -0.0444498930
    4      C      -3.3855518234    -0.0743662230    -0.7047230032
    5      C      -2.4061467650    -0.9253355927     0.1749146223
    6      O      -1.1525693161    -1.0766337745    -0.5257146481
    7      C      -0.1833491343    -1.8121063822     0.3272581360
    8      C       0.7610266271    -2.6662147088    -0.5876012772
    9      O       1.9241403369    -1.8635679346    -1.0433273484
   10      C       3.0144533793    -2.0171241359    -0.1208933124
   11      C       4.1823024824    -1.0643045622    -0.5547600792
   12      C       3.7637508111     0.4624850150    -0.6820276803
   13      C       2.2505817330     0.7192662218    -0.3617730788
   14      O       1.6760537382     0.5334172357     0.7388996322
   15      O      -1.6252697413     1.2716400983     1.0702105538
   16      O       1.6347107355     1.2222171418    -1.5387376139
   17      O       3.0114120940    -2.8116943641     0.8434315154
   18      C       0.1763429224     1.4225677398    -1.3434709395
   19      C       5.2835651298    -0.9864532862     0.5813768111
   20      C       6.5974661065    -0.3670890605    -0.0358261382
   21      C       6.1858912985     1.1471250283    -0.1642548824
   22      C       4.7151281893     1.1148997512     0.4119314573
   23      O       4.7760709298     0.0838046793     1.4712987881
   24      H       4.5976232794    -1.4341097366    -1.5105068846
   25      H       3.9687297582     0.8505819059    -1.6946313594
   26      H       5.4075648462    -1.9311046349     1.1459453784
   27      H       7.4466616125    -0.4979090125     0.6533664428
   28      H       6.8541647043    -0.8228086674    -1.0052746694
   29      H       6.8268214797     1.7942597286     0.4555692701
   30      H       6.2167230331     1.5102774432    -1.2040487916
   31      H       4.3482522514     2.0740101825     0.8261394486
   32      O      -2.6536608360    -1.4711018530     1.2711552093
   33      C      -0.8000403122     1.4049231975     2.2915861964
   34      C      -5.3157003402     1.1570267715     0.1808373420
   35      C      -6.0367264647     1.3202839492    -1.2135364150
   36      C      -5.6578097377    -0.0405275375    -1.9085409175
   37      C      -4.8235606661    -0.7486645072    -0.7683094633
   38      O      -5.4697972542    -0.2862796061     0.4805178359
   39      H      -3.5362453503     2.1502933269    -0.7441876953
   40      H      -2.9393532513     0.0556823682    -1.7059390587
   41      H       0.2316910268     1.1704222047     1.9527701457
   42      H      -5.7154648810     1.7711331973     1.0112901385
   43      H      -7.1257548022     1.4134147048    -1.0759577483
   44      H      -5.6732934627     2.1991593860    -1.7694170820
   45      H      -6.5537878899    -0.6330257204    -2.1532865022
   46      H      -5.0668474114     0.1000226442    -2.8279819476
   47      H      -4.8105241281    -1.8550708535    -0.8096832620
   48      H      -1.1236466664     0.6847567928     3.0700931136
   49      H      -0.8541342286     2.4310608602     2.7074262216
   50      H      -0.2003196018     1.8003935321    -2.3112148528
   51      H      -0.0265057334     2.1713664543    -0.5525320294
   52      H      -0.3411638240     0.4680050672    -1.0727244673
   53      H       1.1251568780    -3.5461583722    -0.0153087101
   54      H       0.2218212098    -2.9962960192    -1.4985663738
   55      H      -0.7467135342    -2.4466018956     1.0439535137
   56      H       0.4296308977    -1.0677584923     0.8868338541
 ----------------------------------------------------------------

    9   -1510.3001685989      5.78E-09 Convergence criterion met
 Total energy in the final basis set = -1510.30016860
 Final energy is   -1510.30016859887
 **  OPTIMIZATION CONVERGED  **

                    Orbital Energies (a.u.)
 --------------------------------------------------------------

 Alpha MOs
 -- Occupied --
-18.937 -18.936 -18.936 -18.933 -18.889 -18.888 -18.883 -18.879
-18.876 -18.873 -10.104 -10.104 -10.103 -10.100 -10.073 -10.062
-10.062 -10.061 -10.059 -10.058 -10.049 -10.041 -10.041 -10.040
-10.039 -10.038 -10.022 -10.022 -10.021 -10.020  -1.019  -1.015
 -1.008  -1.006  -0.972  -0.970  -0.943  -0.938  -0.936  -0.935
 -0.766  -0.764  -0.729  -0.724  -0.712  -0.707  -0.698  -0.656
 -0.655  -0.618  -0.598  -0.581  -0.548  -0.545  -0.539  -0.537
 -0.512  -0.512  -0.487  -0.474  -0.459  -0.458  -0.454  -0.453
 -0.437  -0.432  -0.429  -0.418  -0.415  -0.409  -0.401  -0.398
 -0.391  -0.383  -0.372  -0.368  -0.364  -0.362  -0.354  -0.351
 -0.342  -0.341  -0.338  -0.332  -0.331  -0.327  -0.324  -0.312
 -0.311  -0.307  -0.306  -0.302  -0.293  -0.290  -0.285  -0.275
 -0.273  -0.263  -0.254  -0.245  -0.241  -0.236  -0.234  -0.185
 -0.178  -0.174  -0.171  -0.163  -0.158  -0.153  -0.151  -0.145
 -0.144

          Ground-State Mulliken Net Atomic Charges

     Atom                 Charge (a.u.)
  ----------------------------------------
      1 O                    -0.206230
      2 C                     0.213169
      3 C                    -0.078605
      4 C                    -0.078853
      5 C                     0.216711
      6 O                    -0.175082
      7 C                    -0.063019
      8 C                    -0.053814
      9 O                    -0.174168
     10 C                     0.211170
     11 C                    -0.078306
     12 C                    -0.079154
     13 C                     0.218554
     14 O                    -0.228274
     15 O                    -0.175881
     16 O                    -0.166384
     17 O                    -0.208695
     18 C                    -0.148110
     19 C                     0.024435
     20 C                    -0.144118
     21 C                    -0.143763
     22 C                     0.025533
     23 O                    -0.186779
     24 H                     0.086000
     25 H                     0.087189
     26 H                     0.091069
     27 H                     0.078796
     28 H                     0.073252
     29 H                     0.078394
     30 H                     0.073788
     31 H                     0.083121
     32 O                    -0.212030
     33 C                    -0.140850
     34 C                     0.023933
     35 C                    -0.143716
     36 C                    -0.144164
     37 C                     0.025817
     38 O                    -0.185689
     39 H                     0.083548
     40 H                     0.084543
     41 H                     0.113462
     42 H                     0.091217
     43 H                     0.078787
     44 H                     0.072763
     45 H                     0.078406
     46 H                     0.072846
     47 H                     0.083668
     48 H                     0.088652
     49 H                     0.084330
     50 H                     0.079016
     51 H                     0.083357
     52 H                     0.113674
     53 H                     0.100017
     54 H                     0.092188
     55 H                     0.099707
     56 H                     0.104571
  ----------------------------------------
  Sum of atomic charges =    -0.000000

                    Cartesian Multipole Moments
 -----------------------------------------------------------------
    Charge (ESU x 10^10)
                -0.0000
    Dipole Moment (Debye)
         X       1.5286      Y       0.9727      Z      -4.5008
       Tot       4.8518
    Quadrupole Moments (Debye-Ang)
        XX    -152.5409     XY      -0.7355     YY    -155.9179
        XZ       6.8520     YZ       2.3699     ZZ    -167.1976

 Total job time:  193.58s(wall), 9221.52s(cpu)
        *  Thank you very much for using Q-Chem.  Have a nice day.  *
