 Q-Chem 5.0, Q-Chem, Inc., Pleasanton, CA (2017)
 Q-Chem 5.0.1 for Intel X86 EM64T Linux

User input:
--------------------------------------------------------------
$molecule
0  1
O -3.94934 -3.66094 2.70899
C -3.26408 -4.56952 2.26188
C -3.36658 -6.02376 2.66595
C -2.23243 -6.59352 3.53366
C -1.21354 -5.60112 4.04854
O -0.2561 -5.38421 3.09897
C 0.39602 -4.11724 3.23594
C 1.87916 -4.31843 3.52908
O 2.58079 -3.07416 3.37946
C 2.30863 -2.13465 4.31882
C 3.02935 -0.83055 4.07275
C 2.39887 0.06426 2.99567
C 0.98298 -0.2902 2.58787
O 0.18204 -0.90957 3.27303
O -2.31269 -4.2844 1.33994
O 0.53557 0.41181 1.51229
O 1.7021 -2.36993 5.35805
C -0.73097 0.35508 0.97903
C 2.99329 0.14827 5.27298
C 4.16611 1.12363 5.17593
C 3.73289 1.96973 3.99662
C 2.33114 1.3995 3.75326
O 1.89538 0.99122 5.02646
H 4.09833 -1.07775 3.88089
H 3.01544 0.08431 2.06992
H 3.00924 -0.35846 6.26244
H 4.13463 1.75339 6.09425
H 5.17414 0.66479 5.08583
H 3.68389 3.03151 4.32532
H 4.36628 1.87805 3.08761
H 1.68979 2.14758 3.2366
O -1.15312 -5.18081 5.19906
C -2.09174 -3.02389 0.83934
C -4.57631 -6.27001 3.59528
C -4.98768 -7.74116 3.54714
C -3.85777 -8.37144 4.32796
C -3.066 -7.12147 4.72364
O -4.05152 -6.13454 4.88994
H -3.52599 -6.59932 1.72684
H -1.68145 -7.43997 3.06534
H -1.83497 -2.34006 1.67509
H -5.45482 -5.63201 3.35394
H -5.9268 -7.84799 4.13613
H -5.14568 -8.14757 2.52499
H -4.28447 -8.85248 5.23644
H -3.24048 -9.10528 3.76609
H -2.44209 -7.34379 5.61767
H -2.99891 -2.65342 0.31581
H -1.24908 -3.06161 0.11891
H -0.81031 1.10002 0.16115
H -1.49201 0.58982 1.75341
H -0.90492 -0.6412 0.53953
H 2.04792 -4.77647 4.52909
H 2.28251 -5.01611 2.76458
H -0.06922 -3.44415 3.98937
H 0.30894 -3.59968 2.25838
$end

$opt
CONSTRAINT
tors           1           2           3           4    -107.486
tors           3           4           5           6     -84.165
tors           4           5           6           7    +155.435
tors           5           6           7           8    +116.980
tors           6           7           8           9    +167.572
tors           7           8           9          10     +69.308
tors           8           9          10          11    -177.463
tors           9          10          11          12     +78.677
tors          11          12          13          14     +23.562
ENDCONSTRAINT
$end

$rem
JOBTYPE                   OPT
METHOD                    B3LYP
DFT_D                     d3_op
BASIS                     STO-3G
GEOM_OPT_MAX_CYCLES       100
GEOM_OPT_TOL_GRADIENT     300
GEOM_OPT_TOL_DISPLACEMENT 1200
GEOM_OPT_TOL_ENERGY       100
SYMMETRY                  False
THRESH                    12
SCF_CONVERGENCE           8
MAX_SUB_FILE_NUM          128
MEM_STATIC                400
MEM_TOTAL                 4000
$end
--------------------------------------------------------------

   15   -1510.1496386781      6.80E-09 Convergence criterion met
 Total energy in the final basis set = -1510.14963868
   14   -1510.2193391339      6.33E-09 Convergence criterion met
 Total energy in the final basis set = -1510.21933913
   14   -1510.2530723000      9.80E-09 Convergence criterion met
 Total energy in the final basis set = -1510.25307230
   14   -1510.2692833379      7.87E-09 Convergence criterion met
 Total energy in the final basis set = -1510.26928334
   14   -1510.2759060646      3.39E-09 Convergence criterion met
 Total energy in the final basis set = -1510.27590606
   13   -1510.2794656739      3.23E-09 Convergence criterion met
 Total energy in the final basis set = -1510.27946567
   13   -1510.2807606284      6.57E-09 Convergence criterion met
 Total energy in the final basis set = -1510.28076063
   12   -1510.2812759907      9.43E-09 Convergence criterion met
    9   -1510.2855446017      9.91E-09 Convergence criterion met
 Total energy in the final basis set = -1510.28554460
   11   -1510.2855626706      3.01E-09 Convergence criterion met
 Total energy in the final basis set = -1510.28556267
   11   -1510.2855764998      6.84E-09 Convergence criterion met
 Total energy in the final basis set = -1510.28557650
   11   -1510.2855811378      4.69E-09 Convergence criterion met
 Total energy in the final basis set = -1510.28558114
   11   -1510.2855792651      3.67E-09 Convergence criterion met
 Total energy in the final basis set = -1510.28557927
    9   -1510.2855771463      8.55E-09 Convergence criterion met
 Total energy in the final basis set = -1510.28557715

             Standard Nuclear Orientation (Angstroms)
    I     Atom           X                Y                Z
 ----------------------------------------------------------------
    1      O      -3.2473466861     1.9338873859     1.8367610561
    2      C      -3.1390022955     1.5185658687     0.6626113782
    3      C      -4.2575226974     0.7907284031    -0.1761183334
    4      C      -3.9965700454    -0.7664253369    -0.3823213736
    5      C      -2.5112294945    -1.1799754326    -0.1224571241
    6      O      -1.7870430872    -0.9350279132    -1.3398713199
    7      C      -0.3486373022    -0.7245557115    -1.0659311886
    8      C       0.5223710451    -1.8437466327    -1.7448110151
    9      O       1.9661336767    -1.4956033219    -1.7369080691
   10      C       2.4969177929    -1.5388340060    -0.4038805413
   11      C       4.0051081890    -1.0967873260    -0.4705979962
   12      C       4.2535198916     0.4640973337    -0.5816800607
   13      C       2.9509163789     1.3267384129    -0.5986222512
   14      O       1.8261671889     1.0137545166    -0.1439212197
   15      O      -1.9402909988     1.6114887941    -0.1126945603
   16      O       3.2565061598     2.5813008138    -1.2067870952
   17      O       1.8735593189    -1.9526469604     0.5958889999
   18      C       2.0671179684     3.4654707385    -1.2085222970
   19      C       4.7325075028    -1.4215026605     0.9012982996
   20      C       6.2928016980    -1.3864001521     0.6669521267
   21      C       6.5455416880     0.1622339331     0.5447421931
   22      C       5.0850469532     0.7268692711     0.7533362961
   23      O       4.4762748829    -0.2116893214     1.7186927752
   24      H       4.4768252920    -1.6191225569    -1.3224619482
   25      H       4.8474400942     0.7208800698    -1.4766533272
   26      H       4.3392946082    -2.3199838017     1.4149168471
   27      H       6.8221350533    -1.8146974947     1.5328914849
   28      H       6.5897102023    -1.9394793884    -0.2383970174
   29      H       7.2148819153     0.5277520538     1.3397053351
   30      H       6.9657603092     0.4508516666    -0.4319252042
   31      H       5.0300759040     1.7675001630     1.1282698941
   32      O      -1.9920308090    -1.5619400825     0.9474972103
   33      C      -0.8606083412     2.2481201213     0.6833873794
   34      C      -5.5696688714     0.7307570430     0.7091980697
   35      C      -6.7700742379     0.1638194996    -0.1492505204
   36      C      -6.4561803050    -1.3793542293    -0.1450039171
   37      C      -5.0676455900    -1.3937560111     0.6060196345
   38      O      -5.2523025376    -0.3660377625     1.6560457207
   39      H      -4.3939499208     1.3052343221    -1.1444286574
   40      H      -4.2285112497    -1.0359489026    -1.4287841634
   41      H       0.1073064503     1.8246918877     0.3368217250
   42      H      -5.7779808659     1.6652123431     1.2651081615
   43      H      -7.7328918438     0.3839847357     0.3381493534
   44      H      -6.7846457861     0.5888658531    -1.1658036181
   45      H      -7.2087649900    -1.9406395252     0.4315771853
   46      H      -6.3924588103    -1.8071568664    -1.1582511450
   47      H      -4.7704496960    -2.3604893156     1.0564736295
   48      H      -1.0059672575     2.0475716467     1.7626679087
   49      H      -0.8709038171     3.3460487917     0.5259322900
   50      H       2.3647280661     4.3736505101    -1.7640197275
   51      H       1.7676831681     3.7448711374    -0.1779141445
   52      H       1.2024563858     2.9876569279    -1.7123069872
   53      H       0.3474102254    -2.8136604715    -1.2307942208
   54      H       0.2512503525    -1.9444415902    -2.8150903485
   55      H      -0.1624695995    -0.7343703287     0.0273982682
   56      H      -0.0696505881     0.2632015217    -1.4859727011
 ----------------------------------------------------------------

    9   -1510.2855765244      3.71E-09 Convergence criterion met
 Total energy in the final basis set = -1510.28557652
 Final energy is   -1510.28557652441
 **  OPTIMIZATION CONVERGED  **

                    Orbital Energies (a.u.)
 --------------------------------------------------------------

 Alpha MOs
 -- Occupied --
-18.952 -18.927 -18.924 -18.920 -18.895 -18.892 -18.880 -18.873
-18.873 -18.867 -10.116 -10.097 -10.094 -10.090 -10.077 -10.066
-10.065 -10.060 -10.056 -10.053 -10.053 -10.046 -10.040 -10.039
-10.034 -10.032 -10.024 -10.022 -10.016 -10.015  -1.027  -1.008
 -1.005  -0.998  -0.974  -0.963  -0.952  -0.934  -0.929  -0.926
 -0.768  -0.758  -0.728  -0.720  -0.713  -0.702  -0.690  -0.675
 -0.650  -0.615  -0.596  -0.579  -0.549  -0.541  -0.539  -0.532
 -0.518  -0.503  -0.480  -0.470  -0.465  -0.458  -0.454  -0.446
 -0.437  -0.432  -0.424  -0.423  -0.416  -0.410  -0.405  -0.390
 -0.384  -0.382  -0.371  -0.367  -0.361  -0.356  -0.352  -0.351
 -0.345  -0.338  -0.336  -0.332  -0.326  -0.324  -0.323  -0.315
 -0.310  -0.305  -0.304  -0.300  -0.289  -0.285  -0.280  -0.275
 -0.268  -0.264  -0.250  -0.241  -0.238  -0.237  -0.227  -0.194
 -0.180  -0.172  -0.165  -0.159  -0.152  -0.149  -0.148  -0.144
 -0.137

          Ground-State Mulliken Net Atomic Charges

     Atom                 Charge (a.u.)
  ----------------------------------------
      1 O                    -0.209526
      2 C                     0.206604
      3 C                    -0.076468
      4 C                    -0.079076
      5 C                     0.210876
      6 O                    -0.177764
      7 C                    -0.053613
      8 C                    -0.050777
      9 O                    -0.177518
     10 C                     0.213293
     11 C                    -0.080183
     12 C                    -0.078200
     13 C                     0.218058
     14 O                    -0.211695
     15 O                    -0.176064
     16 O                    -0.165670
     17 O                    -0.206755
     18 C                    -0.129254
     19 C                     0.025606
     20 C                    -0.144217
     21 C                    -0.143430
     22 C                     0.026124
     23 O                    -0.186122
     24 H                     0.085203
     25 H                     0.088605
     26 H                     0.091217
     27 H                     0.079381
     28 H                     0.073873
     29 H                     0.079270
     30 H                     0.074204
     31 H                     0.083485
     32 O                    -0.204665
     33 C                    -0.148145
     34 C                     0.025131
     35 C                    -0.145513
     36 C                    -0.142476
     37 C                     0.023775
     38 O                    -0.185937
     39 H                     0.084476
     40 H                     0.083851
     41 H                     0.106966
     42 H                     0.087971
     43 H                     0.077513
     44 H                     0.071928
     45 H                     0.077458
     46 H                     0.072059
     47 H                     0.086790
     48 H                     0.095759
     49 H                     0.072394
     50 H                     0.094681
     51 H                     0.090637
     52 H                     0.092343
     53 H                     0.088981
     54 H                     0.087266
     55 H                     0.109760
     56 H                     0.087535
  ----------------------------------------
  Sum of atomic charges =    -0.000000

                    Cartesian Multipole Moments
 -----------------------------------------------------------------
    Charge (ESU x 10^10)
                -0.0000
    Dipole Moment (Debye)
         X       2.2923      Y       1.4226      Z      -4.5480
       Tot       5.2879
    Quadrupole Moments (Debye-Ang)
        XX    -137.0199     XY       2.0264     YY    -150.9741
        XZ       7.2874     YZ       0.8558     ZZ    -169.7493

 Total job time:  117.80s(wall), 5613.33s(cpu)
        *  Thank you very much for using Q-Chem.  Have a nice day.  *
