 Q-Chem 5.0, Q-Chem, Inc., Pleasanton, CA (2017)
 Q-Chem 5.0.1 for Intel X86 EM64T Linux

User input:
--------------------------------------------------------------
$molecule
0  1
O -3.3560513809 2.2214421794 1.7621555533
C -3.1539196764 1.5772705112 0.7093488996
C -4.2588574516 0.8504049606 -0.1535480043
C -3.989372843 -0.6784298381 -0.508768044
C -2.51191853 -1.1482865124 -0.3000928786
O -1.7651712645 -0.7622469547 -1.4665914756
C -0.3255819089 -0.6615578193 -1.1451359945
C 0.5203738394 -1.8483943663 -1.7385167988
O 1.9646361608 -1.5007332083 -1.7149859125
C 2.4693540705 -1.5215805816 -0.3699256423
C 3.9917506928 -1.1329421161 -0.4270349388
C 4.2738198719 0.4170640548 -0.6019338903
C 2.9809511405 1.2959827619 -0.6018797484
O 1.8726623932 1.0062990311 -0.0940570757
O -1.8698194328 1.4252728444 0.1059588323
O 3.2659251997 2.5325931079 -1.2538094567
O 1.8190299541 -1.8983126438 0.6273155284
C 2.0737446109 3.4139061422 -1.2282909566
C 4.701746833 -1.4180671608 0.9619396731
C 6.2621274494 -1.4537406342 0.7279275963
C 6.5688922128 0.0751121504 0.5119316693
C 5.1336250845 0.7063189095 0.7085953585
O 4.4965213787 -0.1616729787 1.7211554826
H 4.457899077 -1.7010888509 -1.2519963366
H 4.848843871 0.6354573993 -1.5191379405
H 4.2735431744 -2.2752054484 1.5167674314
H 6.7756355262 -1.8450251808 1.6205072948
H 6.5403255584 -2.0718724918 -0.1404893173
H 7.2660676275 0.4606915867 1.2727868593
H 6.9805633619 0.290755562 -0.4869186908
H 5.1241817518 1.7640730263 1.036615553
O -2.0163694611 -1.696753555 0.7068363051
C -0.8268820473 2.0776711382 0.9362970478
C -5.5506977197 0.7001564206 0.7511280235
C -6.770905343 0.2191224327 -0.1296949463
C -6.4524364463 -1.3143716197 -0.2916558205
C -5.049627336 -1.400887639 0.4273586007
O -5.2108442193 -0.4831767816 1.5776603113
H -4.4381581202 1.4393399709 -1.0723156707
H -4.2350550576 -0.8442089803 -1.573432359
H -0.9206007525 1.7822086745 1.9999500293
H -5.7364252763 1.5784460494 1.3994712457
H -7.7218980175 0.3835234286 0.4011948272
H -6.8115227744 0.7463411837 -1.096481798
H -7.1923522519 -1.9358692984 0.2376852156
H -6.4082250837 -1.6349084726 -1.3448279305
H -4.744837352 -2.4073584749 0.7742244865
H -0.9057980234 3.1822818302 0.8721473496
H 0.1527623639 1.7401988699 0.533717915
H 2.3554348901 4.3225254272 -1.7911797175
H 1.7958349381 3.6919672903 -0.1912225209
H 1.1995189433 2.9320351217 -1.7118109134
H 0.3237484062 -2.7785862964 -1.1636013871
H 0.2708086113 -2.0121500754 -2.8061286897
H -0.1748457129 -0.643991204 -0.0475541741
H 0.0350516773 0.2899631625 -1.5861614849
$end

$rem
JOBTYPE                   OPT
METHOD                    B3LYP
DFT_D                     d3_op
BASIS                     STO-3G
GEOM_OPT_MAX_CYCLES       100
GEOM_OPT_TOL_GRADIENT     300
GEOM_OPT_TOL_DISPLACEMENT 1200
GEOM_OPT_TOL_ENERGY       100
SYMMETRY                  False
THRESH                    12
SCF_CONVERGENCE           8
MAX_SUB_FILE_NUM          128
MEM_STATIC                400
MEM_TOTAL                 4000
$end
--------------------------------------------------------------

   16   -1510.2863974044      4.46E-09 Convergence criterion met
 Total energy in the final basis set = -1510.28639740
   14   -1510.2850280464      9.51E-09 Convergence criterion met
 Total energy in the final basis set = -1510.28502805
   14   -1510.2869285482      3.16E-09 Convergence criterion met
 Total energy in the final basis set = -1510.28692855
   15   -1510.2835019969      2.59E-09 Convergence criterion met
 Total energy in the final basis set = -1510.28350200
   14   -1510.2864796991      6.96E-09 Convergence criterion met
 Total energy in the final basis set = -1510.28647970
   14   -1510.2868945246      8.12E-09 Convergence criterion met
 Total energy in the final basis set = -1510.28689452
   14   -1510.2862226600      6.87E-09 Convergence criterion met
 Total energy in the final basis set = -1510.28622266
   14   -1510.2873597329      4.22E-09 Convergence criterion met
   12   -1510.2923444949      5.03E-09 Convergence criterion met
 Total energy in the final basis set = -1510.29234449
   11   -1510.2923828123      7.53E-09 Convergence criterion met
 Total energy in the final basis set = -1510.29238281
   11   -1510.2923854126      2.95E-09 Convergence criterion met
 Total energy in the final basis set = -1510.29238541
   11   -1510.2923832793      1.81E-09 Convergence criterion met
 Total energy in the final basis set = -1510.29238328
    9   -1510.2923845396      6.13E-09 Convergence criterion met
 Total energy in the final basis set = -1510.29238454
    9   -1510.2923833059      5.30E-09 Convergence criterion met
 Total energy in the final basis set = -1510.29238331

             Standard Nuclear Orientation (Angstroms)
    I     Atom           X                Y                Z
 ----------------------------------------------------------------
    1      O      -2.9437104560     1.9130208543     2.0801716694
    2      C      -3.0090200429     1.6354808515     0.8634087199
    3      C      -4.1844718250     0.9006802309     0.1235761635
    4      C      -3.7222935273    -0.3691018087    -0.7119651591
    5      C      -2.1708398302    -0.5846692565    -0.6789411928
    6      O      -1.6838330331    -0.4766960494    -2.0255868529
    7      C      -0.2032600191    -0.4664410118    -2.0440595694
    8      C       0.4567626148    -1.8663536732    -1.7528384058
    9      O       1.9166125671    -1.6497903392    -1.5971963775
   10      C       2.2731787809    -1.6706301282    -0.2042579871
   11      C       3.7885863197    -1.2773113644    -0.0944325598
   12      C       4.0988479525     0.2432739836    -0.4183522733
   13      C       2.8213346576     1.1077745043    -0.6716373741
   14      O       1.6799575117     0.9335388939    -0.1790156752
   15      O      -2.0028750067     1.9639312106    -0.1016713377
   16      O       3.1652462795     2.1731408577    -1.5545557016
   17      O       1.5123180655    -2.0264019551     0.7196201976
   18      C       1.9995879406     3.0574104253    -1.7941557266
   19      C       4.3114734058    -1.3888417757     1.3984101853
   20      C       5.8872252258    -1.4547740101     1.3655109096
   21      C       6.2417673964     0.0329027878     0.9932809755
   22      C       4.8052686847     0.6880584934     0.9400731502
   23      O       4.0366169170    -0.0469594303     1.9663470772
   24      H       4.3604471653    -1.9326602962    -0.7763722430
   25      H       4.7736940532     0.3562351762    -1.2846488006
   26      H       3.8018890824    -2.1701411954     1.9949735880
   27      H       6.2823928340    -1.7266966323     2.3571958250
   28      H       6.2585294381    -2.1804072209     0.6242120204
   29      H       6.8528313270     0.5119623275     1.7746557001
   30      H       6.7710274175     0.1162123199     0.0304675523
   31      H       4.7766743453     1.7779614756     1.1346449022
   32      O      -1.4562259123    -0.8251952358     0.3175838665
   33      C      -0.8258722632     2.5793679668     0.5598306648
   34      C      -5.1665144515     0.2344491095     1.1705149630
   35      C      -6.5001097634    -0.1765819506     0.4315746166
   36      C      -6.0269000035    -1.4471823547    -0.3681266590
   37      C      -4.5058156364    -1.5220319625     0.0539891399
   38      O      -4.5139264384    -1.0645301532     1.4607985333
   39      H      -4.7005607714     1.6306440627    -0.5271135693
   40      H      -4.0379078323    -0.2911020742    -1.7668084428
   41      H      -0.9931057729     2.6044033331     1.6547725012
   42      H      -5.2887294821     0.8198102194     2.1026407039
   43      H      -7.2831481387    -0.4289700515     1.1642077177
   44      H      -6.8771863059     0.6242075406    -0.2247698302
   45      H      -6.5611293808    -2.3531726811    -0.0406059090
   46      H      -6.1511194549    -1.3370463839    -1.4573153261
   47      H      -4.0420578510    -2.5243818420    -0.0246046937
   48      H      -0.7052179496     3.6124086736     0.1779427385
   49      H       0.0785556652     1.9781490908     0.3168073671
   50      H       2.3155797019     3.7693543120    -2.5785452415
   51      H       1.7231509320     3.6173237441    -0.8779336923
   52      H       1.1155880960     2.4866534857    -2.1425380030
   53      H       0.0495508510    -2.2773232103    -0.8042034481
   54      H       0.3015645386    -2.5756257313    -2.5902839096
   55      H       0.2034070592     0.2461354168    -1.2903474458
   56      H       0.0745104675    -0.1208662948    -3.0600103501
 ----------------------------------------------------------------

    8   -1510.2923831091      9.98E-09 Convergence criterion met
 Total energy in the final basis set = -1510.29238311
 Final energy is   -1510.29238310912
 **  OPTIMIZATION CONVERGED  **

                    Orbital Energies (a.u.)
 --------------------------------------------------------------

 Alpha MOs
 -- Occupied --
-18.954 -18.922 -18.922 -18.922 -18.896 -18.891 -18.881 -18.875
-18.870 -18.863 -10.117 -10.095 -10.092 -10.089 -10.077 -10.066
-10.059 -10.056 -10.055 -10.054 -10.051 -10.046 -10.039 -10.037
-10.032 -10.029 -10.024 -10.022 -10.015 -10.014  -1.028  -1.006
 -1.003  -0.996  -0.973  -0.963  -0.952  -0.932  -0.927  -0.924
 -0.767  -0.756  -0.728  -0.718  -0.712  -0.701  -0.688  -0.675
 -0.647  -0.614  -0.596  -0.577  -0.548  -0.540  -0.539  -0.531
 -0.516  -0.502  -0.481  -0.471  -0.464  -0.458  -0.452  -0.444
 -0.436  -0.429  -0.424  -0.422  -0.420  -0.410  -0.405  -0.391
 -0.381  -0.376  -0.371  -0.368  -0.362  -0.354  -0.352  -0.350
 -0.345  -0.336  -0.334  -0.330  -0.325  -0.322  -0.319  -0.314
 -0.308  -0.305  -0.304  -0.298  -0.288  -0.283  -0.279  -0.278
 -0.266  -0.261  -0.251  -0.239  -0.237  -0.235  -0.227  -0.194
 -0.179  -0.172  -0.162  -0.155  -0.152  -0.151  -0.147  -0.140
 -0.136

          Ground-State Mulliken Net Atomic Charges

     Atom                 Charge (a.u.)
  ----------------------------------------
      1 O                    -0.209724
      2 C                     0.214922
      3 C                    -0.077809
      4 C                    -0.079671
      5 C                     0.211212
      6 O                    -0.174661
      7 C                    -0.059877
      8 C                    -0.060460
      9 O                    -0.182125
     10 C                     0.214235
     11 C                    -0.079287
     12 C                    -0.077501
     13 C                     0.220883
     14 O                    -0.210170
     15 O                    -0.176659
     16 O                    -0.163729
     17 O                    -0.199336
     18 C                    -0.129740
     19 C                     0.025282
     20 C                    -0.143684
     21 C                    -0.143767
     22 C                     0.026065
     23 O                    -0.185526
     24 H                     0.085419
     25 H                     0.088873
     26 H                     0.092914
     27 H                     0.079424
     28 H                     0.073801
     29 H                     0.079209
     30 H                     0.074075
     31 H                     0.082835
     32 O                    -0.208210
     33 C                    -0.149071
     34 C                     0.024355
     35 C                    -0.144392
     36 C                    -0.143807
     37 C                     0.025508
     38 O                    -0.185804
     39 H                     0.083291
     40 H                     0.084188
     41 H                     0.099892
     42 H                     0.090304
     43 H                     0.077526
     44 H                     0.072001
     45 H                     0.077177
     46 H                     0.072387
     47 H                     0.082796
     48 H                     0.072065
     49 H                     0.104923
     50 H                     0.094914
     51 H                     0.090644
     52 H                     0.094463
     53 H                     0.108505
     54 H                     0.080975
     55 H                     0.100905
     56 H                     0.079039
  ----------------------------------------
  Sum of atomic charges =     0.000000

                    Cartesian Multipole Moments
 -----------------------------------------------------------------
    Charge (ESU x 10^10)
                -0.0000
    Dipole Moment (Debye)
         X       2.0545      Y       1.3558      Z      -4.2018
       Tot       4.8697
    Quadrupole Moments (Debye-Ang)
        XX    -133.5003     XY      -0.3839     YY    -151.3802
        XZ       5.3672     YZ      -0.0347     ZZ    -167.9657

 Total job time:  98.38s(wall), 4686.32s(cpu)
        *  Thank you very much for using Q-Chem.  Have a nice day.  *
