 Q-Chem 5.0, Q-Chem, Inc., Pleasanton, CA (2017)
 Q-Chem 5.0.1 for Intel X86 EM64T Linux

User input:
--------------------------------------------------------------
$molecule
0  1
O -3.94934 -3.66094 2.70899
C -3.26408 -4.56952 2.26188
C -3.36658 -6.02376 2.66595
C -2.06761 -6.72831 3.09038
C -0.84188 -5.85364 3.234
O -0.2692 -5.65283 2.01042
C 0.53757 -4.47168 1.95329
C 2.01607 -4.84549 1.93273
O 2.79998 -3.71856 1.51037
C 2.90369 -2.70998 2.41101
C 3.72892 -1.55118 1.90423
C 3.00346 -0.62091 0.92108
C 1.4958 -0.76439 0.86567
O 0.79325 -1.21386 1.75952
O -2.49916 -4.32086 1.1699
O 0.90401 -0.11451 -0.17132
O 2.52485 -2.79652 3.57383
C -0.45525 -0.00288 -0.36246
C 4.11099 -0.52201 2.99709
C 5.35688 0.24987 2.56311
C 4.7887 1.09659 1.44297
C 3.30214 0.7429 1.56202
O 3.11758 0.47061 2.92934
H 4.67758 -1.97498 1.50299
H 3.38744 -0.74231 -0.1159
H 4.28192 -0.97646 3.99724
H 5.62914 0.91989 3.41037
H 6.24018 -0.36678 2.29059
H 4.96775 2.16731 1.68649
H 5.1765 0.86379 0.42745
H 2.67157 1.55592 1.13833
O -0.35083 -5.4891 4.29688
C -2.39766 -3.09236 0.55649
C -4.23718 -6.22635 3.92054
C -4.75212 -7.66464 3.9774
C -3.48805 -8.39877 4.36365
C -2.51154 -7.22595 4.48678
O -3.31201 -6.17783 4.97565
H -3.82877 -6.54066 1.79533
H -1.79201 -7.60443 2.46099
H -1.98161 -2.34614 1.26669
H -5.09364 -5.52041 3.98452
H -5.47593 -7.73995 4.82019
H -5.23724 -8.01209 3.03984
H -3.64134 -8.85654 5.36669
H -3.14707 -9.17449 3.64454
H -1.65317 -7.52444 5.12856
H -3.39466 -2.75793 0.19835
H -1.72141 -3.18629 -0.31693
H -0.64481 0.60323 -1.27184
H -0.92756 0.49947 0.50859
H -0.89817 -1.00426 -0.51315
H 2.3633 -5.27033 2.9008
H 2.14549 -5.62983 1.15677
H 0.3214 -3.73538 2.7603
H 0.29405 -3.96385 0.99715
$end

$opt
CONSTRAINT
tors           1           2           3           4    -128.202
tors           3           4           5           6     -82.361
tors           4           5           6           7    +157.067
tors           5           6           7           8    +106.626
tors           6           7           8           9    +164.218
tors           7           8           9          10     +71.907
tors           8           9          10          11    -179.503
tors           9          10          11          12     +77.904
tors          11          12          13          14     +23.559
ENDCONSTRAINT
$end

$rem
JOBTYPE                   OPT
METHOD                    B3LYP
DFT_D                     d3_op
BASIS                     STO-3G
GEOM_OPT_MAX_CYCLES       100
GEOM_OPT_TOL_GRADIENT     300
GEOM_OPT_TOL_DISPLACEMENT 1200
GEOM_OPT_TOL_ENERGY       100
SYMMETRY                  False
THRESH                    12
SCF_CONVERGENCE           8
MAX_SUB_FILE_NUM          128
MEM_STATIC                400
MEM_TOTAL                 4000
$end
--------------------------------------------------------------

   15   -1510.1521427613      6.53E-09 Convergence criterion met
 Total energy in the final basis set = -1510.15214276
   14   -1510.2215266239      6.01E-09 Convergence criterion met
 Total energy in the final basis set = -1510.22152662
   14   -1510.2575701268      8.16E-09 Convergence criterion met
 Total energy in the final basis set = -1510.25757013
   15   -1510.2702319495      2.16E-09 Convergence criterion met
 Total energy in the final basis set = -1510.27023195
   14   -1510.2769403546      6.00E-09 Convergence criterion met
 Total energy in the final basis set = -1510.27694035
   13   -1510.2781049932      6.86E-09 Convergence criterion met
 Total energy in the final basis set = -1510.27810499
   13   -1510.2800884916      3.98E-09 Convergence criterion met
 Total energy in the final basis set = -1510.28008849
   13   -1510.2806390045      8.55E-09 Convergence criterion met
   12   -1510.2861546823      2.97E-09 Convergence criterion met
 Total energy in the final basis set = -1510.28615468
   11   -1510.2862210793      8.76E-09 Convergence criterion met
 Total energy in the final basis set = -1510.28622108
   11   -1510.2862523817      7.39E-09 Convergence criterion met
 Total energy in the final basis set = -1510.28625238
   11   -1510.2862797273      6.72E-09 Convergence criterion met
 Total energy in the final basis set = -1510.28627973
   11   -1510.2862901186      3.24E-09 Convergence criterion met
 Total energy in the final basis set = -1510.28629012
   11   -1510.2862966058      2.02E-09 Convergence criterion met
 Total energy in the final basis set = -1510.28629661

             Standard Nuclear Orientation (Angstroms)
    I     Atom           X                Y                Z
 ----------------------------------------------------------------
    1      O      -3.3560513809     2.2214421794     1.7621555533
    2      C      -3.1539196764     1.5772705112     0.7093488996
    3      C      -4.2588574516     0.8504049606    -0.1535480043
    4      C      -3.9893728430    -0.6784298381    -0.5087680440
    5      C      -2.5119185300    -1.1482865124    -0.3000928786
    6      O      -1.7651712645    -0.7622469547    -1.4665914756
    7      C      -0.3255819089    -0.6615578193    -1.1451359945
    8      C       0.5203738394    -1.8483943663    -1.7385167988
    9      O       1.9646361608    -1.5007332083    -1.7149859125
   10      C       2.4693540705    -1.5215805816    -0.3699256423
   11      C       3.9917506928    -1.1329421161    -0.4270349388
   12      C       4.2738198719     0.4170640548    -0.6019338903
   13      C       2.9809511405     1.2959827619    -0.6018797484
   14      O       1.8726623932     1.0062990311    -0.0940570757
   15      O      -1.8698194328     1.4252728444     0.1059588323
   16      O       3.2659251997     2.5325931079    -1.2538094567
   17      O       1.8190299541    -1.8983126438     0.6273155284
   18      C       2.0737446109     3.4139061422    -1.2282909566
   19      C       4.7017468330    -1.4180671608     0.9619396731
   20      C       6.2621274494    -1.4537406342     0.7279275963
   21      C       6.5688922128     0.0751121504     0.5119316693
   22      C       5.1336250845     0.7063189095     0.7085953585
   23      O       4.4965213787    -0.1616729787     1.7211554826
   24      H       4.4578990770    -1.7010888509    -1.2519963366
   25      H       4.8488438710     0.6354573993    -1.5191379405
   26      H       4.2735431744    -2.2752054484     1.5167674314
   27      H       6.7756355262    -1.8450251808     1.6205072948
   28      H       6.5403255584    -2.0718724918    -0.1404893173
   29      H       7.2660676275     0.4606915867     1.2727868593
   30      H       6.9805633619     0.2907555620    -0.4869186908
   31      H       5.1241817518     1.7640730263     1.0366155530
   32      O      -2.0163694611    -1.6967535550     0.7068363051
   33      C      -0.8268820473     2.0776711382     0.9362970478
   34      C      -5.5506977197     0.7001564206     0.7511280235
   35      C      -6.7709053430     0.2191224327    -0.1296949463
   36      C      -6.4524364463    -1.3143716197    -0.2916558205
   37      C      -5.0496273360    -1.4008876390     0.4273586007
   38      O      -5.2108442193    -0.4831767816     1.5776603113
   39      H      -4.4381581202     1.4393399709    -1.0723156707
   40      H      -4.2350550576    -0.8442089803    -1.5734323590
   41      H      -0.9206007525     1.7822086745     1.9999500293
   42      H      -5.7364252763     1.5784460494     1.3994712457
   43      H      -7.7218980175     0.3835234286     0.4011948272
   44      H      -6.8115227744     0.7463411837    -1.0964817980
   45      H      -7.1923522519    -1.9358692984     0.2376852156
   46      H      -6.4082250837    -1.6349084726    -1.3448279305
   47      H      -4.7448373520    -2.4073584749     0.7742244865
   48      H      -0.9057980234     3.1822818302     0.8721473496
   49      H       0.1527623639     1.7401988699     0.5337179150
   50      H       2.3554348901     4.3225254272    -1.7911797175
   51      H       1.7958349381     3.6919672903    -0.1912225209
   52      H       1.1995189433     2.9320351217    -1.7118109134
   53      H       0.3237484062    -2.7785862964    -1.1636013871
   54      H       0.2708086113    -2.0121500754    -2.8061286897
   55      H      -0.1748457129    -0.6439912040    -0.0475541741
   56      H       0.0350516773     0.2899631625    -1.5861614849
 ----------------------------------------------------------------

    9   -1510.2862974581      8.31E-09 Convergence criterion met
 Total energy in the final basis set = -1510.28629746
 Final energy is   -1510.28629745815
 **  OPTIMIZATION CONVERGED  **

                    Orbital Energies (a.u.)
 --------------------------------------------------------------

 Alpha MOs
 -- Occupied --
-18.953 -18.927 -18.926 -18.919 -18.894 -18.892 -18.879 -18.872
-18.870 -18.867 -10.116 -10.097 -10.092 -10.092 -10.077 -10.066
-10.064 -10.060 -10.055 -10.053 -10.051 -10.046 -10.044 -10.039
-10.034 -10.031 -10.024 -10.022 -10.016 -10.014  -1.028  -1.007
 -1.005  -0.997  -0.974  -0.963  -0.952  -0.933  -0.928  -0.926
 -0.768  -0.757  -0.728  -0.719  -0.713  -0.701  -0.689  -0.674
 -0.651  -0.615  -0.597  -0.579  -0.549  -0.541  -0.538  -0.532
 -0.517  -0.503  -0.481  -0.473  -0.466  -0.458  -0.453  -0.443
 -0.437  -0.430  -0.424  -0.422  -0.416  -0.410  -0.403  -0.388
 -0.387  -0.383  -0.372  -0.369  -0.360  -0.357  -0.351  -0.350
 -0.344  -0.337  -0.334  -0.331  -0.326  -0.324  -0.323  -0.315
 -0.309  -0.305  -0.304  -0.300  -0.288  -0.284  -0.279  -0.277
 -0.268  -0.264  -0.250  -0.242  -0.238  -0.237  -0.227  -0.194
 -0.181  -0.171  -0.168  -0.157  -0.151  -0.149  -0.148  -0.143
 -0.137

          Ground-State Mulliken Net Atomic Charges

     Atom                 Charge (a.u.)
  ----------------------------------------
      1 O                    -0.212779
      2 C                     0.208528
      3 C                    -0.076503
      4 C                    -0.079881
      5 C                     0.213380
      6 O                    -0.176582
      7 C                    -0.051743
      8 C                    -0.052130
      9 O                    -0.178400
     10 C                     0.212834
     11 C                    -0.080298
     12 C                    -0.077925
     13 C                     0.217883
     14 O                    -0.212005
     15 O                    -0.174014
     16 O                    -0.165247
     17 O                    -0.207057
     18 C                    -0.129020
     19 C                     0.025499
     20 C                    -0.143917
     21 C                    -0.143605
     22 C                     0.025892
     23 O                    -0.186662
     24 H                     0.085402
     25 H                     0.088606
     26 H                     0.091490
     27 H                     0.079383
     28 H                     0.074008
     29 H                     0.079201
     30 H                     0.074210
     31 H                     0.083283
     32 O                    -0.207388
     33 C                    -0.142817
     34 C                     0.023680
     35 C                    -0.145433
     36 C                    -0.142794
     37 C                     0.023872
     38 O                    -0.188645
     39 H                     0.083440
     40 H                     0.083029
     41 H                     0.091259
     42 H                     0.090457
     43 H                     0.077521
     44 H                     0.071799
     45 H                     0.077288
     46 H                     0.071921
     47 H                     0.086621
     48 H                     0.076295
     49 H                     0.108924
     50 H                     0.094771
     51 H                     0.090903
     52 H                     0.091945
     53 H                     0.090975
     54 H                     0.086630
     55 H                     0.109135
     56 H                     0.084781
  ----------------------------------------
  Sum of atomic charges =    -0.000000

                    Cartesian Multipole Moments
 -----------------------------------------------------------------
    Charge (ESU x 10^10)
                -0.0000
    Dipole Moment (Debye)
         X       2.4069      Y       1.3910      Z      -4.3620
       Tot       5.1725
    Quadrupole Moments (Debye-Ang)
        XX    -137.8025     XY       1.5352     YY    -152.5506
        XZ       7.3276     YZ       0.6716     ZZ    -168.3881

 Total job time:  75.01s(wall), 3573.10s(cpu)
        *  Thank you very much for using Q-Chem.  Have a nice day.  *
