 Q-Chem 5.0, Q-Chem, Inc., Pleasanton, CA (2017)
 Q-Chem 5.0.1 for Intel X86 EM64T Linux

User input:
--------------------------------------------------------------
$molecule
0  1
O -3.94934 -3.66094 2.70899
C -3.26408 -4.56952 2.26188
C -3.36658 -6.02376 2.66595
C -2.06761 -6.72831 3.09038
C -0.84188 -5.85364 3.234
O -0.49896 -5.33227 2.01909
C 0.27657 -4.13322 2.1195
C 1.62735 -4.32221 1.43699
O 1.91096 -3.19547 0.59265
C 2.21987 -2.04466 1.24023
C 2.49553 -0.89592 0.29945
C 1.24546 -0.23984 -0.30484
C -0.06864 -0.57321 0.37244
O -0.1901 -1.01016 1.50773
O -2.65093 -4.38291 1.06493
O -1.15236 -0.01505 -0.23346
O 2.41717 -1.97982 2.44847
C -2.28043 0.44645 0.41714
C 3.13064 0.34204 0.98048
C 3.88368 1.16995 -0.06045
C 2.72856 1.73705 -0.85961
C 1.54665 1.24012 -0.01943
O 2.04984 1.18571 1.29257
H 3.22214 -1.26273 -0.4609
H 1.13265 -0.49583 -1.38135
H 3.81222 0.08792 1.82126
H 4.3762 2.00337 0.49067
H 4.64956 0.62635 -0.65433
H 2.79944 2.84716 -0.83984
H 2.6534 1.37565 -1.90827
H 0.65904 1.89287 -0.17258
O -0.2612 -5.62091 4.28872
C -2.7094 -3.22657 0.32538
C -4.2155 -6.22752 3.94011
C -4.75601 -7.65637 3.9872
C -3.49408 -8.42416 4.3134
C -2.49922 -7.26983 4.46816
O -3.27705 -6.21946 4.98706
H -3.85993 -6.54639 1.81539
H -1.78824 -7.55549 2.40024
H -2.27967 -2.40876 0.91957
H -5.05886 -5.50911 4.03277
H -5.44521 -7.72383 4.85945
H -5.29069 -7.98585 3.07046
H -3.63827 -8.93785 5.29013
H -3.1703 -9.15779 3.54375
H -1.63742 -7.59672 5.09064
H -3.76085 -2.99301 0.05392
H -2.1126 -3.35276 -0.60107
H -2.99599 0.83767 -0.33469
H -2.00228 1.2739 1.10362
H -2.78288 -0.34333 1.00165
H 2.44735 -4.59606 2.13662
H 1.51974 -5.17019 0.72674
H 0.3847 -3.66314 3.12306
H -0.2914 -3.41282 1.51481
$end

$opt
CONSTRAINT
tors           1           2           3           4    -128.202
tors           3           4           5           6     -64.696
tors           4           5           6           7    +157.067
tors           5           6           7           8    +120.462
tors           6           7           8           9    +133.311
tors           7           8           9          10     +71.907
tors           8           9          10          11    -179.503
tors           9          10          11          12     +77.904
tors          11          12          13          14     +19.765
ENDCONSTRAINT
$end

$rem
JOBTYPE                   OPT
METHOD                    B3LYP
DFT_D                     d3_op
BASIS                     STO-3G
GEOM_OPT_MAX_CYCLES       100
GEOM_OPT_TOL_GRADIENT     300
GEOM_OPT_TOL_DISPLACEMENT 1200
GEOM_OPT_TOL_ENERGY       100
SYMMETRY                  False
THRESH                    12
SCF_CONVERGENCE           8
MAX_SUB_FILE_NUM          128
MEM_STATIC                400
MEM_TOTAL                 4000
$end
--------------------------------------------------------------

   15   -1510.1419505420      7.60E-09 Convergence criterion met
 Total energy in the final basis set = -1510.14195054
   14   -1510.2113125027      6.72E-09 Convergence criterion met
 Total energy in the final basis set = -1510.21131250
   15   -1510.2473683227      1.53E-09 Convergence criterion met
 Total energy in the final basis set = -1510.24736832
   14   -1510.2604403032      3.98E-09 Convergence criterion met
 Total energy in the final basis set = -1510.26044030
   14   -1510.2690607301      6.96E-09 Convergence criterion met
 Total energy in the final basis set = -1510.26906073
   13   -1510.2712649618      5.72E-09 Convergence criterion met
 Total energy in the final basis set = -1510.27126496
   13   -1510.2733590904      6.50E-09 Convergence criterion met
 Total energy in the final basis set = -1510.27335909
   13   -1510.2738889688      6.01E-09 Convergence criterion met
   11   -1510.2777641923      1.66E-09 Convergence criterion met
 Total energy in the final basis set = -1510.27776419
   10   -1510.2777681103      6.29E-09 Convergence criterion met
 Total energy in the final basis set = -1510.27776811
    9   -1510.2777704376      7.26E-09 Convergence criterion met
 Total energy in the final basis set = -1510.27777044
    9   -1510.2777729033      5.91E-09 Convergence criterion met
 Total energy in the final basis set = -1510.27777290
    9   -1510.2777752036      4.88E-09 Convergence criterion met
 Total energy in the final basis set = -1510.27777520
    9   -1510.2777763944      6.82E-09 Convergence criterion met
 Total energy in the final basis set = -1510.27777639

             Standard Nuclear Orientation (Angstroms)
    I     Atom           X                Y                Z
 ----------------------------------------------------------------
    1      O       2.5399822607     2.3402777934    -0.7815354244
    2      C       2.8563308473     1.5631055297     0.1464671732
    3      C       4.1964490963     0.7540186715     0.2794818170
    4      C       4.1341684400    -0.8152476185     0.5418517895
    5      C       2.7624069794    -1.5126505233     0.2052576301
    6      O       1.7306089568    -1.0240927368     1.0668512548
    7      C       0.3971632198    -1.2196548494     0.4489086611
    8      C      -0.5055692912    -2.1276589018     1.3671630693
    9      O      -1.8678238343    -1.5575412056     1.5361838062
   10      C      -2.5967777329    -1.6991982113     0.3127100275
   11      C      -4.0332737815    -1.0861927558     0.4833393640
   12      C      -4.1552884925     0.4913661088     0.4177677212
   13      C      -2.8336841384     1.3298511802     0.3529318914
   14      O      -1.6757473045     0.9882045744     0.0185132453
   15      O       2.1475167618     1.4673405495     1.3835790839
   16      O      -3.2236477554     2.6698653866     0.6658861890
   17      O      -2.1483421691    -2.2685056196    -0.7056854425
   18      C      -2.1035551628     3.6245026657     0.5110349444
   19      C      -4.9219779209    -1.5022320599    -0.7638849688
   20      C      -6.4425813185    -1.2487634096    -0.4236773456
   21      C      -6.5275189696     0.3176624996    -0.5523100288
   22      C      -5.0297208663     0.6707862453    -0.9088143215
   23      O      -4.6024805843    -0.4551746134    -1.7627907394
   24      H      -4.4538600427    -1.4575061593     1.4354276277
   25      H      -4.7190007018     0.8680183069     1.2899781323
   26      H      -4.6788158009    -2.5028617024    -1.1700088642
   27      H      -7.0919105185    -1.7510748573    -1.1579832257
   28      H      -6.7050959697    -1.6074131758     0.5844076426
   29      H      -7.1967923487     0.6205870092    -1.3734477252
   30      H      -6.8623263153     0.8074454519     0.3758498582
   31      H      -4.8816983963     1.6383002751    -1.4269448440
   32      O       2.5691279650    -2.3289685612    -0.7231833324
   33      C       0.9246459470     2.3014825549     1.3491021135
   34      C       5.0976715624     0.8129259751    -1.0268891382
   35      C       6.6027321879     0.6811308707    -0.5739665294
   36      C       6.6404047224    -0.8267677847    -0.1235350308
   37      C       5.1918983549    -1.3111839925    -0.5293163394
   38      O       4.8449458589    -0.4779645848    -1.7063038899
   39      H       4.7333337736     1.2191958393     1.1278651288
   40      H       4.4219664567    -1.0479173962     1.5833960405
   41      H       0.1163111913     1.8295179675     0.7473068782
   42      H       4.8598246567     1.6620304609    -1.6973483990
   43      H       7.2757201259     0.8617336465    -1.4275119150
   44      H       6.8646744639     1.3787395371     0.2374404660
   45      H       7.4082857278    -1.3961993605    -0.6704330171
   46      H       6.8213290458    -0.9394016235     0.9575633732
   47      H       5.0964934848    -2.3850164923    -0.7809110887
   48      H       1.1352987158     3.3093939952     0.9383790726
   49      H       0.5902564122     2.3866074844     2.3995551134
   50      H      -2.5629602276     4.6193337731     0.3614096999
   51      H      -1.4642218831     3.3703150177    -0.3575605607
   52      H      -1.4761053399     3.6496699142     1.4244597029
   53      H      -0.5604274474    -3.1615934345     0.9664650425
   54      H      -0.0777753819    -2.1541575808     2.3903133277
   55      H       0.5154679494    -1.6857160837    -0.5505047457
   56      H      -0.1002382893    -0.2312974733     0.3429661808
 ----------------------------------------------------------------

    9   -1510.2777771142      4.60E-09 Convergence criterion met
 Total energy in the final basis set = -1510.27777711
 Final energy is   -1510.27777711422
 **  OPTIMIZATION CONVERGED  **

                    Orbital Energies (a.u.)
 --------------------------------------------------------------

 Alpha MOs
 -- Occupied --
-18.949 -18.929 -18.928 -18.922 -18.897 -18.892 -18.879 -18.872
-18.870 -18.868 -10.117 -10.097 -10.093 -10.092 -10.074 -10.066
-10.063 -10.060 -10.052 -10.051 -10.051 -10.049 -10.046 -10.040
-10.034 -10.032 -10.024 -10.022 -10.015 -10.014  -1.026  -1.009
 -1.006  -1.000  -0.975  -0.963  -0.952  -0.934  -0.930  -0.926
 -0.768  -0.757  -0.727  -0.719  -0.713  -0.700  -0.691  -0.674
 -0.656  -0.614  -0.597  -0.579  -0.548  -0.540  -0.539  -0.531
 -0.519  -0.504  -0.479  -0.472  -0.463  -0.457  -0.453  -0.445
 -0.436  -0.429  -0.424  -0.422  -0.415  -0.411  -0.404  -0.399
 -0.386  -0.379  -0.373  -0.365  -0.362  -0.359  -0.351  -0.347
 -0.346  -0.340  -0.336  -0.330  -0.328  -0.325  -0.323  -0.316
 -0.310  -0.306  -0.304  -0.300  -0.290  -0.285  -0.278  -0.273
 -0.268  -0.262  -0.249  -0.247  -0.238  -0.233  -0.227  -0.192
 -0.181  -0.175  -0.169  -0.154  -0.151  -0.149  -0.148  -0.144
 -0.137

          Ground-State Mulliken Net Atomic Charges

     Atom                 Charge (a.u.)
  ----------------------------------------
      1 O                    -0.215927
      2 C                     0.207689
      3 C                    -0.079382
      4 C                    -0.075905
      5 C                     0.208592
      6 O                    -0.173233
      7 C                    -0.065682
      8 C                    -0.050855
      9 O                    -0.173869
     10 C                     0.210585
     11 C                    -0.080527
     12 C                    -0.077968
     13 C                     0.219571
     14 O                    -0.212266
     15 O                    -0.163848
     16 O                    -0.168591
     17 O                    -0.209769
     18 C                    -0.131246
     19 C                     0.025983
     20 C                    -0.144881
     21 C                    -0.142932
     22 C                     0.026690
     23 O                    -0.186028
     24 H                     0.084816
     25 H                     0.088721
     26 H                     0.090737
     27 H                     0.079335
     28 H                     0.073666
     29 H                     0.079278
     30 H                     0.074310
     31 H                     0.084613
     32 O                    -0.209169
     33 C                    -0.138052
     34 C                     0.022341
     35 C                    -0.142740
     36 C                    -0.145710
     37 C                     0.024408
     38 O                    -0.188859
     39 H                     0.083295
     40 H                     0.083954
     41 H                     0.097932
     42 H                     0.089631
     43 H                     0.077414
     44 H                     0.071636
     45 H                     0.077493
     46 H                     0.071752
     47 H                     0.089061
     48 H                     0.084633
     49 H                     0.083124
     50 H                     0.093497
     51 H                     0.097842
     52 H                     0.087365
     53 H                     0.089645
     54 H                     0.090582
     55 H                     0.102951
     56 H                     0.104298
  ----------------------------------------
  Sum of atomic charges =    -0.000000

                    Cartesian Multipole Moments
 -----------------------------------------------------------------
    Charge (ESU x 10^10)
                 0.0000
    Dipole Moment (Debye)
         X      -1.8954      Y       2.0354      Z       3.9921
       Tot       4.8654
    Quadrupole Moments (Debye-Ang)
        XX    -134.1845     XY      -0.6625     YY    -154.2463
        XZ       3.0419     YZ      -3.1861     ZZ    -167.7013

 Total job time:  82.28s(wall), 3919.64s(cpu)
        *  Thank you very much for using Q-Chem.  Have a nice day.  *
