 Q-Chem 5.0, Q-Chem, Inc., Pleasanton, CA (2017)
 Q-Chem 5.0.1 for Intel X86 EM64T Linux

User input:
--------------------------------------------------------------
$molecule
0  1
O 2.5399822607 2.3402777934 -0.7815354244
C 2.8563308473 1.5631055297 0.1464671732
C 4.1964490963 0.7540186715 0.279481817
C 4.13416844 -0.8152476185 0.5418517895
C 2.7624069794 -1.5126505233 0.2052576301
O 1.7306089568 -1.0240927368 1.0668512548
C 0.3971632198 -1.2196548494 0.4489086611
C -0.5055692912 -2.1276589018 1.3671630693
O -1.8678238343 -1.5575412056 1.5361838062
C -2.5967777329 -1.6991982113 0.3127100275
C -4.0332737815 -1.0861927558 0.483339364
C -4.1552884925 0.4913661088 0.4177677212
C -2.8336841384 1.3298511802 0.3529318914
O -1.6757473045 0.9882045744 0.0185132453
O 2.1475167618 1.4673405495 1.3835790839
O -3.2236477554 2.6698653866 0.665886189
O -2.1483421691 -2.2685056196 -0.7056854425
C -2.1035551628 3.6245026657 0.5110349444
C -4.9219779209 -1.5022320599 -0.7638849688
C -6.4425813185 -1.2487634096 -0.4236773456
C -6.5275189696 0.3176624996 -0.5523100288
C -5.0297208663 0.6707862453 -0.9088143215
O -4.6024805843 -0.4551746134 -1.7627907394
H -4.4538600427 -1.4575061593 1.4354276277
H -4.7190007018 0.8680183069 1.2899781323
H -4.6788158009 -2.5028617024 -1.1700088642
H -7.0919105185 -1.7510748573 -1.1579832257
H -6.7050959697 -1.6074131758 0.5844076426
H -7.1967923487 0.6205870092 -1.3734477252
H -6.8623263153 0.8074454519 0.3758498582
H -4.8816983963 1.6383002751 -1.426944844
O 2.569127965 -2.3289685612 -0.7231833324
C 0.924645947 2.3014825549 1.3491021135
C 5.0976715624 0.8129259751 -1.0268891382
C 6.6027321879 0.6811308707 -0.5739665294
C 6.6404047224 -0.8267677847 -0.1235350308
C 5.1918983549 -1.3111839925 -0.5293163394
O 4.8449458589 -0.4779645848 -1.7063038899
H 4.7333337736 1.2191958393 1.1278651288
H 4.4219664567 -1.0479173962 1.5833960405
H 0.1163111913 1.8295179675 0.7473068782
H 4.8598246567 1.6620304609 -1.697348399
H 7.2757201259 0.8617336465 -1.427511915
H 6.8646744639 1.3787395371 0.237440466
H 7.4082857278 -1.3961993605 -0.6704330171
H 6.8213290458 -0.9394016235 0.9575633732
H 5.0964934848 -2.3850164923 -0.7809110887
H 1.1352987158 3.3093939952 0.9383790726
H 0.5902564122 2.3866074844 2.3995551134
H -2.5629602276 4.6193337731 0.3614096999
H -1.4642218831 3.3703150177 -0.3575605607
H -1.4761053399 3.6496699142 1.4244597029
H -0.5604274474 -3.1615934345 0.9664650425
H -0.0777753819 -2.1541575808 2.3903133277
H 0.5154679494 -1.6857160837 -0.5505047457
H -0.1002382893 -0.2312974733 0.3429661808
$end

$rem
JOBTYPE                   OPT
METHOD                    B3LYP
DFT_D                     d3_op
BASIS                     STO-3G
GEOM_OPT_MAX_CYCLES       100
GEOM_OPT_TOL_GRADIENT     300
GEOM_OPT_TOL_DISPLACEMENT 1200
GEOM_OPT_TOL_ENERGY       100
SYMMETRY                  False
THRESH                    12
SCF_CONVERGENCE           8
MAX_SUB_FILE_NUM          128
MEM_STATIC                400
MEM_TOTAL                 4000
$end
--------------------------------------------------------------

   15   -1510.2779040117      9.58E-09 Convergence criterion met
 Total energy in the final basis set = -1510.27790401
   14   -1510.2797947402      1.88E-09 Convergence criterion met
 Total energy in the final basis set = -1510.27979474
   13   -1510.2809202250      5.68E-09 Convergence criterion met
 Total energy in the final basis set = -1510.28092022
   14   -1510.2828395029      2.30E-09 Convergence criterion met
 Total energy in the final basis set = -1510.28283950
   13   -1510.2840361495      3.91E-09 Convergence criterion met
 Total energy in the final basis set = -1510.28403615
   14   -1510.2848598192      2.73E-09 Convergence criterion met
 Total energy in the final basis set = -1510.28485982
   13   -1510.2860645753      3.98E-09 Convergence criterion met
 Total energy in the final basis set = -1510.28606458
   13   -1510.2870240752      6.52E-09 Convergence criterion met
   12   -1510.3041365140      4.18E-09 Convergence criterion met
 Total energy in the final basis set = -1510.30413651
   11   -1510.3041582491      2.68E-09 Convergence criterion met
 Total energy in the final basis set = -1510.30415825
   12   -1510.3041700092      2.82E-09 Convergence criterion met
 Total energy in the final basis set = -1510.30417001
   11   -1510.3041704622      3.17E-09 Convergence criterion met
 Total energy in the final basis set = -1510.30417046
    9   -1510.3041722607      6.43E-09 Convergence criterion met
 Total energy in the final basis set = -1510.30417226
    9   -1510.3041734457      3.93E-09 Convergence criterion met
 Total energy in the final basis set = -1510.30417345

             Standard Nuclear Orientation (Angstroms)
    I     Atom           X                Y                Z
 ----------------------------------------------------------------
    1      O      -1.5181382799     1.3472446069     0.5910404161
    2      C      -2.0026872742     1.0241014939    -0.5176407767
    3      C      -3.5149623796     0.7257177285    -0.8184950549
    4      C      -3.9972122705    -0.6972033119    -0.3043468873
    5      C      -2.9031805103    -1.5134621204     0.4735791220
    6      O      -1.6602736275    -1.3855097641    -0.2223573480
    7      C      -0.5611346585    -2.0476862515     0.5237891983
    8      C       0.4516279139    -2.6453814053    -0.5087543279
    9      O       1.3833754244    -1.5982261439    -0.9944283599
   10      C       2.6584641402    -1.7354635118    -0.3224378883
   11      C       3.6140465810    -0.5899177440    -0.8174338151
   12      C       3.3955111130     0.8024850258    -0.0991720494
   13      C       2.2544336283     0.7569229901     0.9695875816
   14      O       1.7060231731    -0.2763535936     1.4249079394
   15      O      -1.2936068114     0.9623558842    -1.7533504065
   16      O       1.9310899663     2.0824821079     1.3535545314
   17      O       2.9607573870    -2.7157803632     0.3901970285
   18      C       0.7767582811     2.0799176343     2.2926674498
   19      C       5.1151215868    -0.9040997149    -0.4150462056
   20      C       6.0674870809     0.0244651148    -1.2649412338
   21      C       5.8489514835     1.4128712074    -0.5570799731
   22      C       4.8207295637     1.0188774673     0.5761476218
   23      O       5.2236807855    -0.3525692496     0.9561718891
   24      H       3.4880403094    -0.4885237904    -1.9103756945
   25      H       3.1696523167     1.6082483282    -0.8195390829
   26      H       5.3655628950    -1.9824864908    -0.4153072552
   27      H       7.1123000541    -0.3133362911    -1.1775209163
   28      H       5.7895142298     0.0405291598    -2.3308702599
   29      H       6.7829469096     1.7927849150    -0.1134671828
   30      H       5.4421097524     2.1791192151    -1.2360307072
   31      H       4.8101149552     1.6862556682     1.4597752581
   32      O      -3.0680730073    -2.1903163482     1.5111335422
   33      C       0.1692390072     1.0882450240    -1.5440615263
   34      C      -4.4826906971     1.6758219634     0.0093324172
   35      C      -5.9184397592     1.6152872650    -0.6459012247
   36      C      -6.4071429360     0.1943880925    -0.1744670335
   37      C      -5.1690874252    -0.2870328504     0.6778642720
   38      O      -4.6600500701     0.9613230311     1.2940107293
   39      H      -3.6701858890     0.8236657665    -1.9070571044
   40      H      -4.3600185566    -1.3157803530    -1.1462868449
   41      H       0.6151591034     0.0909797530    -1.3004300872
   42      H      -4.0841693878     2.6934958098     0.1862506096
   43      H      -6.5581869584     2.4157063210    -0.2413363978
   44      H      -5.8820699982     1.7124239161    -1.7428033184
   45      H      -7.3062797983     0.2656234134     0.4579469272
   46      H      -6.6212280302    -0.4833137132    -1.0166233518
   47      H      -5.3797790844    -1.0465417005     1.4559024664
   48      H       0.3982737873     1.8102971655    -0.7360320938
   49      H       0.5875719319     1.4559336101    -2.4990275714
   50      H       0.9545613358     1.3945458871     3.1445457399
   51      H      -0.1500683051     1.7803220536     1.7465435938
   52      H       0.6885764926     3.1181141713     2.6599109954
   53      H       1.0580152520    -3.4379547490    -0.0179570018
   54      H      -0.0845859050    -3.0539703027    -1.3896435623
   55      H      -0.9879970149    -2.8375773391     1.1782969369
   56      H      -0.0227674706    -1.2966741869     1.1497193540
 ----------------------------------------------------------------

    9   -1510.3041737725      3.30E-09 Convergence criterion met
 Total energy in the final basis set = -1510.30417377
 Final energy is   -1510.30417377249
 **  OPTIMIZATION CONVERGED  **

                    Orbital Energies (a.u.)
 --------------------------------------------------------------

 Alpha MOs
 -- Occupied --
-18.941 -18.935 -18.932 -18.928 -18.891 -18.885 -18.884 -18.879
-18.876 -18.867 -10.108 -10.102 -10.102 -10.101 -10.067 -10.064
-10.061 -10.060 -10.058 -10.057 -10.044 -10.043 -10.042 -10.040
-10.038 -10.034 -10.023 -10.022 -10.020 -10.019  -1.020  -1.015
 -1.008  -1.002  -0.973  -0.968  -0.942  -0.941  -0.934  -0.931
 -0.767  -0.762  -0.728  -0.723  -0.712  -0.705  -0.697  -0.657
 -0.655  -0.614  -0.597  -0.579  -0.549  -0.543  -0.539  -0.535
 -0.513  -0.509  -0.487  -0.471  -0.461  -0.458  -0.455  -0.448
 -0.435  -0.432  -0.429  -0.424  -0.413  -0.407  -0.404  -0.400
 -0.395  -0.380  -0.371  -0.365  -0.362  -0.358  -0.355  -0.350
 -0.342  -0.339  -0.337  -0.329  -0.329  -0.328  -0.325  -0.314
 -0.309  -0.307  -0.305  -0.302  -0.298  -0.286  -0.282  -0.277
 -0.269  -0.257  -0.254  -0.244  -0.239  -0.237  -0.233  -0.184
 -0.181  -0.171  -0.165  -0.162  -0.159  -0.154  -0.148  -0.147
 -0.142

          Ground-State Mulliken Net Atomic Charges

     Atom                 Charge (a.u.)
  ----------------------------------------
      1 O                    -0.229070
      2 C                     0.223844
      3 C                    -0.079684
      4 C                    -0.077925
      5 C                     0.213598
      6 O                    -0.174595
      7 C                    -0.061812
      8 C                    -0.054220
      9 O                    -0.179068
     10 C                     0.220007
     11 C                    -0.081291
     12 C                    -0.079190
     13 C                     0.217289
     14 O                    -0.213657
     15 O                    -0.169172
     16 O                    -0.169616
     17 O                    -0.210369
     18 C                    -0.148293
     19 C                     0.025813
     20 C                    -0.144246
     21 C                    -0.143507
     22 C                     0.025659
     23 O                    -0.187168
     24 H                     0.085102
     25 H                     0.086713
     26 H                     0.089848
     27 H                     0.079127
     28 H                     0.073440
     29 H                     0.079149
     30 H                     0.073968
     31 H                     0.086231
     32 O                    -0.209316
     33 C                    -0.150033
     34 C                     0.025213
     35 C                    -0.143769
     36 C                    -0.144218
     37 C                     0.023762
     38 O                    -0.187873
     39 H                     0.085523
     40 H                     0.085026
     41 H                     0.106512
     42 H                     0.083639
     43 H                     0.077780
     44 H                     0.073164
     45 H                     0.078302
     46 H                     0.072806
     47 H                     0.090750
     48 H                     0.084124
     49 H                     0.078846
     50 H                     0.086762
     51 H                     0.120986
     52 H                     0.085135
     53 H                     0.104288
     54 H                     0.088571
     55 H                     0.097819
     56 H                     0.109297
  ----------------------------------------
  Sum of atomic charges =    -0.000000

                    Cartesian Multipole Moments
 -----------------------------------------------------------------
    Charge (ESU x 10^10)
                -0.0000
    Dipole Moment (Debye)
         X      -0.0599      Y       1.5247      Z      -3.7904
       Tot       4.0860
    Quadrupole Moments (Debye-Ang)
        XX    -148.0967     XY       6.3789     YY    -159.1155
        XZ      -0.3283     YZ       4.4663     ZZ    -163.5214

 Total job time:  148.99s(wall), 7107.32s(cpu)
        *  Thank you very much for using Q-Chem.  Have a nice day.  *
