 Q-Chem 5.0, Q-Chem, Inc., Pleasanton, CA (2017)
 Q-Chem 5.0.1 for Intel X86 EM64T Linux

User input:
--------------------------------------------------------------
$molecule
0  1
O -3.94934 -3.66094 2.70899
C -3.26408 -4.56952 2.26188
C -3.36658 -6.02376 2.66595
C -2.06761 -6.72831 3.09038
C -0.84188 -5.85364 3.234
O -0.01412 -6.03532 2.1629
C 0.5174 -4.81002 1.64777
C 2.03391 -4.90811 1.51854
O 2.55327 -3.70734 0.92582
C 2.43237 -2.58592 1.67877
C 2.9929 -1.35856 1.00049
C 2.09098 -0.74868 -0.0825
C 0.64963 -1.21686 -0.08277
O 0.05126 -1.66964 0.88237
O -2.49799 -4.35308 1.17586
O -0.04288 -0.6887 -1.13203
O 2.10853 -2.59125 2.86147
C -1.39607 -0.72492 -1.37345
C 3.14726 -0.13221 1.93357
C 4.20403 0.8151 1.36649
C 3.47369 1.36124 0.15742
C 2.09458 0.72438 0.362
O 1.96718 0.61107 1.75787
H 4.00961 -1.62582 0.63232
H 2.49814 -0.92357 -1.10306
H 3.40752 -0.39784 2.98126
H 4.32699 1.63767 2.10754
H 5.19792 0.36452 1.15692
H 3.42232 2.46885 0.24916
H 3.90499 1.07729 -0.82706
H 1.31078 1.32586 -0.14921
O -0.76441 -4.92401 4.02985
C -2.52919 -3.21211 0.4265
C -4.21713 -6.23841 3.93549
C -4.73328 -7.67724 3.98596
C -3.46306 -8.4221 4.33917
C -2.4828 -7.25398 4.47484
O -3.27872 -6.21007 4.98356
H -3.84132 -6.54326 1.80316
H -1.82013 -7.56342 2.39486
H -2.31195 -2.32947 1.06144
H -5.07063 -5.53123 4.02059
H -5.43762 -7.75605 4.84483
H -5.24291 -8.01711 3.05874
H -3.60437 -8.90773 5.33058
H -3.12982 -9.17621 3.59378
H -1.60831 -7.55164 5.09496
H -3.52684 -3.09141 -0.04679
H -1.76161 -3.33384 -0.35629
H -1.62115 -0.03244 -2.21003
H -1.96503 -0.38962 -0.48094
H -1.69968 -1.72576 -1.72157
H 2.50694 -5.09475 2.50863
H 2.2791 -5.76598 0.85692
H 0.20931 -3.90768 2.21336
H 0.11915 -4.67616 0.62018
$end

$opt
CONSTRAINT
tors           1           2           3           4    -128.202
tors           3           4           5           6    -104.096
tors           4           5           6           7    +136.575
tors           5           6           7           8    +128.907
tors           6           7           8           9    +176.515
tors           7           8           9          10     +66.727
tors           8           9          10          11    -179.856
tors           9          10          11          12     +77.904
tors          11          12          13          14     +24.129
ENDCONSTRAINT
$end

$rem
JOBTYPE                   OPT
METHOD                    B3LYP
DFT_D                     d3_op
BASIS                     STO-3G
GEOM_OPT_MAX_CYCLES       100
GEOM_OPT_TOL_GRADIENT     300
GEOM_OPT_TOL_DISPLACEMENT 1200
GEOM_OPT_TOL_ENERGY       100
SYMMETRY                  False
THRESH                    12
SCF_CONVERGENCE           8
MAX_SUB_FILE_NUM          128
MEM_STATIC                400
MEM_TOTAL                 4000
$end
--------------------------------------------------------------

   15   -1510.1368609198      7.07E-09 Convergence criterion met
 Total energy in the final basis set = -1510.13686092
   14   -1510.2056426323      2.79E-09 Convergence criterion met
 Total energy in the final basis set = -1510.20564263
   15   -1510.2387155728      2.42E-09 Convergence criterion met
 Total energy in the final basis set = -1510.23871557
   15   -1510.2620133902      2.02E-09 Convergence criterion met
 Total energy in the final basis set = -1510.26201339
   14   -1510.2693780180      4.59E-09 Convergence criterion met
 Total energy in the final basis set = -1510.26937802
   13   -1510.2734475194      4.84E-09 Convergence criterion met
 Total energy in the final basis set = -1510.27344752
   14   -1510.2765511927      3.78E-09 Convergence criterion met
 Total energy in the final basis set = -1510.27655119
   13   -1510.2781206470      4.67E-09 Convergence criterion met
   11   -1510.2812687519      9.69E-09 Convergence criterion met
 Total energy in the final basis set = -1510.28126875
   11   -1510.2813629175      5.52E-09 Convergence criterion met
 Total energy in the final basis set = -1510.28136292
   11   -1510.2814202249      3.33E-09 Convergence criterion met
 Total energy in the final basis set = -1510.28142022
   11   -1510.2814450413      2.76E-09 Convergence criterion met
 Total energy in the final basis set = -1510.28144504
   10   -1510.2814532557      8.99E-09 Convergence criterion met
 Total energy in the final basis set = -1510.28145326
   10   -1510.2814557763      8.76E-09 Convergence criterion met
 Total energy in the final basis set = -1510.28145578

             Standard Nuclear Orientation (Angstroms)
    I     Atom           X                Y                Z
 ----------------------------------------------------------------
    1      O      -3.1463879446     2.2350216111     1.8071805081
    2      C      -2.9970524953     1.5878694616     0.7481576065
    3      C      -4.1390592466     0.9427266123    -0.1201583575
    4      C      -3.9573114547    -0.5939388594    -0.4839970363
    5      C      -2.5580279028    -1.2028914473    -0.1150438787
    6      O      -1.7821531141    -1.3378929410    -1.3272537584
    7      C      -0.3830636878    -0.8955108833    -1.1337193850
    8      C       0.5747188199    -2.0334603116    -1.6536419330
    9      O       2.0127342388    -1.6735858517    -1.5884273178
   10      C       2.4619480352    -1.5378142824    -0.2323102061
   11      C       3.9891986452    -1.1537819927    -0.2815742175
   12      C       4.2845407297     0.3645522405    -0.6261470872
   13      C       2.9845686302     1.2049592106    -0.8181810301
   14      O       1.8582249361     0.9430331429    -0.3351288187
   15      O      -1.7396486291     1.3730760814     0.1091455989
   16      O       3.2716334949     2.3576660624    -1.6048734101
   17      O       1.7786825619    -1.8052036596     0.7782659461
   18      C       2.0526714010     3.1892279884    -1.7574391516
   19      C       4.6384481164    -1.2681778469     1.1600146754
   20      C       6.2080780144    -1.3080652453     1.0007530404
   21      C       6.5144385800     0.1943268976     0.6434031684
   22      C       5.0646670523     0.8201033256     0.6872920036
   23      O       4.3839359500     0.0642171383     1.7589021376
   24      H       4.4857526582    -1.8169896256    -1.0122198602
   25      H       4.9145815680     0.4721522158    -1.5265629450
   26      H       4.1939608453    -2.0617372251     1.7912139923
   27      H       6.6858049567    -1.6026184554     1.9485523012
   28      H       6.5274020544    -2.0071150102     0.2112078665
   29      H       7.1581836475     0.6682016085     1.4014107041
   30      H       6.9870130701     0.3101740960    -0.3449901663
   31      H       5.0255687329     1.9086201989     0.8879299203
   32      O      -2.1324836788    -1.4827935710     1.0250171496
   33      C      -0.6476090941     1.9720997559     0.9152631431
   34      C      -5.4734513727     0.8874940118     0.7317385864
   35      C      -6.6906395876     0.5729465222    -0.2247336067
   36      C      -6.4914985628    -0.9681801246    -0.4779859761
   37      C      -5.1630991943    -1.2354602858     0.3327918533
   38      O      -5.3050842481    -0.3583404738     1.5157450034
   39      H      -4.2521889156     1.5433031230    -1.0419617126
   40      H      -4.0971679603    -0.7384090155    -1.5698973346
   41      H      -0.6613707947     1.5850701269     1.9534973880
   42      H      -5.5996456622     1.7544827246     1.4090933667
   43      H      -7.6458581873     0.7808819774     0.2829800922
   44      H      -6.6489462139     1.1648209750    -1.1532519220
   45      H      -7.3230609012    -1.5557959206    -0.0572165055
   46      H      -6.3870031088    -1.2169713880    -1.5461201572
   47      H      -4.9986991979    -2.2846097771     0.6459457592
   48      H      -0.7421332333     3.0763915065     0.9515353206
   49      H       0.3013933176     1.6794310122     0.4157513619
   50      H       2.3292201099     4.0111586152    -2.4427255159
   51      H       1.7248846574     3.6111843288    -0.7854924311
   52      H       1.2146235954     2.6064891167    -2.1908518107
   53      H       0.3773589075    -2.9553976415    -1.0638258164
   54      H       0.3752755535    -2.2422266186    -2.7239123938
   55      H      -0.1654117567    -0.7134220853    -0.0622006486
   56      H      -0.2229672587     0.0408340455    -1.7096768980
 ----------------------------------------------------------------

    9   -1510.2814561748      7.08E-09 Convergence criterion met
 Total energy in the final basis set = -1510.28145617
 Final energy is   -1510.28145617475
 **  OPTIMIZATION CONVERGED  **

                    Orbital Energies (a.u.)
 --------------------------------------------------------------

 Alpha MOs
 -- Occupied --
-18.956 -18.926 -18.925 -18.906 -18.897 -18.892 -18.881 -18.876
-18.871 -18.868 -10.119 -10.097 -10.093 -10.092 -10.078 -10.067
-10.064 -10.060 -10.057 -10.053 -10.052 -10.047 -10.040 -10.038
-10.033 -10.030 -10.025 -10.023 -10.016 -10.014  -1.031  -1.006
 -1.004  -0.994  -0.975  -0.964  -0.954  -0.933  -0.928  -0.925
 -0.768  -0.757  -0.728  -0.718  -0.713  -0.701  -0.690  -0.676
 -0.649  -0.614  -0.595  -0.580  -0.549  -0.540  -0.539  -0.532
 -0.518  -0.503  -0.482  -0.470  -0.465  -0.459  -0.453  -0.443
 -0.437  -0.431  -0.426  -0.423  -0.417  -0.412  -0.401  -0.388
 -0.387  -0.384  -0.372  -0.367  -0.363  -0.354  -0.353  -0.351
 -0.344  -0.338  -0.332  -0.330  -0.326  -0.323  -0.320  -0.316
 -0.309  -0.306  -0.303  -0.299  -0.289  -0.283  -0.280  -0.279
 -0.268  -0.263  -0.250  -0.244  -0.238  -0.232  -0.228  -0.196
 -0.177  -0.170  -0.170  -0.154  -0.151  -0.149  -0.147  -0.142
 -0.137

          Ground-State Mulliken Net Atomic Charges

     Atom                 Charge (a.u.)
  ----------------------------------------
      1 O                    -0.211328
      2 C                     0.210036
      3 C                    -0.078140
      4 C                    -0.080054
      5 C                     0.216497
      6 O                    -0.189791
      7 C                    -0.049207
      8 C                    -0.049922
      9 O                    -0.179578
     10 C                     0.214430
     11 C                    -0.080008
     12 C                    -0.078452
     13 C                     0.220512
     14 O                    -0.211896
     15 O                    -0.177508
     16 O                    -0.163710
     17 O                    -0.208550
     18 C                    -0.128746
     19 C                     0.025261
     20 C                    -0.144052
     21 C                    -0.143390
     22 C                     0.026022
     23 O                    -0.186576
     24 H                     0.085272
     25 H                     0.088606
     26 H                     0.091693
     27 H                     0.079426
     28 H                     0.073972
     29 H                     0.079429
     30 H                     0.074314
     31 H                     0.083351
     32 O                    -0.198027
     33 C                    -0.145582
     34 C                     0.024193
     35 C                    -0.144924
     36 C                    -0.143477
     37 C                     0.024733
     38 O                    -0.187337
     39 H                     0.082774
     40 H                     0.083785
     41 H                     0.090310
     42 H                     0.090523
     43 H                     0.077482
     44 H                     0.071674
     45 H                     0.077142
     46 H                     0.072287
     47 H                     0.084030
     48 H                     0.076204
     49 H                     0.110909
     50 H                     0.095319
     51 H                     0.091364
     52 H                     0.092946
     53 H                     0.088571
     54 H                     0.086459
     55 H                     0.108619
     56 H                     0.082108
  ----------------------------------------
  Sum of atomic charges =    -0.000000

                    Cartesian Multipole Moments
 -----------------------------------------------------------------
    Charge (ESU x 10^10)
                -0.0000
    Dipole Moment (Debye)
         X       2.6563      Y       1.4477      Z      -4.6676
       Tot       5.5622
    Quadrupole Moments (Debye-Ang)
        XX    -138.0567     XY       0.0893     YY    -152.8389
        XZ       8.2575     YZ      -1.8674     ZZ    -168.3375

 Total job time:  63.23s(wall), 3013.12s(cpu)
        *  Thank you very much for using Q-Chem.  Have a nice day.  *
