 Q-Chem 5.0, Q-Chem, Inc., Pleasanton, CA (2017)
 Q-Chem 5.0.1 for Intel X86 EM64T Linux

User input:
--------------------------------------------------------------
$molecule
0  1
O -3.1463879446 2.2350216111 1.8071805081
C -2.9970524953 1.5878694616 0.7481576065
C -4.1390592466 0.9427266123 -0.1201583575
C -3.9573114547 -0.5939388594 -0.4839970363
C -2.5580279028 -1.2028914473 -0.1150438787
O -1.7821531141 -1.337892941 -1.3272537584
C -0.3830636878 -0.8955108833 -1.133719385
C 0.5747188199 -2.0334603116 -1.653641933
O 2.0127342388 -1.6735858517 -1.5884273178
C 2.4619480352 -1.5378142824 -0.2323102061
C 3.9891986452 -1.1537819927 -0.2815742175
C 4.2845407297 0.3645522405 -0.6261470872
C 2.9845686302 1.2049592106 -0.8181810301
O 1.8582249361 0.9430331429 -0.3351288187
O -1.7396486291 1.3730760814 0.1091455989
O 3.2716334949 2.3576660624 -1.6048734101
O 1.7786825619 -1.8052036596 0.7782659461
C 2.052671401 3.1892279884 -1.7574391516
C 4.6384481164 -1.2681778469 1.1600146754
C 6.2080780144 -1.3080652453 1.0007530404
C 6.51443858 0.1943268976 0.6434031684
C 5.0646670523 0.8201033256 0.6872920036
O 4.38393595 0.0642171383 1.7589021376
H 4.4857526582 -1.8169896256 -1.0122198602
H 4.914581568 0.4721522158 -1.526562945
H 4.1939608453 -2.0617372251 1.7912139923
H 6.6858049567 -1.6026184554 1.9485523012
H 6.5274020544 -2.0071150102 0.2112078665
H 7.1581836475 0.6682016085 1.4014107041
H 6.9870130701 0.310174096 -0.3449901663
H 5.0255687329 1.9086201989 0.8879299203
O -2.1324836788 -1.482793571 1.0250171496
C -0.6476090941 1.9720997559 0.9152631431
C -5.4734513727 0.8874940118 0.7317385864
C -6.6906395876 0.5729465222 -0.2247336067
C -6.4914985628 -0.9681801246 -0.4779859761
C -5.1630991943 -1.2354602858 0.3327918533
O -5.3050842481 -0.3583404738 1.5157450034
H -4.2521889156 1.543303123 -1.0419617126
H -4.0971679603 -0.7384090155 -1.5698973346
H -0.6613707947 1.5850701269 1.953497388
H -5.5996456622 1.7544827246 1.4090933667
H -7.6458581873 0.7808819774 0.2829800922
H -6.6489462139 1.164820975 -1.153251922
H -7.3230609012 -1.5557959206 -0.0572165055
H -6.3870031088 -1.216971388 -1.5461201572
H -4.9986991979 -2.2846097771 0.6459457592
H -0.7421332333 3.0763915065 0.9515353206
H 0.3013933176 1.6794310122 0.4157513619
H 2.3292201099 4.0111586152 -2.4427255159
H 1.7248846574 3.6111843288 -0.7854924311
H 1.2146235954 2.6064891167 -2.1908518107
H 0.3773589075 -2.9553976415 -1.0638258164
H 0.3752755535 -2.2422266186 -2.7239123938
H -0.1654117567 -0.7134220853 -0.0622006486
H -0.2229672587 0.0408340455 -1.709676898
$end

$rem
JOBTYPE                   OPT
METHOD                    B3LYP
DFT_D                     d3_op
BASIS                     STO-3G
GEOM_OPT_MAX_CYCLES       100
GEOM_OPT_TOL_GRADIENT     300
GEOM_OPT_TOL_DISPLACEMENT 1200
GEOM_OPT_TOL_ENERGY       100
SYMMETRY                  False
THRESH                    12
SCF_CONVERGENCE           8
MAX_SUB_FILE_NUM          128
MEM_STATIC                400
MEM_TOTAL                 4000
$end
--------------------------------------------------------------

   16   -1510.2814369730      5.50E-09 Convergence criterion met
 Total energy in the final basis set = -1510.28143697
   15   -1510.2821884424      3.74E-09 Convergence criterion met
 Total energy in the final basis set = -1510.28218844
   14   -1510.2854556875      5.63E-09 Convergence criterion met
 Total energy in the final basis set = -1510.28545569
   14   -1510.2847317264      2.12E-09 Convergence criterion met
 Total energy in the final basis set = -1510.28473173
   14   -1510.2867010233      5.72E-09 Convergence criterion met
 Total energy in the final basis set = -1510.28670102
   14   -1510.2872141487      7.51E-09 Convergence criterion met
 Total energy in the final basis set = -1510.28721415
   14   -1510.2867932092      4.31E-09 Convergence criterion met
 Total energy in the final basis set = -1510.28679321
   14   -1510.2874325214      3.98E-09 Convergence criterion met
   12   -1510.3001416250      7.06E-09 Convergence criterion met
 Total energy in the final basis set = -1510.30014163
   12   -1510.3001998935      3.49E-09 Convergence criterion met
 Total energy in the final basis set = -1510.30019989
   10   -1510.3002204973      7.68E-09 Convergence criterion met
 Total energy in the final basis set = -1510.30022050
   12   -1510.3002574613      2.65E-09 Convergence criterion met
 Total energy in the final basis set = -1510.30025746
   12   -1510.3002801113      2.63E-09 Convergence criterion met
 Total energy in the final basis set = -1510.30028011
   11   -1510.3002819685      1.40E-09 Convergence criterion met
 Total energy in the final basis set = -1510.30028197

             Standard Nuclear Orientation (Angstroms)
    I     Atom           X                Y                Z
 ----------------------------------------------------------------
    1      O      -3.4346680561     2.3174130019     2.1717994491
    2      C      -2.9684231399     1.7758691198     1.1485449508
    3      C      -3.7209805986     1.3944308091    -0.1780828341
    4      C      -3.3814344728    -0.0673848790    -0.7008651443
    5      C      -2.4172057126    -0.8548445568     0.2520058135
    6      O      -1.1696678919    -1.0903746213    -0.4352081847
    7      C      -0.2113943184    -1.7739003596     0.4713179817
    8      C       0.7232858393    -2.7003394045    -0.3803936718
    9      O       1.8890492593    -1.9392384731    -0.8962372589
   10      C       2.9939596054    -2.0623609779     0.0129004695
   11      C       4.1664346850    -1.1491406535    -0.4883288432
   12      C       3.7658485214     0.3744797767    -0.6913246358
   13      C       2.2543516143     0.6694269119    -0.3961269793
   14      O       1.6739769482     0.5778772241     0.7131571761
   15      O      -1.6045165080     1.3947911199     0.9685096663
   16      O       1.6495625770     1.0855136342    -1.6124619773
   17      O       2.9975652778    -2.8075160805     1.0160283656
   18      C       0.1927576601     1.3168651003    -1.4433983710
   19      C       5.2827421583    -1.0250111941     0.6283515684
   20      C       6.5926949732    -0.4414561168    -0.0309806995
   21      C       6.1918111747     1.0697993349    -0.2147631448
   22      C       4.7243211488     1.0697898988     0.3697319614
   23      O       4.7883054739     0.0867850400     1.4737600745
   24      H       4.5631873133    -1.5755220943    -1.4282585955
   25      H       3.9798387468     0.7079690964    -1.7215114434
   26      H       5.4097897573    -1.9432363411     1.2343812056
   27      H       7.4502694084    -0.5519700874     0.6513572717
   28      H       6.8325441466    -0.9378683065    -0.9846955747
   29      H       6.8405771020     1.7346350652     0.3775211364
   30      H       6.2202134867     1.3935914284    -1.2675640906
   31      H       4.3633926007     2.0478135672     0.7429130820
   32      O      -2.6734767381    -1.2996795267     1.3909529206
   33      C      -0.7918820256     1.6182073239     2.1849986034
   34      C      -5.2850941140     1.2900961841     0.0441610866
   35      C      -5.9917333938     1.3279521629    -1.3656661045
   36      C      -5.6497492852    -0.1086201666    -1.9125474247
   37      C      -4.8340814263    -0.7131121541    -0.7011799735
   38      O      -5.4741451737    -0.1108114716     0.4895895038
   39      H      -3.4690980422     2.1482831604    -0.9471681362
   40      H      -2.9345719208    -0.0412607514    -1.7098719726
   41      H      -1.1360238839     0.9705305744     3.0165021805
   42      H      -5.6757945916     1.9948526137     0.8040381825
   43      H      -7.0782850489     1.4668849510    -1.2489047635
   44      H      -5.5984569469     2.1329112014    -2.0067244066
   45      H      -6.5611574194    -0.6995774308    -2.0963880939
   46      H      -5.0546253543    -0.0805178226    -2.8394972612
   47      H      -4.8452743082    -1.8179015198    -0.6281429211
   48      H      -0.8346633012     2.6762821932     2.5127534961
   49      H       0.2396905207     1.3406714266     1.8802734444
   50      H      -0.1728828162     1.6287281397    -2.4385512591
   51      H      -0.0065265331     2.1223035551    -0.7093409501
   52      H      -0.3379631285     0.3907104747    -1.1079778887
   53      H       1.0869034800    -3.5360603513     0.2553457476
   54      H       0.1786294872    -3.0955237086    -1.2617635835
   55      H      -0.7822296760    -2.3502890304     1.2299075700
   56      H       0.4104974228    -0.9996865163     0.9780749825
 ----------------------------------------------------------------

   10   -1510.3002827364      3.95E-09 Convergence criterion met
 Total energy in the final basis set = -1510.30028274
 Final energy is   -1510.30028273636
 **  OPTIMIZATION CONVERGED  **

                    Orbital Energies (a.u.)
 --------------------------------------------------------------

 Alpha MOs
 -- Occupied --
-18.937 -18.936 -18.936 -18.933 -18.889 -18.888 -18.883 -18.879
-18.876 -18.872 -10.104 -10.103 -10.103 -10.100 -10.073 -10.062
-10.062 -10.061 -10.059 -10.058 -10.049 -10.042 -10.040 -10.040
-10.038 -10.038 -10.022 -10.022 -10.021 -10.020  -1.019  -1.015
 -1.008  -1.006  -0.972  -0.970  -0.944  -0.938  -0.936  -0.935
 -0.766  -0.764  -0.729  -0.724  -0.712  -0.707  -0.698  -0.656
 -0.655  -0.618  -0.598  -0.581  -0.548  -0.545  -0.539  -0.537
 -0.512  -0.511  -0.487  -0.474  -0.459  -0.458  -0.454  -0.453
 -0.437  -0.432  -0.429  -0.418  -0.415  -0.409  -0.401  -0.398
 -0.392  -0.383  -0.372  -0.367  -0.364  -0.362  -0.354  -0.351
 -0.342  -0.341  -0.338  -0.332  -0.331  -0.327  -0.324  -0.312
 -0.311  -0.307  -0.306  -0.302  -0.293  -0.290  -0.285  -0.275
 -0.273  -0.263  -0.254  -0.245  -0.241  -0.236  -0.234  -0.185
 -0.178  -0.174  -0.171  -0.163  -0.158  -0.153  -0.151  -0.145
 -0.144

          Ground-State Mulliken Net Atomic Charges

     Atom                 Charge (a.u.)
  ----------------------------------------
      1 O                    -0.206224
      2 C                     0.213252
      3 C                    -0.078518
      4 C                    -0.079091
      5 C                     0.216826
      6 O                    -0.175074
      7 C                    -0.062413
      8 C                    -0.054031
      9 O                    -0.174004
     10 C                     0.211329
     11 C                    -0.078153
     12 C                    -0.079320
     13 C                     0.218463
     14 O                    -0.228520
     15 O                    -0.175644
     16 O                    -0.166623
     17 O                    -0.208666
     18 C                    -0.148345
     19 C                     0.024420
     20 C                    -0.144232
     21 C                    -0.143676
     22 C                     0.025447
     23 O                    -0.186882
     24 H                     0.086109
     25 H                     0.087065
     26 H                     0.090963
     27 H                     0.078783
     28 H                     0.073265
     29 H                     0.078387
     30 H                     0.073778
     31 H                     0.083227
     32 O                    -0.212145
     33 C                    -0.140410
     34 C                     0.023935
     35 C                    -0.143852
     36 C                    -0.144072
     37 C                     0.025820
     38 O                    -0.185778
     39 H                     0.083467
     40 H                     0.084481
     41 H                     0.088851
     42 H                     0.091145
     43 H                     0.078789
     44 H                     0.072812
     45 H                     0.078461
     46 H                     0.072856
     47 H                     0.083696
     48 H                     0.084584
     49 H                     0.113204
     50 H                     0.078769
     51 H                     0.083492
     52 H                     0.113405
     53 H                     0.100551
     54 H                     0.092075
     55 H                     0.099281
     56 H                     0.104684
  ----------------------------------------
  Sum of atomic charges =    -0.000000

                    Cartesian Multipole Moments
 -----------------------------------------------------------------
    Charge (ESU x 10^10)
                -0.0000
    Dipole Moment (Debye)
         X       1.5410      Y       0.5948      Z      -4.5460
       Tot       4.8368
    Quadrupole Moments (Debye-Ang)
        XX    -152.9707     XY       0.3161     YY    -155.6991
        XZ       6.9145     YZ       1.3610     ZZ    -167.2609

 Total job time:  123.10s(wall), 5864.22s(cpu)
        *  Thank you very much for using Q-Chem.  Have a nice day.  *
