 Q-Chem 5.0, Q-Chem, Inc., Pleasanton, CA (2017)
 Q-Chem 5.0.1 for Intel X86 EM64T Linux

User input:
--------------------------------------------------------------
$molecule
0  1
O -3.5226924631 2.2495879459 1.8783789679
C -3.2049463688 1.5814807689 0.8702069394
C -4.2107934699 0.9263716875 -0.1572359378
C -3.9247819006 -0.581421439 -0.5870661772
C -2.5195402411 -1.1198577841 -0.1608426713
O -1.568852394 -0.675782607 -1.138936937
C -0.1925322021 -0.8775565783 -0.6403668715
C 0.6517620997 -1.8480783159 -1.548275361
O 2.06183155 -1.3774917753 -1.5723300857
C 2.6968163738 -1.6271507613 -0.3126835288
C 4.1717349929 -1.0971039528 -0.402233907
C 4.2909436316 0.4646082565 -0.6623543288
C 2.9197591149 1.2186829064 -0.6787993468
O 1.9407999494 1.0399251262 0.0848654494
O -1.8565224127 1.3567465956 0.4601712953
O 2.9615992679 2.1932387057 -1.7227976572
O 2.1600649046 -2.2135384723 0.6505457903
C 1.6911373138 2.9548970334 -1.7931875461
C 4.9135376803 -1.2380321047 0.9900393504
C 6.4670917885 -1.1409856473 0.7379685882
C 6.6252460893 0.3947923136 0.4295152196
C 5.1393859509 0.9010971079 0.6146156147
O 4.5969373416 0.0341128053 1.6825204267
H 4.6916452088 -1.6564543674 -1.2013533336
H 4.8184037765 0.6893239938 -1.605654562
H 4.5681195702 -2.1000624776 1.5931366419
H 7.0230823224 -1.4286709888 1.6444141726
H 6.7954261396 -1.7803906482 -0.0969890331
H 7.2917032322 0.8880695624 1.1546459518
H 7.0034437888 0.5882578271 -0.5870766735
H 5.0366186487 1.9690808857 0.8888405611
O -2.2361118879 -1.7839063925 0.859581239
C -0.9069102324 1.9440827093 1.4363160996
C -5.6081461022 0.7527564066 0.5680116167
C -6.7210443202 0.4031226418 -0.497052086
C -6.419220573 -1.1177265605 -0.7712896235
C -5.1333395754 -1.3311505753 0.1190279317
O -5.4184377712 -0.5115768241 1.3184410701
H -4.2714867106 1.57965503 -1.0475583429
H -3.9934064089 -0.6646010641 -1.6867963165
H -1.0515195051 1.5139388564 2.4477196209
H -5.8444958865 1.5811640386 1.2640218771
H -7.7256973064 0.5465721633 -0.0689678107
H -6.6330156208 1.0231066778 -1.4038149764
H -7.2405587097 -1.7601469299 -0.4155452445
H -6.2364036361 -1.3337304781 -1.8359672173
H -4.9148094169 -2.3773511062 0.4082937159
H -1.0238478518 3.0450650596 1.501191614
H 0.1066545781 1.6910336145 1.0645228146
H 1.9218137529 4.0346336168 -1.7091347391
H 1.016172896 2.6433408102 -0.9719714072
H 1.2079487506 2.7579560005 -2.7704137871
H 0.5839292718 -2.8963143053 -1.1885281074
H 0.3053484033 -1.7946497855 -2.6005063636
H -0.2393274157 -1.2797608723 0.3928360889
H 0.3239653927 0.1064964824 -0.6210299512
$end

$rem
JOBTYPE                   OPT
METHOD                    B3LYP
DFT_D                     d3_op
BASIS                     STO-3G
GEOM_OPT_MAX_CYCLES       100
GEOM_OPT_TOL_GRADIENT     300
GEOM_OPT_TOL_DISPLACEMENT 1200
GEOM_OPT_TOL_ENERGY       100
SYMMETRY                  False
THRESH                    12
SCF_CONVERGENCE           8
MAX_SUB_FILE_NUM          128
MEM_STATIC                400
MEM_TOTAL                 4000
$end
--------------------------------------------------------------

   16   -1510.2865050668      5.14E-09 Convergence criterion met
 Total energy in the final basis set = -1510.28650507
   14   -1510.2859038744      5.23E-09 Convergence criterion met
 Total energy in the final basis set = -1510.28590387
   13   -1510.2873585786      9.57E-09 Convergence criterion met
 Total energy in the final basis set = -1510.28735858
   14   -1510.2660112489      9.12E-09 Convergence criterion met
 Total energy in the final basis set = -1510.26601125
   15   -1510.2854142790      4.37E-09 Convergence criterion met
 Total energy in the final basis set = -1510.28541428
   14   -1510.2865867563      5.07E-09 Convergence criterion met
 Total energy in the final basis set = -1510.28658676
   13   -1510.2893764123      7.16E-09 Convergence criterion met
 Total energy in the final basis set = -1510.28937641
   13   -1510.2902611084      8.59E-09 Convergence criterion met
   11   -1510.3008012362      2.12E-09 Convergence criterion met
 Total energy in the final basis set = -1510.30080124
   10   -1510.3008027611      9.94E-09 Convergence criterion met
 Total energy in the final basis set = -1510.30080276
   11   -1510.3008016250      1.65E-09 Convergence criterion met
 Total energy in the final basis set = -1510.30080162
    9   -1510.3008013857      7.83E-09 Convergence criterion met
 Total energy in the final basis set = -1510.30080139
    9   -1510.3008019654      3.92E-09 Convergence criterion met
 Total energy in the final basis set = -1510.30080197
    8   -1510.3008023779      7.78E-09 Convergence criterion met
 Total energy in the final basis set = -1510.30080238

             Standard Nuclear Orientation (Angstroms)
    I     Atom           X                Y                Z
 ----------------------------------------------------------------
    1      O      -3.1104867628     1.8683332949     2.3122266250
    2      C      -2.7316411862     1.7631923883     1.1276117436
    3      C      -3.5844006369     1.3242371153    -0.1181217041
    4      C      -3.1836718424    -0.0978823566    -0.6954213484
    5      C      -2.0483795467    -0.7847731527     0.1321520039
    6      O      -1.2724840591    -1.6194742291    -0.7393626127
    7      C      -0.1799740295    -2.2706493697     0.0333950041
    8      C       0.8493729117    -2.8642116593    -0.9940744653
    9      O       1.9453060527    -1.9021627665    -1.2736054762
   10      C       3.0141194197    -2.0918960213    -0.3321642816
   11      C       4.1007571210    -0.9794290126    -0.5501561730
   12      C       3.5340144492     0.5053124649    -0.5092688530
   13      C       1.9727894559     0.5686808075    -0.4002348152
   14      O       1.2744363284     0.2603363185     0.5968083873
   15      O      -1.4210093762     2.1277410775     0.6615563627
   16      O       1.4725351314     1.0629238311    -1.6343672871
   17      O       3.0512041475    -3.0192347730     0.5043399686
   18      C      -0.0104273941     1.0009550395    -1.6808448825
   19      C       5.0890991812    -0.9602228393     0.6858032062
   20      C       6.3549208271    -0.0912847357     0.3188295377
   21      C       5.7639513201     1.3649564106     0.4173381546
   22      C       4.2612193077     1.0578420054     0.7924488648
   23      O       4.3606272422    -0.1277307742     1.6719102233
   24      H       4.6207159554    -1.1760234330    -1.5060094611
   25      H       3.8343124452     1.0627451066    -1.4132641228
   26      H       5.2929358929    -1.9643081971     1.1058925441
   27      H       7.1597350780    -0.2519937451     1.0533348022
   28      H       6.7409441748    -0.3270775666    -0.6858681129
   29      H       6.2491569516     1.9426393343     1.2202527258
   30      H       5.8516129505     1.9278045167    -0.5257139329
   31      H       3.7228374297     1.8769544975     1.3075530573
   32      O      -1.8236039476    -0.6467593546     1.3542002901
   33      C      -0.4936871206     2.3543154467     1.7954664627
   34      C      -5.0956830831     1.0755035381     0.2844677071
   35      C      -5.9675718006     1.0459720030    -1.0307177824
   36      C      -5.5694403519    -0.3560394419    -1.6260487660
   37      C      -4.5617810115    -0.8801562086    -0.5274759138
   38      O      -5.1042614345    -0.3366025084     0.7361037541
   39      H      -3.4844851554     2.1006815698    -0.8979227471
   40      H      -2.8750771198    -0.0452890651    -1.7537008816
   41      H      -1.0353665987     2.2135086785     2.7509029244
   42      H      -5.4609773435     1.7381466639     1.0926789770
   43      H      -7.0398899398     1.0876242206    -0.7820262765
   44      H      -5.7299688180     1.8809658523    -1.7091589238
   45      H      -6.4398400089    -1.0273540726    -1.6980504912
   46      H      -5.0986579272    -0.2801032659    -2.6193163784
   47      H      -4.4594468472    -1.9812913662    -0.4682120362
   48      H      -0.0967713681     3.3864475799     1.7327216539
   49      H       0.3309966617     1.6160743579     1.6876508460
   50      H      -0.2984742535     1.5068508408    -2.6197005871
   51      H      -0.4935280577     1.5043585700    -0.8065483090
   52      H      -0.3497921034    -0.0568538236    -1.7029276799
   53      H       1.2775764252    -3.8030754676    -0.5834825514
   54      H       0.3486612101    -3.0645685874    -1.9631800448
   55      H      -0.5958217157    -3.0753391439     0.6770775071
   56      H       0.3244160440    -1.5071663547     0.6716005929
 ----------------------------------------------------------------

    9   -1510.3008029406      2.49E-09 Convergence criterion met
 Total energy in the final basis set = -1510.30080294
 Final energy is   -1510.30080294063
 **  OPTIMIZATION CONVERGED  **

                    Orbital Energies (a.u.)
 --------------------------------------------------------------

 Alpha MOs
 -- Occupied --
-18.938 -18.938 -18.933 -18.928 -18.889 -18.888 -18.884 -18.883
-18.874 -18.869 -10.105 -10.103 -10.100 -10.098 -10.076 -10.066
-10.063 -10.060 -10.059 -10.059 -10.042 -10.041 -10.041 -10.038
-10.037 -10.034 -10.023 -10.021 -10.021 -10.020  -1.021  -1.015
 -1.006  -1.003  -0.972  -0.971  -0.945  -0.938  -0.932  -0.931
 -0.765  -0.764  -0.729  -0.724  -0.713  -0.706  -0.699  -0.653
 -0.651  -0.618  -0.596  -0.581  -0.548  -0.544  -0.538  -0.538
 -0.514  -0.511  -0.483  -0.477  -0.461  -0.456  -0.454  -0.453
 -0.435  -0.432  -0.429  -0.418  -0.417  -0.405  -0.400  -0.398
 -0.393  -0.378  -0.371  -0.370  -0.361  -0.356  -0.354  -0.351
 -0.343  -0.342  -0.337  -0.333  -0.331  -0.328  -0.325  -0.312
 -0.310  -0.307  -0.305  -0.301  -0.296  -0.288  -0.282  -0.275
 -0.272  -0.258  -0.255  -0.251  -0.237  -0.235  -0.234  -0.184
 -0.180  -0.170  -0.167  -0.163  -0.158  -0.150  -0.150  -0.146
 -0.144

          Ground-State Mulliken Net Atomic Charges

     Atom                 Charge (a.u.)
  ----------------------------------------
      1 O                    -0.205565
      2 C                     0.221044
      3 C                    -0.079747
      4 C                    -0.079363
      5 C                     0.213276
      6 O                    -0.175505
      7 C                    -0.058995
      8 C                    -0.053126
      9 O                    -0.173443
     10 C                     0.211512
     11 C                    -0.077876
     12 C                    -0.080219
     13 C                     0.217537
     14 O                    -0.229295
     15 O                    -0.179963
     16 O                    -0.167241
     17 O                    -0.207972
     18 C                    -0.158065
     19 C                     0.024300
     20 C                    -0.144463
     21 C                    -0.143443
     22 C                     0.025312
     23 O                    -0.187069
     24 H                     0.086087
     25 H                     0.086605
     26 H                     0.090985
     27 H                     0.078814
     28 H                     0.073121
     29 H                     0.078267
     30 H                     0.073630
     31 H                     0.083491
     32 O                    -0.200474
     33 C                    -0.143067
     34 C                     0.025420
     35 C                    -0.144092
     36 C                    -0.143665
     37 C                     0.025701
     38 O                    -0.185993
     39 H                     0.084334
     40 H                     0.085439
     41 H                     0.101487
     42 H                     0.090629
     43 H                     0.078861
     44 H                     0.073288
     45 H                     0.078672
     46 H                     0.073468
     47 H                     0.083086
     48 H                     0.078159
     49 H                     0.105595
     50 H                     0.077013
     51 H                     0.108476
     52 H                     0.088443
     53 H                     0.099470
     54 H                     0.093971
     55 H                     0.087058
     56 H                     0.116090
  ----------------------------------------
  Sum of atomic charges =    -0.000000

                    Cartesian Multipole Moments
 -----------------------------------------------------------------
    Charge (ESU x 10^10)
                -0.0000
    Dipole Moment (Debye)
         X       0.9768      Y       0.6654      Z      -4.5115
       Tot       4.6637
    Quadrupole Moments (Debye-Ang)
        XX    -146.7203     XY       2.2410     YY    -154.0777
        XZ       7.2584     YZ       3.3682     ZZ    -168.7610

 Total job time:  157.66s(wall), 7518.46s(cpu)
        *  Thank you very much for using Q-Chem.  Have a nice day.  *
