 Q-Chem 5.0, Q-Chem, Inc., Pleasanton, CA (2017)
 Q-Chem 5.0.1 for Intel X86 EM64T Linux

User input:
--------------------------------------------------------------
$molecule
0  1
O -3.94934 -3.66094 2.70899
C -3.26408 -4.56952 2.26188
C -3.36658 -6.02376 2.66595
C -2.05212 -6.76691 2.9554
C -0.79427 -5.92714 2.98157
O -0.34023 -5.73176 1.70834
C 0.66165 -4.71328 1.61784
C 1.96127 -5.30092 1.07768
O 2.62223 -4.33945 0.24008
C 3.18101 -3.2876 0.88855
C 3.84911 -2.3076 -0.04628
C 2.91066 -1.63816 -1.0609
C 1.4282 -1.76225 -0.77172
O 0.91059 -1.66415 0.33147
O -2.53612 -4.3345 1.14881
O 0.65631 -1.85288 -1.88786
O 3.16559 -3.14739 2.1059
C -0.67852 -1.52654 -1.99663
C 4.45152 -1.07446 0.65692
C 5.53272 -0.45233 -0.22636
C 4.68464 0.15581 -1.32308
C 3.28249 -0.16414 -0.7947
O 3.42779 -0.11539 0.60415
H 4.66554 -2.87083 -0.55188
H 3.10442 -1.91262 -2.12215
H 4.86747 -1.29597 1.66377
H 6.00319 0.37209 0.35614
H 6.32173 -1.15518 -0.57044
H 4.85279 1.25586 -1.32678
H 4.85181 -0.25825 -2.34093
H 2.53905 0.54144 -1.22895
O -0.18219 -5.615 3.99762
C -2.41933 -3.11123 0.53996
C -4.11906 -6.21728 3.99509
C -4.66465 -7.64232 4.08741
C -3.3897 -8.41365 4.34469
C -2.37391 -7.26861 4.38384
O -3.09561 -6.20551 4.95667
H -3.91709 -6.51991 1.83549
H -1.86498 -7.64243 2.29338
H -1.95133 -2.37865 1.23193
H -4.94536 -5.48936 4.14725
H -5.30726 -7.70926 4.99427
H -5.24532 -7.96556 3.19665
H -3.4589 -8.87781 5.35411
H -3.14047 -9.19062 3.59015
H -1.46706 -7.59755 4.93796
H -3.41387 -2.74589 0.20625
H -1.77259 -3.25168 -0.33806
H -0.78848 -0.73139 -2.76224
H -1.09585 -1.13658 -1.04454
H -1.24723 -2.41217 -2.34491
H 2.60976 -5.74119 1.86673
H 1.68108 -6.12507 0.38689
H 0.83553 -4.08814 2.52198
H 0.2669 -4.02631 0.84583
$end

$opt
CONSTRAINT
tors           1           2           3           4    -134.123
tors           3           4           5           6     -82.361
tors           4           5           6           7    +166.911
tors           5           6           7           8    +119.329
tors           6           7           8           9    +144.420
tors           7           8           9          10     +71.907
tors           8           9          10          11    -179.503
tors           9          10          11          12     +61.864
tors          11          12          13          14     +40.773
ENDCONSTRAINT
$end

$rem
JOBTYPE                   OPT
METHOD                    B3LYP
DFT_D                     d3_op
BASIS                     STO-3G
GEOM_OPT_MAX_CYCLES       100
GEOM_OPT_TOL_GRADIENT     300
GEOM_OPT_TOL_DISPLACEMENT 1200
GEOM_OPT_TOL_ENERGY       100
SYMMETRY                  False
THRESH                    12
SCF_CONVERGENCE           8
MAX_SUB_FILE_NUM          128
MEM_STATIC                400
MEM_TOTAL                 4000
$end
--------------------------------------------------------------

   15   -1510.1499947978      7.45E-09 Convergence criterion met
 Total energy in the final basis set = -1510.14999480
   14   -1510.2187096791      7.65E-09 Convergence criterion met
 Total energy in the final basis set = -1510.21870968
   15   -1510.2496363876      2.26E-09 Convergence criterion met
 Total energy in the final basis set = -1510.24963639
   15   -1510.2689655191      2.53E-09 Convergence criterion met
 Total energy in the final basis set = -1510.26896552
   14   -1510.2755329471      3.45E-09 Convergence criterion met
 Total energy in the final basis set = -1510.27553295
   13   -1510.2793282420      8.90E-09 Convergence criterion met
 Total energy in the final basis set = -1510.27932824
   13   -1510.2816653536      7.91E-09 Convergence criterion met
 Total energy in the final basis set = -1510.28166535
   13   -1510.2831376617      5.66E-09 Convergence criterion met
   11   -1510.2865212077      6.79E-09 Convergence criterion met
 Total energy in the final basis set = -1510.28652121
   11   -1510.2865416826      5.15E-09 Convergence criterion met
 Total energy in the final basis set = -1510.28654168
   10   -1510.2865549487      9.80E-09 Convergence criterion met
 Total energy in the final basis set = -1510.28655495
   10   -1510.2865610379      7.33E-09 Convergence criterion met
 Total energy in the final basis set = -1510.28656104
    9   -1510.2865672740      7.05E-09 Convergence criterion met
 Total energy in the final basis set = -1510.28656727
    9   -1510.2865657130      8.04E-09 Convergence criterion met
 Total energy in the final basis set = -1510.28656571

             Standard Nuclear Orientation (Angstroms)
    I     Atom           X                Y                Z
 ----------------------------------------------------------------
    1      O      -3.5226924631     2.2495879459     1.8783789679
    2      C      -3.2049463688     1.5814807689     0.8702069394
    3      C      -4.2107934699     0.9263716875    -0.1572359378
    4      C      -3.9247819006    -0.5814214390    -0.5870661772
    5      C      -2.5195402411    -1.1198577841    -0.1608426713
    6      O      -1.5688523940    -0.6757826070    -1.1389369370
    7      C      -0.1925322021    -0.8775565783    -0.6403668715
    8      C       0.6517620997    -1.8480783159    -1.5482753610
    9      O       2.0618315500    -1.3774917753    -1.5723300857
   10      C       2.6968163738    -1.6271507613    -0.3126835288
   11      C       4.1717349929    -1.0971039528    -0.4022339070
   12      C       4.2909436316     0.4646082565    -0.6623543288
   13      C       2.9197591149     1.2186829064    -0.6787993468
   14      O       1.9407999494     1.0399251262     0.0848654494
   15      O      -1.8565224127     1.3567465956     0.4601712953
   16      O       2.9615992679     2.1932387057    -1.7227976572
   17      O       2.1600649046    -2.2135384723     0.6505457903
   18      C       1.6911373138     2.9548970334    -1.7931875461
   19      C       4.9135376803    -1.2380321047     0.9900393504
   20      C       6.4670917885    -1.1409856473     0.7379685882
   21      C       6.6252460893     0.3947923136     0.4295152196
   22      C       5.1393859509     0.9010971079     0.6146156147
   23      O       4.5969373416     0.0341128053     1.6825204267
   24      H       4.6916452088    -1.6564543674    -1.2013533336
   25      H       4.8184037765     0.6893239938    -1.6056545620
   26      H       4.5681195702    -2.1000624776     1.5931366419
   27      H       7.0230823224    -1.4286709888     1.6444141726
   28      H       6.7954261396    -1.7803906482    -0.0969890331
   29      H       7.2917032322     0.8880695624     1.1546459518
   30      H       7.0034437888     0.5882578271    -0.5870766735
   31      H       5.0366186487     1.9690808857     0.8888405611
   32      O      -2.2361118879    -1.7839063925     0.8595812390
   33      C      -0.9069102324     1.9440827093     1.4363160996
   34      C      -5.6081461022     0.7527564066     0.5680116167
   35      C      -6.7210443202     0.4031226418    -0.4970520860
   36      C      -6.4192205730    -1.1177265605    -0.7712896235
   37      C      -5.1333395754    -1.3311505753     0.1190279317
   38      O      -5.4184377712    -0.5115768241     1.3184410701
   39      H      -4.2714867106     1.5796550300    -1.0475583429
   40      H      -3.9934064089    -0.6646010641    -1.6867963165
   41      H      -1.0515195051     1.5139388564     2.4477196209
   42      H      -5.8444958865     1.5811640386     1.2640218771
   43      H      -7.7256973064     0.5465721633    -0.0689678107
   44      H      -6.6330156208     1.0231066778    -1.4038149764
   45      H      -7.2405587097    -1.7601469299    -0.4155452445
   46      H      -6.2364036361    -1.3337304781    -1.8359672173
   47      H      -4.9148094169    -2.3773511062     0.4082937159
   48      H      -1.0238478518     3.0450650596     1.5011916140
   49      H       0.1066545781     1.6910336145     1.0645228146
   50      H       1.9218137529     4.0346336168    -1.7091347391
   51      H       1.0161728960     2.6433408102    -0.9719714072
   52      H       1.2079487506     2.7579560005    -2.7704137871
   53      H       0.5839292718    -2.8963143053    -1.1885281074
   54      H       0.3053484033    -1.7946497855    -2.6005063636
   55      H      -0.2393274157    -1.2797608723     0.3928360889
   56      H       0.3239653927     0.1064964824    -0.6210299512
 ----------------------------------------------------------------

    9   -1510.2865653259      7.79E-09 Convergence criterion met
 Total energy in the final basis set = -1510.28656533
 Final energy is   -1510.28656532593
 **  OPTIMIZATION CONVERGED  **

                    Orbital Energies (a.u.)
 --------------------------------------------------------------

 Alpha MOs
 -- Occupied --
-18.948 -18.931 -18.931 -18.921 -18.892 -18.889 -18.881 -18.877
-18.869 -18.869 -10.113 -10.101 -10.094 -10.093 -10.068 -10.067
-10.066 -10.061 -10.054 -10.052 -10.052 -10.047 -10.045 -10.041
-10.035 -10.032 -10.024 -10.023 -10.017 -10.015  -1.024  -1.011
 -1.009  -0.999  -0.974  -0.964  -0.948  -0.938  -0.931  -0.927
 -0.768  -0.758  -0.729  -0.720  -0.713  -0.702  -0.690  -0.670
 -0.655  -0.615  -0.598  -0.580  -0.549  -0.541  -0.539  -0.533
 -0.516  -0.504  -0.479  -0.474  -0.466  -0.458  -0.454  -0.446
 -0.436  -0.432  -0.422  -0.419  -0.414  -0.409  -0.405  -0.395
 -0.390  -0.382  -0.373  -0.368  -0.362  -0.358  -0.357  -0.350
 -0.346  -0.338  -0.335  -0.330  -0.327  -0.325  -0.323  -0.314
 -0.308  -0.307  -0.303  -0.301  -0.292  -0.287  -0.279  -0.276
 -0.268  -0.259  -0.250  -0.243  -0.238  -0.237  -0.229  -0.187
 -0.181  -0.173  -0.171  -0.158  -0.154  -0.153  -0.148  -0.145
 -0.139

          Ground-State Mulliken Net Atomic Charges

     Atom                 Charge (a.u.)
  ----------------------------------------
      1 O                    -0.212777
      2 C                     0.208991
      3 C                    -0.076566
      4 C                    -0.079801
      5 C                     0.214273
      6 O                    -0.174346
      7 C                    -0.064771
      8 C                    -0.051746
      9 O                    -0.177636
     10 C                     0.212066
     11 C                    -0.079117
     12 C                    -0.077503
     13 C                     0.219505
     14 O                    -0.218831
     15 O                    -0.171226
     16 O                    -0.165540
     17 O                    -0.207307
     18 C                    -0.135978
     19 C                     0.024677
     20 C                    -0.143719
     21 C                    -0.143845
     22 C                     0.025883
     23 O                    -0.186331
     24 H                     0.085686
     25 H                     0.089248
     26 H                     0.092552
     27 H                     0.079417
     28 H                     0.073842
     29 H                     0.079193
     30 H                     0.074289
     31 H                     0.082670
     32 O                    -0.212149
     33 C                    -0.135946
     34 C                     0.023337
     35 C                    -0.145169
     36 C                    -0.143175
     37 C                     0.024253
     38 O                    -0.188870
     39 H                     0.083443
     40 H                     0.083114
     41 H                     0.091704
     42 H                     0.090752
     43 H                     0.077744
     44 H                     0.071889
     45 H                     0.077486
     46 H                     0.071954
     47 H                     0.086873
     48 H                     0.083327
     49 H                     0.104148
     50 H                     0.088559
     51 H                     0.101415
     52 H                     0.089913
     53 H                     0.089679
     54 H                     0.089185
     55 H                     0.104977
     56 H                     0.096304
  ----------------------------------------
  Sum of atomic charges =    -0.000000

                    Cartesian Multipole Moments
 -----------------------------------------------------------------
    Charge (ESU x 10^10)
                -0.0000
    Dipole Moment (Debye)
         X       2.4114      Y       1.2857      Z      -4.5211
       Tot       5.2828
    Quadrupole Moments (Debye-Ang)
        XX    -140.5013     XY       0.2041     YY    -155.1439
        XZ       8.7184     YZ       1.7376     ZZ    -167.1157

 Total job time:  64.48s(wall), 3069.02s(cpu)
        *  Thank you very much for using Q-Chem.  Have a nice day.  *
