 Q-Chem 5.0, Q-Chem, Inc., Pleasanton, CA (2017)
 Q-Chem 5.0.1 for Intel X86 EM64T Linux

User input:
--------------------------------------------------------------
$molecule
0  1
O -3.3868320169 2.2772873378 1.8319192966
C -2.9885319366 1.5619050801 0.8863716478
C -3.8956584523 0.9699499757 -0.2596807691
C -3.706856936 -0.5634067686 -0.6510380114
C -2.5590446715 -1.3105439109 0.110528894
O -1.3320959794 -1.0172851105 -0.5595175358
C -0.1647725458 -1.4184193774 0.2597376639
C 0.7008377112 -2.5018265463 -0.496352074
O 1.9853847815 -1.9003073673 -0.931917244
C 2.8550697134 -1.6692861556 0.1826142654
C 4.1577987717 -1.0257522293 -0.4124556418
C 3.9216404403 0.467994386 -0.9069450562
C 2.478977141 0.9925398155 -0.5938622576
O 1.8285823353 0.7951362902 0.4635098747
O -1.6133662771 1.2670220587 0.6417449375
O 1.9854836155 1.7103748945 -1.7176794664
O 2.6166824942 -2.0042702627 1.3611004385
C 0.611070919 2.21748919 -1.4698244788
C 5.2766450391 -0.8117180833 0.6872537523
C 6.6506771596 -0.5619980949 -0.0477363417
C 6.4385421153 0.8989962804 -0.5938631581
C 5.0032627233 1.2351092522 -0.0248706054
O 4.9510655981 0.5140646886 1.264971034
H 4.5082081931 -1.6597256604 -1.2463978199
H 4.1097489115 0.5848113178 -1.9883287035
H 5.2844552992 -1.5839105377 1.4810450377
H 7.4843902231 -0.6062082835 0.67105878
H 6.8350114016 -1.2952485056 -0.8490187021
H 7.1868086061 1.5973422106 -0.1866577726
H 6.4689531777 0.9507233235 -1.6940623425
H 4.7956882142 2.3128773956 0.1226431406
O -2.6574988562 -2.0019646521 1.14788454
C -0.7604223492 1.8415359623 1.7122050416
C -5.4076583405 0.9685281174 0.2175348521
C -6.3478325316 0.8323610989 -1.043005175
C -6.1602254404 -0.6899379761 -1.3984330159
C -5.1386571828 -1.1394863748 -0.2806558184
O -5.5416919333 -0.3401514212 0.8985421514
H -3.751812804 1.6046504939 -1.154324836
H -3.5032712238 -0.6468055271 -1.733821064
H -1.0048668832 1.4001745759 2.6988648956
H -5.6453130669 1.7948426175 0.9158092265
H -7.391188202 1.0578411429 -0.771044087
H -6.0442222091 1.5022699088 -1.8633898479
H -7.1057268718 -1.2472542336 -1.3026443065
H -5.7607142008 -0.8446952235 -2.4136172634
H -5.1429353867 -2.2188648181 -0.0341175462
H -0.882667096 2.9414448909 1.7776080289
H 0.2794476992 1.5819457246 1.4221708267
H 0.2342269952 2.5524812837 -2.4534591381
H 0.6301965593 3.0803501753 -0.7734101324
H -0.0649216289 1.441448356 -1.0512158225
H 0.8793564727 -3.3844521074 0.1540174095
H 0.1888852378 -2.8222386445 -1.4261116775
H -0.5306717244 -1.8176935585 1.2287768907
H 0.4606735625 -0.5128808259 0.4300082295
$end

$rem
JOBTYPE                   OPT
METHOD                    B3LYP
DFT_D                     d3_op
BASIS                     STO-3G
GEOM_OPT_MAX_CYCLES       100
GEOM_OPT_TOL_GRADIENT     300
GEOM_OPT_TOL_DISPLACEMENT 1200
GEOM_OPT_TOL_ENERGY       100
SYMMETRY                  False
THRESH                    12
SCF_CONVERGENCE           8
MAX_SUB_FILE_NUM          128
MEM_STATIC                400
MEM_TOTAL                 4000
$end
--------------------------------------------------------------

   16   -1510.2903922195      5.79E-09 Convergence criterion met
 Total energy in the final basis set = -1510.29039222
   14   -1510.2729825076      6.55E-09 Convergence criterion met
 Total energy in the final basis set = -1510.27298251
   14   -1510.2890796958      7.17E-09 Convergence criterion met
 Total energy in the final basis set = -1510.28907970
   15   -1510.2898557889      2.32E-09 Convergence criterion met
 Total energy in the final basis set = -1510.28985579
   15   -1510.2815860905      2.37E-09 Convergence criterion met
 Total energy in the final basis set = -1510.28158609
   14   -1510.2929770443      3.12E-09 Convergence criterion met
 Total energy in the final basis set = -1510.29297704
   14   -1510.2913058032      6.01E-09 Convergence criterion met
 Total energy in the final basis set = -1510.29130580
   15   -1510.2895623680      2.51E-09 Convergence criterion met
    9   -1510.3002864691      6.67E-09 Convergence criterion met
 Total energy in the final basis set = -1510.30028647
   11   -1510.3002881525      2.53E-09 Convergence criterion met
 Total energy in the final basis set = -1510.30028815
    9   -1510.3002906835      8.16E-09 Convergence criterion met
 Total energy in the final basis set = -1510.30029068
    9   -1510.3002919618      9.87E-09 Convergence criterion met
 Total energy in the final basis set = -1510.30029196
   10   -1510.3002959362      6.66E-09 Convergence criterion met
 Total energy in the final basis set = -1510.30029594
   11   -1510.3002978635      2.43E-09 Convergence criterion met
 Total energy in the final basis set = -1510.30029786

             Standard Nuclear Orientation (Angstroms)
    I     Atom           X                Y                Z
 ----------------------------------------------------------------
    1      O      -3.4981988538     2.2804406484     2.0833484137
    2      C      -3.0355523327     1.7200771073     1.0688069261
    3      C      -3.8114067281     1.2007903486    -0.1961198492
    4      C      -3.3947928986    -0.2703641284    -0.6280861035
    5      C      -2.3643048880    -0.9199574480     0.3591522654
    6      O      -1.1258047133    -1.1621532995    -0.3415079668
    7      C      -0.1080087267    -1.6961388856     0.6004804689
    8      C       0.8392682001    -2.6790605454    -0.1704243961
    9      O       1.9567284944    -1.9429348823    -0.8130023159
   10      C       3.0722449180    -1.8636756158     0.0878073812
   11      C       4.1867024206    -0.9770949542    -0.5704357099
   12      C       3.7120679969     0.4985582702    -0.9173673546
   13      C       2.1992931969     0.7553170135    -0.5959571950
   14      O       1.6602564829     0.7396858584     0.5379744321
   15      O      -1.6539931674     1.4401248849     0.8404019913
   16      O       1.5336074430     1.0230145743    -1.8214172254
   17      O       3.1236262895    -2.4379987164     1.1961654415
   18      C       0.0734090698     1.1999897006    -1.6185018723
   19      C       5.3403653295    -0.6894898267     0.4743371010
   20      C       6.5953052109    -0.1204547650    -0.2948357880
   21      C       6.1167689308     1.3454472075    -0.6145249216
   22      C       4.6740016577     1.3412918543     0.0280964796
   23      O       4.8260880234     0.4820351895     1.2227255439
   24      H       4.5567986967    -1.4924181227    -1.4757294093
   25      H       3.8757190020     0.7293389690    -1.9842251473
   26      H       5.5338199366    -1.5324250488     1.1657910026
   27      H       7.4811723721    -0.1221145073     0.3598724924
   28      H       6.8258704527    -0.7009581263    -1.2026519177
   29      H       6.7549038103     2.0955022256    -0.1208471641
   30      H       6.0905082333     1.5590472461    -1.6950015659
   31      H       4.2804244641     2.3359837152     0.3140631756
   32      O      -2.5644490970    -1.2573727333     1.5453383460
   33      C      -0.8085267012     1.8000376961     2.0006780365
   34      C      -5.3566475515     1.0145685968     0.0918791545
   35      C      -6.1109075381     0.9168813260    -1.2905148783
   36      C      -5.6910963282    -0.5259476549    -1.7617406425
   37      C      -4.8041198333    -1.0015913379    -0.5425918406
   38      O      -5.4441591410    -0.3638932014     0.6294843198
   39      H      -3.6344321388     1.9122936344    -1.0239674722
   40      H      -2.9720229309    -0.2896636711    -1.6475277493
   41      H      -1.0864760015     1.2066358804     2.8949659516
   42      H      -5.7667237108     1.7411710757     0.8202355507
   43      H      -7.1998461854     0.9903688406    -1.1406581802
   44      H      -5.7970470205     1.7040685443    -1.9946005834
   45      H      -6.5661193124    -1.1843965469    -1.8804161008
   46      H      -5.1246776727    -0.5169618627    -2.7067882746
   47      H      -4.7440310178    -2.0981571744    -0.4012373852
   48      H      -0.8928324994     2.8780978572     2.2447243743
   49      H       0.2239542940     1.5492165504     1.6766625716
   50      H      -0.3399883534     1.4034334994    -2.6229555380
   51      H      -0.1419170385     2.0580075554    -0.9514286227
   52      H      -0.3985515488     0.2834608165    -1.1828285742
   53      H       1.2504983699    -3.4239051936     0.5442063135
   54      H       0.2862875742    -3.1933118184    -0.9826770794
   55      H      -0.6285153797    -2.2003044177     1.4421264416
   56      H       0.4951025407    -0.8422109988     0.9888932682
 ----------------------------------------------------------------

    9   -1510.3002995893      6.94E-09 Convergence criterion met
 Total energy in the final basis set = -1510.30029959
 Final energy is   -1510.30029958928
 **  OPTIMIZATION CONVERGED  **

                    Orbital Energies (a.u.)
 --------------------------------------------------------------

 Alpha MOs
 -- Occupied --
-18.937 -18.937 -18.935 -18.933 -18.889 -18.888 -18.883 -18.879
-18.876 -18.873 -10.104 -10.103 -10.103 -10.100 -10.073 -10.062
-10.062 -10.061 -10.059 -10.058 -10.049 -10.041 -10.041 -10.040
-10.038 -10.038 -10.022 -10.022 -10.021 -10.020  -1.019  -1.015
 -1.009  -1.006  -0.971  -0.970  -0.943  -0.938  -0.936  -0.936
 -0.766  -0.764  -0.729  -0.724  -0.712  -0.706  -0.698  -0.657
 -0.655  -0.618  -0.598  -0.581  -0.548  -0.545  -0.539  -0.537
 -0.512  -0.511  -0.487  -0.474  -0.459  -0.458  -0.455  -0.453
 -0.437  -0.432  -0.430  -0.418  -0.415  -0.409  -0.401  -0.398
 -0.391  -0.383  -0.372  -0.368  -0.363  -0.362  -0.355  -0.352
 -0.342  -0.341  -0.338  -0.332  -0.331  -0.327  -0.324  -0.312
 -0.311  -0.307  -0.306  -0.302  -0.292  -0.289  -0.285  -0.275
 -0.273  -0.263  -0.254  -0.245  -0.242  -0.235  -0.234  -0.185
 -0.178  -0.174  -0.171  -0.163  -0.159  -0.153  -0.151  -0.145
 -0.144

          Ground-State Mulliken Net Atomic Charges

     Atom                 Charge (a.u.)
  ----------------------------------------
      1 O                    -0.205829
      2 C                     0.213312
      3 C                    -0.078670
      4 C                    -0.078829
      5 C                     0.216467
      6 O                    -0.174881
      7 C                    -0.063373
      8 C                    -0.053493
      9 O                    -0.174534
     10 C                     0.210976
     11 C                    -0.078193
     12 C                    -0.079285
     13 C                     0.218004
     14 O                    -0.227988
     15 O                    -0.176331
     16 O                    -0.166251
     17 O                    -0.208345
     18 C                    -0.148495
     19 C                     0.024423
     20 C                    -0.144225
     21 C                    -0.143660
     22 C                     0.025488
     23 O                    -0.186589
     24 H                     0.086079
     25 H                     0.087146
     26 H                     0.090812
     27 H                     0.078790
     28 H                     0.073269
     29 H                     0.078397
     30 H                     0.073775
     31 H                     0.083139
     32 O                    -0.211712
     33 C                    -0.140458
     34 C                     0.023981
     35 C                    -0.143700
     36 C                    -0.144159
     37 C                     0.025848
     38 O                    -0.185605
     39 H                     0.083496
     40 H                     0.084542
     41 H                     0.089201
     42 H                     0.091194
     43 H                     0.078754
     44 H                     0.072792
     45 H                     0.078526
     46 H                     0.072926
     47 H                     0.083521
     48 H                     0.084035
     49 H                     0.112770
     50 H                     0.078935
     51 H                     0.084069
     52 H                     0.113419
     53 H                     0.099523
     54 H                     0.092126
     55 H                     0.099699
     56 H                     0.105170
  ----------------------------------------
  Sum of atomic charges =    -0.000000

                    Cartesian Multipole Moments
 -----------------------------------------------------------------
    Charge (ESU x 10^10)
                -0.0000
    Dipole Moment (Debye)
         X       1.3506      Y       0.2637      Z      -4.6756
       Tot       4.8739
    Quadrupole Moments (Debye-Ang)
        XX    -152.5135     XY       0.4818     YY    -154.8906
        XZ       6.2230     YZ       0.4087     ZZ    -167.8090

 Total job time:  99.84s(wall), 4758.33s(cpu)
        *  Thank you very much for using Q-Chem.  Have a nice day.  *
