 Q-Chem 5.0, Q-Chem, Inc., Pleasanton, CA (2017)
 Q-Chem 5.0.1 for Intel X86 EM64T Linux

User input:
--------------------------------------------------------------
$molecule
0  1
O -3.94934 -3.66094 2.70899
C -3.26408 -4.56952 2.26188
C -3.36658 -6.02376 2.66595
C -2.05212 -6.76691 2.9554
C -0.79427 -5.92714 2.98157
O -0.33628 -5.73769 1.70886
C 0.66598 -4.71973 1.61674
C 1.96745 -5.31016 1.08412
O 2.20717 -4.84072 -0.25193
C 2.56946 -3.53801 -0.35606
C 2.79519 -3.10245 -1.78434
C 1.52116 -2.98095 -2.63308
C 0.21502 -2.95856 -1.86483
O 0.01943 -2.36071 -0.81655
O -2.52379 -4.19148 1.19456
O -0.72923 -3.73441 -2.47354
O 2.78069 -2.80928 0.60711
C -2.02411 -4.02679 -2.13028
C 3.35735 -1.66877 -1.91516
C 4.05525 -1.50824 -3.26546
C 2.86348 -1.50353 -4.19852
C 1.71965 -1.55315 -3.17987
O 2.22234 -0.85678 -2.06636
H 3.54123 -3.80559 -2.21887
H 1.45975 -3.72268 -3.46151
H 4.05558 -1.389 -1.09642
H 4.51815 -0.49526 -3.27679
H 4.83351 -2.26823 -3.49259
H 2.85351 -0.53701 -4.74985
H 2.81545 -2.35195 -4.91502
H 0.78733 -1.14194 -3.628
O -0.18286 -5.62658 4.0017
C -2.50607 -2.83962 0.85202
C -4.12384 -6.22143 3.99087
C -4.66695 -7.64771 4.07741
C -3.39161 -8.41715 4.33913
C -2.37745 -7.2708 4.38269
O -3.10301 -6.20996 4.95541
H -3.90867 -6.51681 1.82858
H -1.86505 -7.64209 2.29281
H -2.03887 -2.23834 1.66248
H -4.95149 -5.4947 4.1413
H -5.31426 -7.71873 4.9806
H -5.24193 -7.96923 3.18234
H -3.46352 -8.88097 5.34853
H -3.13901 -9.19434 3.58595
H -1.47209 -7.59966 4.9392
H -3.53555 -2.47008 0.6472
H -1.97854 -2.65696 -0.05112
H -2.45821 -4.67433 -2.91914
H -2.63462 -3.10095 -2.08978
H -2.04256 -4.61047 -1.19186
H 2.83085 -5.05875 1.74196
H 1.90045 -6.41919 1.07781
H 0.89652 -4.19822 2.57325
H 0.28699 -3.91528 0.96919
$end

$opt
CONSTRAINT
tors           1           2           3           4    -134.123
tors           3           4           5           6     -82.680
tors           4           5           6           7    +166.911
tors           5           6           7           8    +119.294
tors           6           7           8           9    +109.300
tors           7           8           9          10     +71.907
tors           8           9          10          11    -179.503
tors           9          10          11          12     +71.325
tors          11          12          13          14     +40.773
ENDCONSTRAINT
$end

$rem
JOBTYPE                   OPT
METHOD                    B3LYP
DFT_D                     d3_op
BASIS                     STO-3G
GEOM_OPT_MAX_CYCLES       100
GEOM_OPT_TOL_GRADIENT     300
GEOM_OPT_TOL_DISPLACEMENT 1200
GEOM_OPT_TOL_ENERGY       100
SYMMETRY                  False
THRESH                    12
SCF_CONVERGENCE           8
MAX_SUB_FILE_NUM          128
MEM_STATIC                400
MEM_TOTAL                 4000
$end
--------------------------------------------------------------

   16   -1510.1442378646      2.63E-09 Convergence criterion met
 Total energy in the final basis set = -1510.14423786
   14   -1510.2142068679      8.64E-09 Convergence criterion met
 Total energy in the final basis set = -1510.21420687
   14   -1510.2466741037      7.44E-09 Convergence criterion met
 Total energy in the final basis set = -1510.24667410
   15   -1510.2739450540      1.88E-09 Convergence criterion met
 Total energy in the final basis set = -1510.27394505
   14   -1510.2797554108      5.45E-09 Convergence criterion met
 Total energy in the final basis set = -1510.27975541
   13   -1510.2852480742      8.28E-09 Convergence criterion met
 Total energy in the final basis set = -1510.28524807
   14   -1510.2878319442      3.83E-09 Convergence criterion met
 Total energy in the final basis set = -1510.28783194
   13   -1510.2894652703      6.83E-09 Convergence criterion met
   11   -1510.2902988186      8.08E-09 Convergence criterion met
 Total energy in the final basis set = -1510.29029882
   11   -1510.2903634288      9.88E-09 Convergence criterion met
 Total energy in the final basis set = -1510.29036343
   11   -1510.2904002893      5.41E-09 Convergence criterion met
 Total energy in the final basis set = -1510.29040029
   11   -1510.2904169051      5.70E-09 Convergence criterion met
 Total energy in the final basis set = -1510.29041691
   11   -1510.2904234217      2.35E-09 Convergence criterion met
 Total energy in the final basis set = -1510.29042342
    9   -1510.2904252332      5.45E-09 Convergence criterion met
 Total energy in the final basis set = -1510.29042523

             Standard Nuclear Orientation (Angstroms)
    I     Atom           X                Y                Z
 ----------------------------------------------------------------
    1      O      -3.3868320169     2.2772873378     1.8319192966
    2      C      -2.9885319366     1.5619050801     0.8863716478
    3      C      -3.8956584523     0.9699499757    -0.2596807691
    4      C      -3.7068569360    -0.5634067686    -0.6510380114
    5      C      -2.5590446715    -1.3105439109     0.1105288940
    6      O      -1.3320959794    -1.0172851105    -0.5595175358
    7      C      -0.1647725458    -1.4184193774     0.2597376639
    8      C       0.7008377112    -2.5018265463    -0.4963520740
    9      O       1.9853847815    -1.9003073673    -0.9319172440
   10      C       2.8550697134    -1.6692861556     0.1826142654
   11      C       4.1577987717    -1.0257522293    -0.4124556418
   12      C       3.9216404403     0.4679943860    -0.9069450562
   13      C       2.4789771410     0.9925398155    -0.5938622576
   14      O       1.8285823353     0.7951362902     0.4635098747
   15      O      -1.6133662771     1.2670220587     0.6417449375
   16      O       1.9854836155     1.7103748945    -1.7176794664
   17      O       2.6166824942    -2.0042702627     1.3611004385
   18      C       0.6110709190     2.2174891900    -1.4698244788
   19      C       5.2766450391    -0.8117180833     0.6872537523
   20      C       6.6506771596    -0.5619980949    -0.0477363417
   21      C       6.4385421153     0.8989962804    -0.5938631581
   22      C       5.0032627233     1.2351092522    -0.0248706054
   23      O       4.9510655981     0.5140646886     1.2649710340
   24      H       4.5082081931    -1.6597256604    -1.2463978199
   25      H       4.1097489115     0.5848113178    -1.9883287035
   26      H       5.2844552992    -1.5839105377     1.4810450377
   27      H       7.4843902231    -0.6062082835     0.6710587800
   28      H       6.8350114016    -1.2952485056    -0.8490187021
   29      H       7.1868086061     1.5973422106    -0.1866577726
   30      H       6.4689531777     0.9507233235    -1.6940623425
   31      H       4.7956882142     2.3128773956     0.1226431406
   32      O      -2.6574988562    -2.0019646521     1.1478845400
   33      C      -0.7604223492     1.8415359623     1.7122050416
   34      C      -5.4076583405     0.9685281174     0.2175348521
   35      C      -6.3478325316     0.8323610989    -1.0430051750
   36      C      -6.1602254404    -0.6899379761    -1.3984330159
   37      C      -5.1386571828    -1.1394863748    -0.2806558184
   38      O      -5.5416919333    -0.3401514212     0.8985421514
   39      H      -3.7518128040     1.6046504939    -1.1543248360
   40      H      -3.5032712238    -0.6468055271    -1.7338210640
   41      H      -1.0048668832     1.4001745759     2.6988648956
   42      H      -5.6453130669     1.7948426175     0.9158092265
   43      H      -7.3911882020     1.0578411429    -0.7710440870
   44      H      -6.0442222091     1.5022699088    -1.8633898479
   45      H      -7.1057268718    -1.2472542336    -1.3026443065
   46      H      -5.7607142008    -0.8446952235    -2.4136172634
   47      H      -5.1429353867    -2.2188648181    -0.0341175462
   48      H      -0.8826670960     2.9414448909     1.7776080289
   49      H       0.2794476992     1.5819457246     1.4221708267
   50      H       0.2342269952     2.5524812837    -2.4534591381
   51      H       0.6301965593     3.0803501753    -0.7734101324
   52      H      -0.0649216289     1.4414483560    -1.0512158225
   53      H       0.8793564727    -3.3844521074     0.1540174095
   54      H       0.1888852378    -2.8222386445    -1.4261116775
   55      H      -0.5306717244    -1.8176935585     1.2287768907
   56      H       0.4606735625    -0.5128808259     0.4300082295
 ----------------------------------------------------------------

    9   -1510.2904258536      3.80E-09 Convergence criterion met
 Total energy in the final basis set = -1510.29042585
 Final energy is   -1510.29042585358
 **  OPTIMIZATION CONVERGED  **

                    Orbital Energies (a.u.)
 --------------------------------------------------------------

 Alpha MOs
 -- Occupied --
-18.954 -18.932 -18.927 -18.923 -18.892 -18.892 -18.883 -18.876
-18.871 -18.871 -10.116 -10.099 -10.096 -10.095 -10.068 -10.068
-10.067 -10.062 -10.055 -10.054 -10.049 -10.047 -10.046 -10.040
-10.037 -10.035 -10.025 -10.023 -10.018 -10.017  -1.026  -1.011
 -1.009  -1.002  -0.975  -0.966  -0.950  -0.937  -0.933  -0.929
 -0.768  -0.760  -0.729  -0.721  -0.713  -0.704  -0.692  -0.671
 -0.654  -0.617  -0.598  -0.582  -0.550  -0.543  -0.539  -0.534
 -0.517  -0.507  -0.481  -0.476  -0.464  -0.459  -0.454  -0.448
 -0.436  -0.431  -0.422  -0.419  -0.415  -0.409  -0.407  -0.403
 -0.393  -0.381  -0.375  -0.371  -0.362  -0.359  -0.355  -0.349
 -0.346  -0.338  -0.335  -0.333  -0.329  -0.327  -0.326  -0.315
 -0.309  -0.308  -0.305  -0.302  -0.294  -0.286  -0.281  -0.277
 -0.270  -0.265  -0.250  -0.244  -0.239  -0.237  -0.230  -0.193
 -0.181  -0.174  -0.169  -0.158  -0.155  -0.153  -0.149  -0.147
 -0.140

          Ground-State Mulliken Net Atomic Charges

     Atom                 Charge (a.u.)
  ----------------------------------------
      1 O                    -0.212457
      2 C                     0.207253
      3 C                    -0.077861
      4 C                    -0.078946
      5 C                     0.211217
      6 O                    -0.176184
      7 C                    -0.067193
      8 C                    -0.052081
      9 O                    -0.180612
     10 C                     0.211209
     11 C                    -0.078892
     12 C                    -0.077449
     13 C                     0.221141
     14 O                    -0.217461
     15 O                    -0.174271
     16 O                    -0.161581
     17 O                    -0.207467
     18 C                    -0.134830
     19 C                     0.025064
     20 C                    -0.143630
     21 C                    -0.143769
     22 C                     0.025749
     23 O                    -0.185722
     24 H                     0.086560
     25 H                     0.088980
     26 H                     0.090827
     27 H                     0.079269
     28 H                     0.073995
     29 H                     0.079154
     30 H                     0.074372
     31 H                     0.082621
     32 O                    -0.212726
     33 C                    -0.141822
     34 C                     0.023322
     35 C                    -0.144531
     36 C                    -0.143999
     37 C                     0.024703
     38 O                    -0.188071
     39 H                     0.082131
     40 H                     0.082833
     41 H                     0.088078
     42 H                     0.091355
     43 H                     0.078070
     44 H                     0.071730
     45 H                     0.077621
     46 H                     0.071711
     47 H                     0.086357
     48 H                     0.081634
     49 H                     0.109858
     50 H                     0.091909
     51 H                     0.086274
     52 H                     0.110244
     53 H                     0.090477
     54 H                     0.091816
     55 H                     0.099041
     56 H                     0.104979
  ----------------------------------------
  Sum of atomic charges =    -0.000000

                    Cartesian Multipole Moments
 -----------------------------------------------------------------
    Charge (ESU x 10^10)
                -0.0000
    Dipole Moment (Debye)
         X       2.1799      Y       0.9799      Z      -4.9914
       Tot       5.5341
    Quadrupole Moments (Debye-Ang)
        XX    -149.1286     XY      -1.2182     YY    -155.4617
        XZ       6.4075     YZ       0.8285     ZZ    -167.5600

 Total job time:  52.26s(wall), 2486.26s(cpu)
        *  Thank you very much for using Q-Chem.  Have a nice day.  *
