 Q-Chem 5.0, Q-Chem, Inc., Pleasanton, CA (2017)
 Q-Chem 5.0.1 for Intel X86 EM64T Linux

User input:
--------------------------------------------------------------
$molecule
0  1
O -3.94934 -3.66094 2.70899
C -3.26408 -4.56952 2.26188
C -3.36658 -6.02376 2.66595
C -2.05212 -6.76691 2.9554
C -0.79427 -5.92714 2.98157
O -0.19848 -5.94546 1.75269
C 0.96383 -5.11318 1.67793
C 2.17507 -5.93853 1.25624
O 2.56304 -5.58983 -0.08196
C 3.19038 -4.39483 -0.21453
C 3.56161 -4.08063 -1.64426
C 2.39889 -3.5984 -2.52393
C 1.14824 -3.16416 -1.78635
O 1.12028 -2.66887 -0.669
O -2.28262 -4.21005 1.39668
O 0.00427 -3.33676 -2.50212
O 3.54756 -3.70627 0.73523
C -1.28263 -3.1308 -2.06972
C 4.52479 -2.87753 -1.77599
C 5.26891 -2.95326 -3.10891
C 4.15172 -2.61727 -4.07259
C 3.02437 -2.30512 -3.0827
O 3.68589 -1.7686 -1.9646
H 4.08656 -4.97495 -2.0499
H 2.11911 -4.29989 -3.3414
H 5.25722 -2.80187 -0.94281
H 6.00759 -2.11966 -3.11806
H 5.79659 -3.91065 -3.30837
H 4.44023 -1.70443 -4.63975
H 3.86778 -3.43018 -4.77554
H 2.26662 -1.64356 -3.55964
O -0.58306 -5.08856 3.85191
C -1.93073 -2.88484 1.20544
C -4.10962 -6.23235 3.9991
C -4.64786 -7.66155 4.08234
C -3.36771 -8.43245 4.32722
C -2.35489 -7.28567 4.37443
O -3.08078 -6.22939 4.95807
H -3.91278 -6.51765 1.83172
H -1.88393 -7.61446 2.25181
H -1.66776 -2.41625 2.17859
H -4.93675 -5.5078 4.16197
H -5.28448 -7.73784 4.99266
H -5.23334 -7.9806 3.19326
H -3.4312 -8.90878 5.3312
H -3.11852 -9.19903 3.56204
H -1.43578 -7.6053 4.91388
H -2.76508 -2.32484 0.73132
H -1.03119 -2.81811 0.57933
H -1.9748 -3.28176 -2.9231
H -1.40533 -2.09256 -1.69485
H -1.53979 -3.88499 -1.30088
H 3.03082 -5.81446 1.95914
H 1.91522 -7.01837 1.28823
H 1.24638 -4.59498 2.6212
H 0.76297 -4.30674 0.96304
$end

$opt
CONSTRAINT
tors           1           2           3           4    -134.123
tors           3           4           5           6     -93.989
tors           4           5           6           7    +176.869
tors           5           6           7           8    +122.750
tors           6           7           8           9    +109.300
tors           7           8           9          10     +74.352
tors           8           9          10          11    -179.503
tors           9          10          11          12     +77.429
tors          11          12          13          14     +30.497
ENDCONSTRAINT
$end

$rem
JOBTYPE                   OPT
METHOD                    B3LYP
DFT_D                     d3_op
BASIS                     STO-3G
GEOM_OPT_MAX_CYCLES       100
GEOM_OPT_TOL_GRADIENT     300
GEOM_OPT_TOL_DISPLACEMENT 1200
GEOM_OPT_TOL_ENERGY       100
SYMMETRY                  False
THRESH                    12
SCF_CONVERGENCE           8
MAX_SUB_FILE_NUM          128
MEM_STATIC                400
MEM_TOTAL                 4000
$end
--------------------------------------------------------------

   15   -1510.1500656056      8.02E-09 Convergence criterion met
 Total energy in the final basis set = -1510.15006561
   14   -1510.2190721279      4.03E-09 Convergence criterion met
 Total energy in the final basis set = -1510.21907213
   14   -1510.2523322517      3.41E-09 Convergence criterion met
 Total energy in the final basis set = -1510.25233225
   14   -1510.2759470316      5.06E-09 Convergence criterion met
 Total energy in the final basis set = -1510.27594703
   14   -1510.2836632725      5.72E-09 Convergence criterion met
 Total energy in the final basis set = -1510.28366327
    2   -1510.2836632724      1.62E-09 Convergence criterion met
 Total energy in the final basis set = -1510.28366327
   14   -1510.2868652419      3.78E-09 Convergence criterion met
 Total energy in the final basis set = -1510.28686524
   13   -1510.2886549057      8.29E-09 Convergence criterion met
   11   -1510.2898342571      6.41E-09 Convergence criterion met
 Total energy in the final basis set = -1510.28983426
   11   -1510.2898474123      8.22E-09 Convergence criterion met
 Total energy in the final basis set = -1510.28984741
   11   -1510.2898619626      3.15E-09 Convergence criterion met
 Total energy in the final basis set = -1510.28986196
   10   -1510.2898695138      9.15E-09 Convergence criterion met
 Total energy in the final basis set = -1510.28986951
    9   -1510.2898719033      4.73E-09 Convergence criterion met
 Total energy in the final basis set = -1510.28987190
    9   -1510.2898698802      6.86E-09 Convergence criterion met
 Total energy in the final basis set = -1510.28986988

             Standard Nuclear Orientation (Angstroms)
    I     Atom           X                Y                Z
 ----------------------------------------------------------------
    1      O      -3.7368766975     2.3960236402     1.5445289997
    2      C      -3.2868110389     1.6246686241     0.6705787493
    3      C      -4.1211749831     0.8379904727    -0.4116361110
    4      C      -3.7372959541    -0.6983665428    -0.5934490758
    5      C      -2.5300356436    -1.1368980988     0.3015886746
    6      O      -1.3400416642    -1.0134972715    -0.4824577824
    7      C      -0.1490574955    -1.3426094272     0.3308916332
    8      C       0.6916700508    -2.5146574713    -0.3047029412
    9      O       1.9655654213    -1.9660107667    -0.8357064940
   10      C       2.8682354758    -1.6608669330     0.2343161172
   11      C       4.1704628261    -1.0793806534    -0.4217430812
   12      C       4.0276334493     0.4319228322    -0.8912161490
   13      C       2.6344198889     1.0762515592    -0.5763953640
   14      O       1.8638980853     0.8147628513     0.3792684725
   15      O      -1.8945407223     1.3664610199     0.4683684602
   16      O       2.3461945397     2.0443725601    -1.5827324733
   17      O       2.6593835415    -1.9143427834     1.4391128482
   18      C       1.0209853466     2.6660523262    -1.3396057483
   19      C       5.3437349848    -0.9564116139     0.6374347902
   20      C       6.7032297324    -0.7786148884    -0.1447267362
   21      C       6.5723930873     0.7093240201    -0.6422296741
   22      C       5.1761800123     1.1167610644    -0.0249677961
   23      O       5.1202234947     0.3737160104     1.2513181926
   24      H       4.4469179793    -1.7233168157    -1.2754144573
   25      H       4.2174998956     0.5461762788    -1.9728776044
   26      H       5.3327544789    -1.7432168415     1.4166068527
   27      H       7.5595325157    -0.9017591766     0.5372736641
   28      H       6.8032834493    -1.4988100334    -0.9722503758
   29      H       7.3730729757     1.3456802315    -0.2332134107
   30      H       6.5792835350     0.7936418763    -1.7407021802
   31      H       5.0357592912     2.2018045669     0.1468529121
   32      O      -2.5633413846    -1.5257277294     1.4901042947
   33      C      -1.0756529346     1.9996215652     1.5290990030
   34      C      -5.6320413938     0.7152055982     0.0483141440
   35      C      -6.5101974431     0.2958364021    -1.1948790297
   36      C      -6.1338652971    -1.2263779677    -1.3362453950
   37      C      -5.0955689351    -1.3928817888    -0.1571427985
   38      O      -5.6240299134    -0.4988272165     0.8981768835
   39      H      -4.0267447760     1.3767276592    -1.3732459259
   40      H      -3.4811150553    -0.9102281740    -1.6462984280
   41      H      -1.3660391792     1.6323199572     2.5340114087
   42      H      -5.9927961562     1.5894794249     0.6245554207
   43      H      -7.5809924331     0.4285458765    -0.9730178982
   44      H      -6.2606994809     0.8805183915    -2.0947168972
   45      H      -7.0090416370    -1.8757589372    -1.1748707237
   46      H      -5.6914805823    -1.4662523522    -2.3164317308
   47      H      -4.9782796086    -2.4221400262     0.2336942325
   48      H      -1.1738126204     3.1043171697     1.5138809818
   49      H      -0.0284035529     1.7084717423     1.3117767850
   50      H       0.8217811181     3.3061235962    -2.2184482061
   51      H       1.0306678675     3.2903343536    -0.4232404998
   52      H       0.2207470751     1.9036789892    -1.2412368357
   53      H       0.8890326330    -3.3057235533     0.4489919593
   54      H       0.1627685297    -2.9511449025    -1.1761685951
   55      H      -0.4965956920    -1.6136522353     1.3508853828
   56      H       0.4976114634    -0.4363349621     0.3871130640
 ----------------------------------------------------------------

    9   -1510.2898695554      5.74E-09 Convergence criterion met
 Total energy in the final basis set = -1510.28986956
 Final energy is   -1510.28986955544
 **  OPTIMIZATION CONVERGED  **

                    Orbital Energies (a.u.)
 --------------------------------------------------------------

 Alpha MOs
 -- Occupied --
-18.952 -18.933 -18.925 -18.920 -18.893 -18.892 -18.883 -18.875
-18.872 -18.866 -10.115 -10.098 -10.097 -10.092 -10.072 -10.066
-10.065 -10.061 -10.056 -10.056 -10.055 -10.045 -10.043 -10.039
-10.036 -10.033 -10.025 -10.023 -10.018 -10.017  -1.026  -1.011
 -1.007  -0.999  -0.975  -0.966  -0.950  -0.935  -0.934  -0.926
 -0.767  -0.760  -0.728  -0.721  -0.713  -0.703  -0.690  -0.672
 -0.657  -0.616  -0.598  -0.578  -0.549  -0.543  -0.539  -0.534
 -0.517  -0.506  -0.479  -0.475  -0.464  -0.457  -0.452  -0.448
 -0.436  -0.430  -0.422  -0.420  -0.415  -0.410  -0.407  -0.406
 -0.393  -0.379  -0.376  -0.366  -0.363  -0.358  -0.352  -0.350
 -0.347  -0.339  -0.335  -0.333  -0.328  -0.326  -0.324  -0.315
 -0.309  -0.308  -0.305  -0.303  -0.293  -0.284  -0.281  -0.275
 -0.270  -0.264  -0.249  -0.245  -0.238  -0.233  -0.230  -0.192
 -0.178  -0.175  -0.168  -0.158  -0.153  -0.150  -0.148  -0.146
 -0.140

          Ground-State Mulliken Net Atomic Charges

     Atom                 Charge (a.u.)
  ----------------------------------------
      1 O                    -0.210015
      2 C                     0.209590
      3 C                    -0.077484
      4 C                    -0.079347
      5 C                     0.212610
      6 O                    -0.175703
      7 C                    -0.071966
      8 C                    -0.052507
      9 O                    -0.179480
     10 C                     0.210911
     11 C                    -0.079867
     12 C                    -0.077796
     13 C                     0.219227
     14 O                    -0.215174
     15 O                    -0.172412
     16 O                    -0.163912
     17 O                    -0.209403
     18 C                    -0.130857
     19 C                     0.025521
     20 C                    -0.143975
     21 C                    -0.143574
     22 C                     0.025869
     23 O                    -0.186294
     24 H                     0.086125
     25 H                     0.088922
     26 H                     0.090338
     27 H                     0.079080
     28 H                     0.073933
     29 H                     0.079133
     30 H                     0.074395
     31 H                     0.082931
     32 O                    -0.216956
     33 C                    -0.134770
     34 C                     0.023451
     35 C                    -0.144324
     36 C                    -0.143859
     37 C                     0.025136
     38 O                    -0.187288
     39 H                     0.082845
     40 H                     0.084016
     41 H                     0.092382
     42 H                     0.090476
     43 H                     0.077971
     44 H                     0.072008
     45 H                     0.077649
     46 H                     0.072201
     47 H                     0.085429
     48 H                     0.083678
     49 H                     0.103033
     50 H                     0.093426
     51 H                     0.088560
     52 H                     0.101031
     53 H                     0.091098
     54 H                     0.090500
     55 H                     0.098611
     56 H                     0.104876
  ----------------------------------------
  Sum of atomic charges =    -0.000000

                    Cartesian Multipole Moments
 -----------------------------------------------------------------
    Charge (ESU x 10^10)
                -0.0000
    Dipole Moment (Debye)
         X       2.0922      Y       0.7236      Z      -4.9575
       Tot       5.4294
    Quadrupole Moments (Debye-Ang)
        XX    -149.7911     XY       1.0367     YY    -153.0836
        XZ       6.1447     YZ       0.8919     ZZ    -167.7966

 Total job time:  54.85s(wall), 2608.01s(cpu)
        *  Thank you very much for using Q-Chem.  Have a nice day.  *
