 Q-Chem 5.0, Q-Chem, Inc., Pleasanton, CA (2017)
 Q-Chem 5.0.1 for Intel X86 EM64T Linux

User input:
--------------------------------------------------------------
$molecule
0  1
O -3.7368766975 2.3960236402 1.5445289997
C -3.2868110389 1.6246686241 0.6705787493
C -4.1211749831 0.8379904727 -0.411636111
C -3.7372959541 -0.6983665428 -0.5934490758
C -2.5300356436 -1.1368980988 0.3015886746
O -1.3400416642 -1.0134972715 -0.4824577824
C -0.1490574955 -1.3426094272 0.3308916332
C 0.6916700508 -2.5146574713 -0.3047029412
O 1.9655654213 -1.9660107667 -0.835706494
C 2.8682354758 -1.660866933 0.2343161172
C 4.1704628261 -1.0793806534 -0.4217430812
C 4.0276334493 0.4319228322 -0.891216149
C 2.6344198889 1.0762515592 -0.576395364
O 1.8638980853 0.8147628513 0.3792684725
O -1.8945407223 1.3664610199 0.4683684602
O 2.3461945397 2.0443725601 -1.5827324733
O 2.6593835415 -1.9143427834 1.4391128482
C 1.0209853466 2.6660523262 -1.3396057483
C 5.3437349848 -0.9564116139 0.6374347902
C 6.7032297324 -0.7786148884 -0.1447267362
C 6.5723930873 0.7093240201 -0.6422296741
C 5.1761800123 1.1167610644 -0.0249677961
O 5.1202234947 0.3737160104 1.2513181926
H 4.4469179793 -1.7233168157 -1.2754144573
H 4.2174998956 0.5461762788 -1.9728776044
H 5.3327544789 -1.7432168415 1.4166068527
H 7.5595325157 -0.9017591766 0.5372736641
H 6.8032834493 -1.4988100334 -0.9722503758
H 7.3730729757 1.3456802315 -0.2332134107
H 6.579283535 0.7936418763 -1.7407021802
H 5.0357592912 2.2018045669 0.1468529121
O -2.5633413846 -1.5257277294 1.4901042947
C -1.0756529346 1.9996215652 1.529099003
C -5.6320413938 0.7152055982 0.048314144
C -6.5101974431 0.2958364021 -1.1948790297
C -6.1338652971 -1.2263779677 -1.336245395
C -5.0955689351 -1.3928817888 -0.1571427985
O -5.6240299134 -0.4988272165 0.8981768835
H -4.026744776 1.3767276592 -1.3732459259
H -3.4811150553 -0.910228174 -1.646298428
H -1.3660391792 1.6323199572 2.5340114087
H -5.9927961562 1.5894794249 0.6245554207
H -7.5809924331 0.4285458765 -0.9730178982
H -6.2606994809 0.8805183915 -2.0947168972
H -7.009041637 -1.8757589372 -1.1748707237
H -5.6914805823 -1.4662523522 -2.3164317308
H -4.9782796086 -2.4221400262 0.2336942325
H -1.1738126204 3.1043171697 1.5138809818
H -0.0284035529 1.7084717423 1.311776785
H 0.8217811181 3.3061235962 -2.2184482061
H 1.0306678675 3.2903343536 -0.4232404998
H 0.2207470751 1.9036789892 -1.2412368357
H 0.889032633 -3.3057235533 0.4489919593
H 0.1627685297 -2.9511449025 -1.1761685951
H -0.496595692 -1.6136522353 1.3508853828
H 0.4976114634 -0.4363349621 0.387113064
$end

$rem
JOBTYPE                   OPT
METHOD                    B3LYP
DFT_D                     d3_op
BASIS                     STO-3G
GEOM_OPT_MAX_CYCLES       100
GEOM_OPT_TOL_GRADIENT     300
GEOM_OPT_TOL_DISPLACEMENT 1200
GEOM_OPT_TOL_ENERGY       100
SYMMETRY                  False
THRESH                    12
SCF_CONVERGENCE           8
MAX_SUB_FILE_NUM          128
MEM_STATIC                400
MEM_TOTAL                 4000
$end
--------------------------------------------------------------

   16   -1510.2898198539      4.75E-09 Convergence criterion met
 Total energy in the final basis set = -1510.28981985
   15   -1510.2825692560      2.23E-09 Convergence criterion met
 Total energy in the final basis set = -1510.28256926
   15   -1510.2883802776      4.70E-09 Convergence criterion met
 Total energy in the final basis set = -1510.28838028
   14   -1510.2910120983      7.03E-09 Convergence criterion met
 Total energy in the final basis set = -1510.29101210
   14   -1510.2927843528      5.84E-09 Convergence criterion met
 Total energy in the final basis set = -1510.29278435
   14   -1510.2938500194      4.78E-09 Convergence criterion met
 Total energy in the final basis set = -1510.29385002
   13   -1510.2947390893      5.28E-09 Convergence criterion met
 Total energy in the final basis set = -1510.29473909
   13   -1510.2963915481      9.10E-09 Convergence criterion met
   12   -1510.3002297912      4.24E-09 Convergence criterion met
 Total energy in the final basis set = -1510.30022979
   12   -1510.3002538689      3.25E-09 Convergence criterion met
 Total energy in the final basis set = -1510.30025387
   11   -1510.3002538179      2.54E-09 Convergence criterion met
 Total energy in the final basis set = -1510.30025382
   11   -1510.3002563003      1.50E-09 Convergence criterion met
 Total energy in the final basis set = -1510.30025630
    9   -1510.3002561499      5.61E-09 Convergence criterion met
 Total energy in the final basis set = -1510.30025615
    9   -1510.3002573337      9.20E-09 Convergence criterion met
 Total energy in the final basis set = -1510.30025733

             Standard Nuclear Orientation (Angstroms)
    I     Atom           X                Y                Z
 ----------------------------------------------------------------
    1      O      -3.5045588283     2.2986559342     2.0087958276
    2      C      -3.0353495710     1.7202936202     1.0074241016
    3      C      -3.8039786604     1.1733477682    -0.2501195611
    4      C      -3.3821755114    -0.3054814639    -0.6502349477
    5      C      -2.3595366817    -0.9329368760     0.3590863098
    6      O      -1.1161207651    -1.1934684581    -0.3261736733
    7      C      -0.1049337786    -1.6999635209     0.6379724793
    8      C       0.8477438732    -2.7055810210    -0.0963181964
    9      O       1.9739610344    -1.9906668223    -0.7476696989
   10      C       3.0749524745    -1.8748022411     0.1670947577
   11      C       4.1970246893    -1.0094530957    -0.5065422379
   12      C       3.7250140086     0.4537825640    -0.9058181935
   13      C       2.2096697624     0.7185807989    -0.6043020135
   14      O       1.6614821648     0.7298819513     0.5253263075
   15      O      -1.6515904195     1.4419227146     0.7903469483
   16      O       1.5536287610     0.9562828575    -1.8409654680
   17      O       3.1097315303    -2.4068193013     1.2969682978
   18      C       0.0916211989     1.1363719535    -1.6537999673
   19      C       5.3385800278    -0.6873504298     0.5413021239
   20      C       6.6019574350    -0.1427944924    -0.2316266978
   21      C       6.1267927463     1.3116533347    -0.6039828088
   22      C       4.6767205272     1.3274909851     0.0214398093
   23      O       4.8155557159     0.5078218544     1.2453240442
   24      H       4.5773091352    -1.5529268822    -1.3909069643
   25      H       3.8975817728     0.6503088037    -1.9781613067
   26      H       5.5241897170    -1.5071818457     1.2619973254
   27      H       7.4803886375    -0.1228177255     0.4327433424
   28      H       6.8433174091    -0.7521705631    -1.1175238578
   29      H       6.7588178627     2.0775264881    -0.1270275486
   30      H       6.1137340920     1.4904496009    -1.6910377312
   31      H       4.2796760781     2.3306954833     0.2704389066
   32      O      -2.5684726363    -1.2402467489     1.5519330554
   33      C      -0.8132100907     1.8291721069     1.9470263603
   34      C      -5.3505533792     0.9897729968     0.0332811032
   35      C      -6.0966860634     0.8655554018    -1.3515797103
   36      C      -5.6705681081    -0.5841049269    -1.7948044845
   37      C      -4.7913175804    -1.0367560713    -0.5615337096
   38      O      -5.4393355294    -0.3789618538     0.5949575758
   39      H      -3.6243748725     1.8679425502    -1.0916340528
   40      H      -2.9509296833    -0.3443487529    -1.6655017503
   41      H      -1.0976168380     1.2584217195     2.8539205269
   42      H      -5.7659249286     1.7287859354     0.7459607549
   43      H      -7.1866532080     0.9387121812    -1.2091206741
   44      H      -5.7809089530     1.6410098418    -2.0677577928
   45      H      -6.5432223441    -1.2465527553    -1.9083764927
   46      H      -5.0972876414    -0.5900608305    -2.7357124760
   47      H      -4.7309850156    -2.1305590429    -0.4002355769
   48      H      -0.8977111624     2.9130524444     2.1638164111
   49      H       0.2210471722     1.5694744189     1.6360615432
   50      H      -0.3142813666     1.3131043883    -2.6663262113
   51      H      -0.1301054241     2.0109960586    -1.0107275076
   52      H      -0.3824802270     0.2305946466    -1.1982994441
   53      H       1.2483195161    -3.4328415050     0.6421033307
   54      H       0.3018388708    -3.2396628490    -0.9005189769
   55      H      -0.6314759466    -2.1786310044     1.4906069445
   56      H       0.4956970667    -0.8347311641     1.0046362260
 ----------------------------------------------------------------

    9   -1510.3002576844      4.24E-09 Convergence criterion met
 Total energy in the final basis set = -1510.30025768
 Final energy is   -1510.30025768439
 **  OPTIMIZATION CONVERGED  **

                    Orbital Energies (a.u.)
 --------------------------------------------------------------

 Alpha MOs
 -- Occupied --
-18.937 -18.937 -18.935 -18.933 -18.889 -18.888 -18.882 -18.879
-18.876 -18.874 -10.104 -10.103 -10.103 -10.100 -10.073 -10.062
-10.062 -10.061 -10.059 -10.058 -10.049 -10.041 -10.041 -10.040
-10.038 -10.038 -10.022 -10.022 -10.021 -10.020  -1.019  -1.015
 -1.009  -1.006  -0.971  -0.970  -0.943  -0.938  -0.936  -0.936
 -0.766  -0.764  -0.729  -0.724  -0.712  -0.707  -0.698  -0.657
 -0.655  -0.618  -0.598  -0.581  -0.548  -0.545  -0.539  -0.537
 -0.512  -0.511  -0.486  -0.474  -0.459  -0.458  -0.455  -0.453
 -0.437  -0.432  -0.430  -0.418  -0.415  -0.409  -0.401  -0.398
 -0.391  -0.383  -0.372  -0.368  -0.363  -0.362  -0.355  -0.352
 -0.342  -0.342  -0.338  -0.332  -0.331  -0.327  -0.324  -0.312
 -0.311  -0.307  -0.306  -0.302  -0.292  -0.289  -0.285  -0.275
 -0.273  -0.263  -0.254  -0.245  -0.242  -0.235  -0.234  -0.185
 -0.178  -0.174  -0.171  -0.162  -0.159  -0.153  -0.151  -0.145
 -0.144

          Ground-State Mulliken Net Atomic Charges

     Atom                 Charge (a.u.)
  ----------------------------------------
      1 O                    -0.205849
      2 C                     0.213255
      3 C                    -0.078690
      4 C                    -0.078788
      5 C                     0.216403
      6 O                    -0.174876
      7 C                    -0.063669
      8 C                    -0.053378
      9 O                    -0.174669
     10 C                     0.210877
     11 C                    -0.078193
     12 C                    -0.079251
     13 C                     0.218050
     14 O                    -0.227903
     15 O                    -0.176428
     16 O                    -0.166172
     17 O                    -0.208288
     18 C                    -0.148493
     19 C                     0.024382
     20 C                    -0.144206
     21 C                    -0.143652
     22 C                     0.025484
     23 O                    -0.186506
     24 H                     0.086049
     25 H                     0.087183
     26 H                     0.090804
     27 H                     0.078780
     28 H                     0.073262
     29 H                     0.078428
     30 H                     0.073786
     31 H                     0.083105
     32 O                    -0.211556
     33 C                    -0.140454
     34 C                     0.023985
     35 C                    -0.143659
     36 C                    -0.144193
     37 C                     0.025865
     38 O                    -0.185583
     39 H                     0.083471
     40 H                     0.084543
     41 H                     0.089248
     42 H                     0.091236
     43 H                     0.078743
     44 H                     0.072779
     45 H                     0.078539
     46 H                     0.072941
     47 H                     0.083492
     48 H                     0.083915
     49 H                     0.112745
     50 H                     0.078993
     51 H                     0.084172
     52 H                     0.113394
     53 H                     0.099242
     54 H                     0.092174
     55 H                     0.099778
     56 H                     0.105352
  ----------------------------------------
  Sum of atomic charges =    -0.000000

                    Cartesian Multipole Moments
 -----------------------------------------------------------------
    Charge (ESU x 10^10)
                -0.0000
    Dipole Moment (Debye)
         X       1.3916      Y       0.1506      Z      -4.6754
       Tot       4.8805
    Quadrupole Moments (Debye-Ang)
        XX    -152.4589     XY       0.4657     YY    -154.8232
        XZ       6.3266     YZ       0.1565     ZZ    -167.7847

 Total job time:  97.09s(wall), 4630.71s(cpu)
        *  Thank you very much for using Q-Chem.  Have a nice day.  *
