 Q-Chem 5.0, Q-Chem, Inc., Pleasanton, CA (2017)
 Q-Chem 5.0.1 for Intel X86 EM64T Linux

User input:
--------------------------------------------------------------
$molecule
0  1
O -3.94934 -3.66094 2.70899
C -3.26408 -4.56952 2.26188
C -3.36658 -6.02376 2.66595
C -2.05212 -6.76691 2.9554
C -0.79427 -5.92714 2.98157
O -0.31401 -5.77116 1.71253
C 0.83124 -4.91494 1.64512
C 1.87796 -5.50992 0.7089
O 2.15305 -4.59415 -0.36281
C 2.88141 -3.5016 -0.02373
C 3.04534 -2.52634 -1.16508
C 1.76319 -1.7863 -1.57338
C 0.61851 -1.85151 -0.58235
O 0.72643 -1.76186 0.6321
O -2.55963 -4.36724 1.12802
O -0.50513 -1.33786 -1.16127
O 3.4047 -3.346 1.07364
C -1.37724 -0.42282 -0.59545
C 3.96472 -1.32477 -0.84603
C 4.51944 -0.74307 -2.14579
C 3.27339 -0.10503 -2.72371
C 2.28875 -0.33766 -1.57237
O 3.09311 -0.3087 -0.41884
H 3.50397 -3.09474 -2.00577
H 1.3816 -2.11824 -2.56511
H 4.80171 -1.5746 -0.15833
H 5.23111 0.06468 -1.85967
H 5.03728 -1.46387 -2.81441
H 3.46928 0.98093 -2.86628
H 2.90341 -0.55504 -3.67041
H 1.46764 0.4119 -1.60936
O -0.20274 -5.59946 4.00504
C -2.49277 -3.17368 0.46926
C -4.11739 -6.21456 3.99688
C -4.66512 -7.63854 4.09208
C -3.39094 -8.41142 4.34752
C -2.3738 -7.26743 4.38469
O -3.09317 -6.20294 4.95737
H -3.92144 -6.52094 1.83885
H -1.86544 -7.64538 2.29707
H -2.03521 -2.41455 1.13723
H -4.94271 -5.48561 4.14949
H -5.30562 -7.70289 5.00064
H -5.24861 -7.96234 3.20338
H -3.45934 -8.87565 5.35696
H -3.14366 -9.18853 3.59249
H -1.46681 -7.59722 4.93815
H -3.50963 -2.85129 0.158
H -1.87244 -3.31567 -0.43635
H -2.41547 -0.80195 -0.64118
H -1.34652 0.51112 -1.19336
H -1.11118 -0.16924 0.4529
H 2.78701 -5.87327 1.23733
H 1.42828 -6.39964 0.21774
H 1.28698 -4.54354 2.58961
H 0.42306 -4.02175 1.15213
$end

$opt
CONSTRAINT
tors           1           2           3           4    -134.123
tors           3           4           5           6     -84.481
tors           4           5           6           7    +176.271
tors           5           6           7           8    +137.034
tors           6           7           8           9    +120.829
tors           7           8           9          10     +73.176
tors           8           9          10          11    -175.518
tors           9          10          11          12     +69.617
tors          11          12          13          14     +40.773
ENDCONSTRAINT
$end

$rem
JOBTYPE                   OPT
METHOD                    B3LYP
DFT_D                     d3_op
BASIS                     STO-3G
GEOM_OPT_MAX_CYCLES       100
GEOM_OPT_TOL_GRADIENT     300
GEOM_OPT_TOL_DISPLACEMENT 1200
GEOM_OPT_TOL_ENERGY       100
SYMMETRY                  False
THRESH                    12
SCF_CONVERGENCE           8
MAX_SUB_FILE_NUM          128
MEM_STATIC                400
MEM_TOTAL                 4000
$end
--------------------------------------------------------------

   15   -1510.1337907441      7.65E-09 Convergence criterion met
 Total energy in the final basis set = -1510.13379074
   14   -1510.2030727994      7.59E-09 Convergence criterion met
 Total energy in the final basis set = -1510.20307280
   15   -1510.2320771864      2.24E-09 Convergence criterion met
 Total energy in the final basis set = -1510.23207719
   15   -1510.2571123825      2.20E-09 Convergence criterion met
 Total energy in the final basis set = -1510.25711238
   13   -1510.2653920501      6.72E-09 Convergence criterion met
 Total energy in the final basis set = -1510.26539205
   13   -1510.2702435814      3.48E-09 Convergence criterion met
 Total energy in the final basis set = -1510.27024358
   13   -1510.2728520908      4.31E-09 Convergence criterion met
 Total energy in the final basis set = -1510.27285209
   13   -1510.2736893716      4.03E-09 Convergence criterion met
   11   -1510.2903774001      2.93E-09 Convergence criterion met
 Total energy in the final basis set = -1510.29037740
    9   -1510.2903807317      8.83E-09 Convergence criterion met
 Total energy in the final basis set = -1510.29038073
    9   -1510.2903864619      6.01E-09 Convergence criterion met
 Total energy in the final basis set = -1510.29038646
    9   -1510.2903900107      5.71E-09 Convergence criterion met
 Total energy in the final basis set = -1510.29039001
    9   -1510.2903961836      5.20E-09 Convergence criterion met
 Total energy in the final basis set = -1510.29039618
    9   -1510.2904001272      3.78E-09 Convergence criterion met
 Total energy in the final basis set = -1510.29040013

             Standard Nuclear Orientation (Angstroms)
    I     Atom           X                Y                Z
 ----------------------------------------------------------------
    1      O      -3.3818732996    -2.7290404123    -1.3158143294
    2      C      -3.0256095549    -1.8021383436    -0.5564847364
    3      C      -3.9590817266    -1.0117494632     0.4428315236
    4      C      -3.7891987863     0.5712620844     0.4235712675
    5      C      -2.4851300872     1.0704090341    -0.2847236004
    6      O      -1.4286207045     1.0253976514     0.6820532452
    7      C      -0.1445824777     1.4012796704     0.0509609305
    8      C       0.6778133591     2.3686982303     0.9810363858
    9      O       1.9977860186     1.7733668531     1.3143906913
   10      C       2.8753381191     1.8142040003     0.1851046158
   11      C       4.1975267833     1.0653240809     0.5872011648
   12      C       4.0466807571    -0.5057479402     0.7658357875
   13      C       2.6100665511    -1.0618920736     0.4945784168
   14      O       1.8189975389    -0.7206260248    -0.4192817001
   15      O      -1.6828033204    -1.3219008923    -0.4643881382
   16      O       2.3101796107    -2.0276388712     1.4982832241
   17      O       2.6219059388     2.3880573035    -0.8946877278
   18      C       0.9469202247    -2.5853901979     1.3201214379
   19      C       5.2535790459     1.1372110150    -0.5930198846
   20      C       6.6778769122     0.7739625920    -0.0202538389
   21      C       6.5371269098    -0.7818702248     0.1745849655
   22      C       5.0657428893    -1.0230972281    -0.3467919676
   23      O       4.9066532552    -0.0338495780    -1.4328577233
   24      H       4.5830327231     1.5185076273     1.5185710118
   25      H       4.3493796947    -0.8320621055     1.7762704710
   26      H       5.1915441649     2.0674453606    -1.1901873382
   27      H       7.4619772765     1.0187173284    -0.7541835139
   28      H       6.8960675060     1.3035141883     0.9208172591
   29      H       7.2591179546    -1.3347976479    -0.4471386178
   30      H       6.6614595360    -1.0948833777     1.2236271250
   31      H       4.8584392571    -2.0460828454    -0.7168080452
   32      O      -2.3633064545     1.4771879514    -1.4608830251
   33      C      -0.8346223087    -1.9150144095    -1.5276883766
   34      C      -5.4462124144    -1.1414366694    -0.0863394283
   35      C      -6.4504358315    -0.5683312666     0.9895011452
   36      C      -6.2826016455     0.9830245060     0.7774130863
   37      C      -5.1312044596     1.0104744082    -0.3014951164
   38      O      -5.4707306109    -0.1356888935    -1.1764147219
   39      H      -3.8242292041    -1.4159142231     1.4632089705
   40      H      -3.7607907003     0.9461862038     1.4623908611
   41      H      -1.1489560588    -1.5542055475    -2.5276132481
   42      H      -5.6853987807    -2.1465335374    -0.4851456956
   43      H      -7.4787702812    -0.8991393424     0.7741154626
   44      H      -6.1849601835    -0.8874781860     2.0103235351
   45      H      -7.2011268374     1.4344863410     0.3694343481
   46      H      -6.0066482737     1.5141018840     1.7021823886
   47      H      -5.0475161457     1.9399463118    -0.8973159660
   48      H      -0.8879403369    -3.0221223001    -1.5171470368
   49      H       0.1976358885    -1.5714400058    -1.3049741078
   50      H       0.7223138958    -3.1362248110     2.2518636897
   51      H       0.9142380454    -3.2884598793     0.4635033045
   52      H       0.1870192813    -1.7930608322     1.1589955585
   53      H       0.8086331945     3.3607948989     0.4996724815
   54      H       0.1579829817     2.4967058405     1.9523965354
   55      H      -0.3605997669     1.8708345927    -0.9320146228
   56      H       0.4615564114     0.4813953777    -0.1262646343
 ----------------------------------------------------------------

    9   -1510.2904016935      2.98E-09 Convergence criterion met
 Total energy in the final basis set = -1510.29040169
 Final energy is   -1510.29040169347
 **  OPTIMIZATION CONVERGED  **

                    Orbital Energies (a.u.)
 --------------------------------------------------------------

 Alpha MOs
 -- Occupied --
-18.954 -18.932 -18.929 -18.919 -18.894 -18.893 -18.882 -18.877
-18.873 -18.864 -10.117 -10.100 -10.097 -10.092 -10.072 -10.067
-10.067 -10.061 -10.055 -10.054 -10.049 -10.046 -10.043 -10.041
-10.036 -10.032 -10.025 -10.023 -10.018 -10.016  -1.027  -1.011
 -1.010  -0.998  -0.975  -0.965  -0.951  -0.937  -0.933  -0.926
 -0.768  -0.759  -0.729  -0.721  -0.714  -0.703  -0.690  -0.674
 -0.654  -0.616  -0.598  -0.579  -0.549  -0.542  -0.539  -0.533
 -0.518  -0.505  -0.479  -0.476  -0.466  -0.458  -0.454  -0.447
 -0.436  -0.432  -0.423  -0.421  -0.413  -0.410  -0.404  -0.401
 -0.393  -0.380  -0.375  -0.367  -0.363  -0.358  -0.356  -0.348
 -0.347  -0.340  -0.335  -0.331  -0.328  -0.326  -0.325  -0.314
 -0.309  -0.308  -0.305  -0.302  -0.295  -0.285  -0.282  -0.275
 -0.269  -0.264  -0.249  -0.244  -0.239  -0.236  -0.230  -0.194
 -0.178  -0.174  -0.171  -0.159  -0.153  -0.152  -0.149  -0.144
 -0.140

          Ground-State Mulliken Net Atomic Charges

     Atom                 Charge (a.u.)
  ----------------------------------------
      1 O                    -0.210993
      2 C                     0.209868
      3 C                    -0.076831
      4 C                    -0.080767
      5 C                     0.214814
      6 O                    -0.177646
      7 C                    -0.071720
      8 C                    -0.052275
      9 O                    -0.178442
     10 C                     0.211022
     11 C                    -0.078939
     12 C                    -0.078040
     13 C                     0.221103
     14 O                    -0.215498
     15 O                    -0.173454
     16 O                    -0.162491
     17 O                    -0.207278
     18 C                    -0.132500
     19 C                     0.025172
     20 C                    -0.144134
     21 C                    -0.143614
     22 C                     0.026134
     23 O                    -0.185597
     24 H                     0.085888
     25 H                     0.089273
     26 H                     0.091516
     27 H                     0.079398
     28 H                     0.073955
     29 H                     0.079270
     30 H                     0.074341
     31 H                     0.082614
     32 O                    -0.217196
     33 C                    -0.139916
     34 C                     0.023408
     35 C                    -0.145267
     36 C                    -0.142811
     37 C                     0.023858
     38 O                    -0.189071
     39 H                     0.083045
     40 H                     0.082761
     41 H                     0.089705
     42 H                     0.090254
     43 H                     0.077871
     44 H                     0.071951
     45 H                     0.077675
     46 H                     0.072163
     47 H                     0.087354
     48 H                     0.083282
     49 H                     0.107899
     50 H                     0.093521
     51 H                     0.087868
     52 H                     0.103924
     53 H                     0.090209
     54 H                     0.091586
     55 H                     0.099060
     56 H                     0.102720
  ----------------------------------------
  Sum of atomic charges =    -0.000000

                    Cartesian Multipole Moments
 -----------------------------------------------------------------
    Charge (ESU x 10^10)
                -0.0000
    Dipole Moment (Debye)
         X       2.1214      Y      -0.7884      Z       4.7989
       Tot       5.3058
    Quadrupole Moments (Debye-Ang)
        XX    -145.2790     XY      -4.7685     YY    -155.9473
        XZ      -5.9174     YZ       1.3909     ZZ    -167.4297

 Total job time:  120.46s(wall), 5741.45s(cpu)
        *  Thank you very much for using Q-Chem.  Have a nice day.  *
