 Q-Chem 5.0, Q-Chem, Inc., Pleasanton, CA (2017)
 Q-Chem 5.0.1 for Intel X86 EM64T Linux

User input:
--------------------------------------------------------------
$molecule
0  1
O -3.3818732996 -2.7290404123 -1.3158143294
C -3.0256095549 -1.8021383436 -0.5564847364
C -3.9590817266 -1.0117494632 0.4428315236
C -3.7891987863 0.5712620844 0.4235712675
C -2.4851300872 1.0704090341 -0.2847236004
O -1.4286207045 1.0253976514 0.6820532452
C -0.1445824777 1.4012796704 0.0509609305
C 0.6778133591 2.3686982303 0.9810363858
O 1.9977860186 1.7733668531 1.3143906913
C 2.8753381191 1.8142040003 0.1851046158
C 4.1975267833 1.0653240809 0.5872011648
C 4.0466807571 -0.5057479402 0.7658357875
C 2.6100665511 -1.0618920736 0.4945784168
O 1.8189975389 -0.7206260248 -0.4192817001
O -1.6828033204 -1.3219008923 -0.4643881382
O 2.3101796107 -2.0276388712 1.4982832241
O 2.6219059388 2.3880573035 -0.8946877278
C 0.9469202247 -2.5853901979 1.3201214379
C 5.2535790459 1.137211015 -0.5930198846
C 6.6778769122 0.773962592 -0.0202538389
C 6.5371269098 -0.7818702248 0.1745849655
C 5.0657428893 -1.0230972281 -0.3467919676
O 4.9066532552 -0.033849578 -1.4328577233
H 4.5830327231 1.5185076273 1.5185710118
H 4.3493796947 -0.8320621055 1.776270471
H 5.1915441649 2.0674453606 -1.1901873382
H 7.4619772765 1.0187173284 -0.7541835139
H 6.896067506 1.3035141883 0.9208172591
H 7.2591179546 -1.3347976479 -0.4471386178
H 6.661459536 -1.0948833777 1.223627125
H 4.8584392571 -2.0460828454 -0.7168080452
O -2.3633064545 1.4771879514 -1.4608830251
C -0.8346223087 -1.9150144095 -1.5276883766
C -5.4462124144 -1.1414366694 -0.0863394283
C -6.4504358315 -0.5683312666 0.9895011452
C -6.2826016455 0.983024506 0.7774130863
C -5.1312044596 1.0104744082 -0.3014951164
O -5.4707306109 -0.1356888935 -1.1764147219
H -3.8242292041 -1.4159142231 1.4632089705
H -3.7607907003 0.9461862038 1.4623908611
H -1.1489560588 -1.5542055475 -2.5276132481
H -5.6853987807 -2.1465335374 -0.4851456956
H -7.4787702812 -0.8991393424 0.7741154626
H -6.1849601835 -0.887478186 2.0103235351
H -7.2011268374 1.434486341 0.3694343481
H -6.0066482737 1.514101884 1.7021823886
H -5.0475161457 1.9399463118 -0.897315966
H -0.8879403369 -3.0221223001 -1.5171470368
H 0.1976358885 -1.5714400058 -1.3049741078
H 0.7223138958 -3.136224811 2.2518636897
H 0.9142380454 -3.2884598793 0.4635033045
H 0.1870192813 -1.7930608322 1.1589955585
H 0.8086331945 3.3607948989 0.4996724815
H 0.1579829817 2.4967058405 1.9523965354
H -0.3605997669 1.8708345927 -0.9320146228
H 0.4615564114 0.4813953777 -0.1262646343
$end

$rem
JOBTYPE                   OPT
METHOD                    B3LYP
DFT_D                     d3_op
BASIS                     STO-3G
GEOM_OPT_MAX_CYCLES       100
GEOM_OPT_TOL_GRADIENT     300
GEOM_OPT_TOL_DISPLACEMENT 1200
GEOM_OPT_TOL_ENERGY       100
SYMMETRY                  False
THRESH                    12
SCF_CONVERGENCE           8
MAX_SUB_FILE_NUM          128
MEM_STATIC                400
MEM_TOTAL                 4000
$end
--------------------------------------------------------------

   16   -1510.2903608428      2.48E-09 Convergence criterion met
 Total energy in the final basis set = -1510.29036084
   14   -1510.2885122355      6.29E-09 Convergence criterion met
 Total energy in the final basis set = -1510.28851224
   13   -1510.2908606020      5.95E-09 Convergence criterion met
 Total energy in the final basis set = -1510.29086060
   14   -1510.2633606392      8.84E-09 Convergence criterion met
 Total energy in the final basis set = -1510.26336064
   15   -1510.2871883477      5.70E-09 Convergence criterion met
 Total energy in the final basis set = -1510.28718835
   15   -1510.2887396608      7.90E-09 Convergence criterion met
 Total energy in the final basis set = -1510.28873966
   14   -1510.2914099278      2.36E-09 Convergence criterion met
 Total energy in the final basis set = -1510.29140993
   14   -1510.2907682702      6.87E-09 Convergence criterion met
   11   -1510.3002661686      6.14E-09 Convergence criterion met
 Total energy in the final basis set = -1510.30026617
   10   -1510.3002768625      7.29E-09 Convergence criterion met
 Total energy in the final basis set = -1510.30027686
   11   -1510.3002765956      5.15E-09 Convergence criterion met
 Total energy in the final basis set = -1510.30027660
   11   -1510.3002860840      3.32E-09 Convergence criterion met
 Total energy in the final basis set = -1510.30028608
   11   -1510.3002907219      5.59E-09 Convergence criterion met
 Total energy in the final basis set = -1510.30029072
   11   -1510.3002954893      2.06E-09 Convergence criterion met
 Total energy in the final basis set = -1510.30029549

             Standard Nuclear Orientation (Angstroms)
    I     Atom           X                Y                Z
 ----------------------------------------------------------------
    1      O       3.5777128715    -2.1492642295     2.1058892555
    2      C       3.0903691454    -1.6141366116     1.0893677480
    3      C       3.8360718658    -1.1000700982    -0.1957459715
    4      C       3.3919918242     0.3596895557    -0.6385096290
    5      C       2.3685489856     1.0043209282     0.3579085081
    6      O       1.1052896129     1.1892046408    -0.3152899378
    7      C       0.0923149932     1.7029009760     0.6427865076
    8      C      -0.8716433942     2.6890835326    -0.1026452832
    9      O      -1.9854206395     1.9509251326    -0.7495202327
   10      C      -3.0874961466     1.8314426287     0.1630947033
   11      C      -4.1964751755     0.9442920452    -0.5050137766
   12      C      -3.7103349951    -0.5247929951    -0.8642488716
   13      C      -2.1955868510    -0.7722598535    -0.5431110765
   14      O      -1.6540556895    -0.7500256760     0.5896039992
   15      O       1.6999192434    -1.3684665638     0.8732906893
   16      O      -1.5301954783    -1.0393962908    -1.7687631052
   17      O      -3.1336558746     2.3757655166     1.2866715090
   18      C      -0.0693975917    -1.2096195531    -1.5652118364
   19      C      -5.3523129703     0.6380757995     0.5324135832
   20      C      -6.5999640538     0.0667607165    -0.2475019831
   21      C      -6.1098248438    -1.3928797116    -0.5779779812
   22      C      -4.6694816277    -1.3836473190     0.0701076459
   23      O      -4.8331973496    -0.5369167644     1.2720305914
   24      H      -4.5676835263     1.4648495882    -1.4068227801
   25      H      -3.8700471302    -0.7473318442    -1.9334968627
   26      H      -5.5559019604     1.4724367676     1.2312350479
   27      H      -7.4885681787     0.0561483604     0.4034265982
   28      H      -6.8313135017     0.6533633839    -1.1512112922
   29      H      -6.7441048314    -2.1516688157    -0.0926807924
   30      H      -6.0786269648    -1.5974740551    -1.6600804147
   31      H      -4.2700645405    -2.3782364409     0.3482853649
   32      O       2.5861465897     1.3719391080     1.5320686970
   33      C       0.8711862583    -1.7405413815     2.0418498415
   34      C       5.3833080249    -0.8895300001     0.0601512280
   35      C       6.1087919890    -0.7958216551    -1.3380222845
   36      C       5.6624326766     0.6370601063    -1.8146955257
   37      C       4.7907971610     1.1121288061    -0.5847000424
   38      O       5.4610460133     0.4956233037     0.5820938446
   39      H       3.6522712276    -1.8246049733    -1.0107701973
   40      H       2.9516149934     0.3597240839    -1.6506743264
   41      H       1.1358456506    -1.1307105413     2.9291160450
   42      H       5.8174750429    -1.6027735811     0.7876650524
   43      H       7.2012875875    -0.8553541308    -1.2096244319
   44      H       5.7898491355    -1.5934335759    -2.0278852647
   45      H       6.5266383860     1.3054897776    -1.9549124017
   46      H       5.0794451849     0.6122406556    -2.7493876930
   47      H       4.7160904828     2.2089312597    -0.4528428059
   48      H       0.9872918078    -2.8132656294     2.2962378853
   49      H      -0.1704570222    -1.5233187835     1.7225836248
   50      H       0.3452637727    -1.4121679722    -2.5693178598
   51      H       0.1480454972    -2.0670013947    -0.8980947127
   52      H       0.3974141607    -0.2898996720    -1.1308162670
   53      H      -1.2851711947     3.4166546709     0.6282835140
   54      H      -0.3320813256     3.2237678323    -0.9105971757
   55      H       0.6193763561     2.1981293494     1.4857492522
   56      H      -0.5006046710     0.8383761626     1.0237218582
 ----------------------------------------------------------------

    9   -1510.3002963708      6.92E-09 Convergence criterion met
 Total energy in the final basis set = -1510.30029637
 Final energy is   -1510.30029637078
 **  OPTIMIZATION CONVERGED  **

                    Orbital Energies (a.u.)
 --------------------------------------------------------------

 Alpha MOs
 -- Occupied --
-18.937 -18.937 -18.935 -18.933 -18.889 -18.888 -18.882 -18.879
-18.877 -18.874 -10.104 -10.103 -10.103 -10.100 -10.073 -10.062
-10.062 -10.061 -10.059 -10.058 -10.050 -10.042 -10.041 -10.040
-10.039 -10.038 -10.022 -10.022 -10.021 -10.021  -1.019  -1.015
 -1.009  -1.006  -0.971  -0.970  -0.943  -0.938  -0.937  -0.936
 -0.766  -0.764  -0.729  -0.724  -0.712  -0.707  -0.698  -0.657
 -0.655  -0.618  -0.598  -0.581  -0.549  -0.545  -0.539  -0.537
 -0.512  -0.511  -0.486  -0.474  -0.459  -0.458  -0.455  -0.453
 -0.437  -0.432  -0.430  -0.418  -0.416  -0.409  -0.401  -0.398
 -0.391  -0.383  -0.372  -0.368  -0.364  -0.362  -0.355  -0.352
 -0.342  -0.341  -0.338  -0.332  -0.331  -0.327  -0.325  -0.312
 -0.311  -0.307  -0.306  -0.302  -0.292  -0.289  -0.285  -0.275
 -0.273  -0.263  -0.254  -0.245  -0.242  -0.235  -0.234  -0.186
 -0.178  -0.174  -0.171  -0.162  -0.159  -0.153  -0.151  -0.145
 -0.144

          Ground-State Mulliken Net Atomic Charges

     Atom                 Charge (a.u.)
  ----------------------------------------
      1 O                    -0.205708
      2 C                     0.213099
      3 C                    -0.078528
      4 C                    -0.078824
      5 C                     0.216409
      6 O                    -0.174867
      7 C                    -0.064199
      8 C                    -0.053476
      9 O                    -0.174767
     10 C                     0.210714
     11 C                    -0.078178
     12 C                    -0.079242
     13 C                     0.217649
     14 O                    -0.227573
     15 O                    -0.176555
     16 O                    -0.166164
     17 O                    -0.208331
     18 C                    -0.147859
     19 C                     0.024492
     20 C                    -0.144224
     21 C                    -0.143642
     22 C                     0.025502
     23 O                    -0.186489
     24 H                     0.085983
     25 H                     0.087159
     26 H                     0.090662
     27 H                     0.078759
     28 H                     0.073254
     29 H                     0.078379
     30 H                     0.073765
     31 H                     0.083072
     32 O                    -0.211473
     33 C                    -0.140075
     34 C                     0.023902
     35 C                    -0.143703
     36 C                    -0.144128
     37 C                     0.025822
     38 O                    -0.185518
     39 H                     0.083552
     40 H                     0.084727
     41 H                     0.089108
     42 H                     0.091181
     43 H                     0.078781
     44 H                     0.072786
     45 H                     0.078570
     46 H                     0.072935
     47 H                     0.083691
     48 H                     0.084217
     49 H                     0.112277
     50 H                     0.079245
     51 H                     0.083746
     52 H                     0.113756
     53 H                     0.099268
     54 H                     0.091915
     55 H                     0.100243
     56 H                     0.104907
  ----------------------------------------
  Sum of atomic charges =     0.000000

                    Cartesian Multipole Moments
 -----------------------------------------------------------------
    Charge (ESU x 10^10)
                -0.0000
    Dipole Moment (Debye)
         X      -1.3792      Y      -0.3421      Z      -4.6733
       Tot       4.8846
    Quadrupole Moments (Debye-Ang)
        XX    -153.0756     XY       0.0625     YY    -154.7985
        XZ      -6.3093     YZ      -0.6955     ZZ    -167.8904

 Total job time:  103.07s(wall), 4916.33s(cpu)
        *  Thank you very much for using Q-Chem.  Have a nice day.  *
