 Q-Chem 5.0, Q-Chem, Inc., Pleasanton, CA (2017)
 Q-Chem 5.0.1 for Intel X86 EM64T Linux

User input:
--------------------------------------------------------------
$molecule
0  1
O -3.94934 -3.66094 2.70899
C -3.26408 -4.56952 2.26188
C -3.36658 -6.02376 2.66595
C -2.06328 -6.73622 3.06303
C -0.82998 -5.86866 3.18299
O -0.35514 -5.5627 1.93947
C 0.66522 -4.55881 1.95759
C 1.83886 -4.98639 1.08244
O 1.88678 -4.17577 -0.10225
C 2.16843 -2.8646 0.09938
C 2.19268 -2.06435 -1.18112
C 0.81841 -1.83381 -1.82651
C -0.38136 -2.11158 -0.94327
O -0.47415 -1.81682 0.23956
O -2.71557 -4.44222 1.04091
O -1.49464 -1.99112 -1.72269
O 2.48353 -2.39164 1.18593
C -2.48791 -1.03468 -1.57348
C 2.66852 -0.60353 -1.00772
C 3.20908 -0.07921 -2.33692
C 1.92731 0.04124 -3.13317
C 0.89961 -0.30828 -2.05056
O 1.48842 0.1428 -0.85598
H 2.90984 -2.57739 -1.86152
H 0.69548 -2.41238 -2.76988
H 3.43596 -0.47468 -0.21377
H 3.60383 0.94411 -2.1425
H 4.0058 -0.69231 -2.81037
H 1.81742 1.09867 -3.4616
H 1.84264 -0.64174 -4.00612
H -0.08136 0.14503 -2.30393
O -0.28772 -5.5814 4.24528
C -3.21744 -3.57464 0.1171
C -4.19556 -6.21412 3.95449
C -4.73949 -7.6408 4.02423
C -3.47592 -8.40656 4.34422
C -2.4752 -7.25292 4.46026
O -3.23895 -6.19477 4.98262
H -3.88202 -6.5453 1.82746
H -1.8039 -7.59394 2.40254
H -3.09357 -2.53748 0.48807
H -5.03601 -5.49319 4.05397
H -5.42029 -7.69984 4.90358
H -5.28279 -7.97643 3.11475
H -3.60421 -8.89658 5.3353
H -3.16987 -9.16021 3.58683
H -1.60436 -7.57643 5.07218
H -4.29636 -3.78071 -0.0546
H -2.70235 -3.7706 -0.83776
H -2.50025 -0.39042 -2.47635
H -2.31842 -0.38703 -0.68617
H -3.48512 -1.51187 -1.51097
H 2.80213 -4.89209 1.63453
H 1.74148 -6.05725 0.80299
H 1.07705 -4.31843 2.96271
H 0.21798 -3.61278 1.61963
$end

$opt
CONSTRAINT
tors           1           2           3           4    -129.409
tors           3           4           5           6     -76.557
tors           4           5           6           7    +169.685
tors           5           6           7           8    +133.272
tors           6           7           8           9    +109.300
tors           7           8           9          10     +66.161
tors           8           9          10          11    -179.503
tors           9          10          11          12     +71.325
tors          11          12          13          14     +40.773
ENDCONSTRAINT
$end

$rem
JOBTYPE                   OPT
METHOD                    B3LYP
DFT_D                     d3_op
BASIS                     STO-3G
GEOM_OPT_MAX_CYCLES       100
GEOM_OPT_TOL_GRADIENT     300
GEOM_OPT_TOL_DISPLACEMENT 1200
GEOM_OPT_TOL_ENERGY       100
SYMMETRY                  False
THRESH                    12
SCF_CONVERGENCE           8
MAX_SUB_FILE_NUM          128
MEM_STATIC                400
MEM_TOTAL                 4000
$end
--------------------------------------------------------------

   16   -1510.1152334215      3.02E-09 Convergence criterion met
 Total energy in the final basis set = -1510.11523342
   14   -1510.1836821988      8.24E-09 Convergence criterion met
 Total energy in the final basis set = -1510.18368220
   15   -1510.2193101835      2.73E-09 Convergence criterion met
 Total energy in the final basis set = -1510.21931018
   15   -1510.2436577482      1.62E-09 Convergence criterion met
 Total energy in the final basis set = -1510.24365775
   14   -1510.2541553320      6.26E-09 Convergence criterion met
 Total energy in the final basis set = -1510.25415533
   14   -1510.2608101143      4.91E-09 Convergence criterion met
 Total energy in the final basis set = -1510.26081011
   14   -1510.2652533980      2.69E-09 Convergence criterion met
 Total energy in the final basis set = -1510.26525340
   13   -1510.2678269534      6.75E-09 Convergence criterion met
   12   -1510.2906824095      2.80E-09 Convergence criterion met
 Total energy in the final basis set = -1510.29068241
   11   -1510.2907297344      6.24E-09 Convergence criterion met
 Total energy in the final basis set = -1510.29072973
   11   -1510.2907477234      9.22E-09 Convergence criterion met
 Total energy in the final basis set = -1510.29074772
   11   -1510.2907577752      4.22E-09 Convergence criterion met
 Total energy in the final basis set = -1510.29075778
   11   -1510.2907624339      2.88E-09 Convergence criterion met
 Total energy in the final basis set = -1510.29076243
   10   -1510.2907644228      9.47E-09 Convergence criterion met
 Total energy in the final basis set = -1510.29076442

             Standard Nuclear Orientation (Angstroms)
    I     Atom           X                Y                Z
 ----------------------------------------------------------------
    1      O      -3.1467012168     2.5015174517     1.7034385547
    2      C      -2.7634669782     1.7014050552     0.8222496693
    3      C      -3.6339542127     1.1820642235    -0.3862388346
    4      C      -3.6799679475    -0.3924257888    -0.6069213375
    5      C      -2.5680152473    -1.2249904428     0.1187917947
    6      O      -1.3553389542    -1.0619097674    -0.6202471241
    7      C      -0.1969259910    -1.6118440815     0.1268954774
    8      C       0.6651933486    -2.4970022141    -0.8560983938
    9      O       1.9595051480    -1.8535976722    -1.1834008321
   10      C       2.8033666356    -1.7649225468    -0.0277393589
   11      C       4.1225974337    -1.0597949551    -0.5050096851
   12      C       3.9005889652     0.4831146916    -0.8162034886
   13      C       2.4536961891     0.9615502017    -0.4527453650
   14      O       1.8059345558     0.6249173825     0.5694781616
   15      O      -1.4349562963     1.1786502527     0.7586786449
   16      O       1.9757154549     1.8269449767    -1.4727890958
   17      O       2.5406277464    -2.2532094273     1.0904547735
   18      C       0.6200488754     2.3506866958    -1.1631961702
   19      C       5.2084430464    -0.9889857132     0.6451134597
   20      C       6.6038642249    -0.6594724717    -0.0123237845
   21      C       6.4113644671     0.8587491352    -0.3826085247
   22      C       4.9601883875     1.1313630910     0.1795529165
   23      O       4.8682730341     0.2588118685     1.3702998703
   24      H       4.4954304029    -1.5889901258    -1.4002336494
   25      H       4.1062315816     0.7363908707    -1.8706455311
   26      H       5.1891420044    -1.8527438372     1.3375384616
   27      H       7.4155913127    -0.7949203668     0.7200327107
   28      H       6.8125332875    -1.2895447123    -0.8917674454
   29      H       7.1477561020     1.4978592273     0.1298685005
   30      H       6.4763369053     1.0439435740    -1.4668407148
   31      H       4.7503267283     2.1842826607     0.4509601112
   32      O      -2.6833732390    -1.9052212263     1.1619915512
   33      C      -0.6469519956     1.6265491250     1.9357010025
   34      C      -5.1525688288     1.4538498539    -0.0197072750
   35      C      -6.0687129692     1.2009119841    -1.2811535052
   36      C      -6.1355539212    -0.3723038391    -1.3060790056
   37      C      -5.1545665875    -0.7275523845    -0.1226487361
   38      O      -5.4559646008     0.3170000449     0.8828316042
   39      H      -3.3105844396     1.6996068135    -1.3083822790
   40      H      -3.5737619648    -0.5991941468    -1.6877501994
   41      H       0.3969660568     1.3354313559     1.6964039723
   42      H      -5.3092057538     2.4144950260     0.5084844527
   43      H      -7.0642766060     1.6477728979    -1.1321850801
   44      H      -5.6286541176     1.6206203433    -2.2000990637
   45      H      -7.1519257637    -0.7343911009    -1.0825411731
   46      H      -5.8106851551    -0.8006075877    -2.2678252660
   47      H      -5.2711021944    -1.7365651353     0.3182415013
   48      H      -0.9946933079     1.1185094243     2.8569655603
   49      H      -0.7280054634     2.7219418173     2.0802142003
   50      H       0.1961683090     2.6798244030    -2.1296751067
   51      H       0.6957689797     3.2263367971    -0.4863555347
   52      H      -0.0497096747     1.5974916360    -0.6897618417
   53      H       0.8332683768    -3.5047559641    -0.4182116272
   54      H       0.1353274115    -2.6035385050    -1.8243189080
   55      H      -0.5708796330    -2.2006688414     0.9905462126
   56      H       0.4191254843    -0.7568855127     0.4881776438
 ----------------------------------------------------------------

   10   -1510.2907650393      8.38E-09 Convergence criterion met
 Total energy in the final basis set = -1510.29076504
 Final energy is   -1510.29076503933
 **  OPTIMIZATION CONVERGED  **

                    Orbital Energies (a.u.)
 --------------------------------------------------------------

 Alpha MOs
 -- Occupied --
-18.951 -18.935 -18.928 -18.923 -18.891 -18.889 -18.883 -18.876
-18.875 -18.870 -10.114 -10.099 -10.098 -10.096 -10.069 -10.066
-10.062 -10.061 -10.055 -10.055 -10.051 -10.046 -10.044 -10.040
-10.039 -10.035 -10.024 -10.023 -10.019 -10.018  -1.024  -1.013
 -1.009  -1.002  -0.974  -0.967  -0.948  -0.937  -0.935  -0.929
 -0.767  -0.761  -0.729  -0.722  -0.713  -0.704  -0.692  -0.669
 -0.654  -0.617  -0.598  -0.582  -0.549  -0.543  -0.539  -0.535
 -0.515  -0.507  -0.480  -0.477  -0.465  -0.459  -0.454  -0.449
 -0.435  -0.432  -0.422  -0.417  -0.413  -0.408  -0.406  -0.402
 -0.394  -0.381  -0.374  -0.371  -0.361  -0.359  -0.354  -0.348
 -0.347  -0.339  -0.334  -0.333  -0.329  -0.327  -0.326  -0.314
 -0.309  -0.308  -0.304  -0.302  -0.296  -0.285  -0.282  -0.276
 -0.270  -0.264  -0.250  -0.244  -0.239  -0.238  -0.231  -0.191
 -0.180  -0.175  -0.167  -0.160  -0.155  -0.152  -0.148  -0.148
 -0.141

          Ground-State Mulliken Net Atomic Charges

     Atom                 Charge (a.u.)
  ----------------------------------------
      1 O                    -0.210075
      2 C                     0.209057
      3 C                    -0.076986
      4 C                    -0.080098
      5 C                     0.211531
      6 O                    -0.176477
      7 C                    -0.065326
      8 C                    -0.050899
      9 O                    -0.179880
     10 C                     0.211923
     11 C                    -0.078983
     12 C                    -0.077551
     13 C                     0.221443
     14 O                    -0.218542
     15 O                    -0.173693
     16 O                    -0.162616
     17 O                    -0.207817
     18 C                    -0.140043
     19 C                     0.024913
     20 C                    -0.143597
     21 C                    -0.143774
     22 C                     0.025568
     23 O                    -0.185973
     24 H                     0.086255
     25 H                     0.088676
     26 H                     0.090758
     27 H                     0.079099
     28 H                     0.073855
     29 H                     0.079035
     30 H                     0.074324
     31 H                     0.082438
     32 O                    -0.214276
     33 C                    -0.143051
     34 C                     0.023743
     35 C                    -0.145495
     36 C                    -0.142787
     37 C                     0.023569
     38 O                    -0.188872
     39 H                     0.082867
     40 H                     0.082438
     41 H                     0.112936
     42 H                     0.090852
     43 H                     0.078224
     44 H                     0.071835
     45 H                     0.077848
     46 H                     0.072044
     47 H                     0.088077
     48 H                     0.087427
     49 H                     0.084651
     50 H                     0.088832
     51 H                     0.082629
     52 H                     0.113784
     53 H                     0.087726
     54 H                     0.092923
     55 H                     0.100443
     56 H                     0.105086
  ----------------------------------------
  Sum of atomic charges =     0.000000

                    Cartesian Multipole Moments
 -----------------------------------------------------------------
    Charge (ESU x 10^10)
                 0.0000
    Dipole Moment (Debye)
         X       2.0641      Y       0.8900      Z      -4.7398
       Tot       5.2458
    Quadrupole Moments (Debye-Ang)
        XX    -149.0198     XY       1.0167     YY    -156.1079
        XZ       6.5343     YZ       1.2149     ZZ    -166.7594

 Total job time:  141.66s(wall), 6750.51s(cpu)
        *  Thank you very much for using Q-Chem.  Have a nice day.  *
