 Q-Chem 5.0, Q-Chem, Inc., Pleasanton, CA (2017)
 Q-Chem 5.0.1 for Intel X86 EM64T Linux

User input:
--------------------------------------------------------------
$molecule
0  1
O -3.1467012168 2.5015174517 1.7034385547
C -2.7634669782 1.7014050552 0.8222496693
C -3.6339542127 1.1820642235 -0.3862388346
C -3.6799679475 -0.3924257888 -0.6069213375
C -2.5680152473 -1.2249904428 0.1187917947
O -1.3553389542 -1.0619097674 -0.6202471241
C -0.196925991 -1.6118440815 0.1268954774
C 0.6651933486 -2.4970022141 -0.8560983938
O 1.959505148 -1.8535976722 -1.1834008321
C 2.8033666356 -1.7649225468 -0.0277393589
C 4.1225974337 -1.0597949551 -0.5050096851
C 3.9005889652 0.4831146916 -0.8162034886
C 2.4536961891 0.9615502017 -0.452745365
O 1.8059345558 0.6249173825 0.5694781616
O -1.4349562963 1.1786502527 0.7586786449
O 1.9757154549 1.8269449767 -1.4727890958
O 2.5406277464 -2.2532094273 1.0904547735
C 0.6200488754 2.3506866958 -1.1631961702
C 5.2084430464 -0.9889857132 0.6451134597
C 6.6038642249 -0.6594724717 -0.0123237845
C 6.4113644671 0.8587491352 -0.3826085247
C 4.9601883875 1.131363091 0.1795529165
O 4.8682730341 0.2588118685 1.3702998703
H 4.4954304029 -1.5889901258 -1.4002336494
H 4.1062315816 0.7363908707 -1.8706455311
H 5.1891420044 -1.8527438372 1.3375384616
H 7.4155913127 -0.7949203668 0.7200327107
H 6.8125332875 -1.2895447123 -0.8917674454
H 7.147756102 1.4978592273 0.1298685005
H 6.4763369053 1.043943574 -1.4668407148
H 4.7503267283 2.1842826607 0.4509601112
O -2.683373239 -1.9052212263 1.1619915512
C -0.6469519956 1.626549125 1.9357010025
C -5.1525688288 1.4538498539 -0.019707275
C -6.0687129692 1.2009119841 -1.2811535052
C -6.1355539212 -0.3723038391 -1.3060790056
C -5.1545665875 -0.7275523845 -0.1226487361
O -5.4559646008 0.3170000449 0.8828316042
H -3.3105844396 1.6996068135 -1.308382279
H -3.5737619648 -0.5991941468 -1.6877501994
H 0.3969660568 1.3354313559 1.6964039723
H -5.3092057538 2.414495026 0.5084844527
H -7.064276606 1.6477728979 -1.1321850801
H -5.6286541176 1.6206203433 -2.2000990637
H -7.1519257637 -0.7343911009 -1.0825411731
H -5.8106851551 -0.8006075877 -2.267825266
H -5.2711021944 -1.7365651353 0.3182415013
H -0.9946933079 1.1185094243 2.8569655603
H -0.7280054634 2.7219418173 2.0802142003
H 0.196168309 2.679824403 -2.1296751067
H 0.6957689797 3.2263367971 -0.4863555347
H -0.0497096747 1.597491636 -0.6897618417
H 0.8332683768 -3.5047559641 -0.4182116272
H 0.1353274115 -2.603538505 -1.824318908
H -0.570879633 -2.2006688414 0.9905462126
H 0.4191254843 -0.7568855127 0.4881776438
$end

$rem
JOBTYPE                   OPT
METHOD                    B3LYP
DFT_D                     d3_op
BASIS                     STO-3G
GEOM_OPT_MAX_CYCLES       100
GEOM_OPT_TOL_GRADIENT     300
GEOM_OPT_TOL_DISPLACEMENT 1200
GEOM_OPT_TOL_ENERGY       100
SYMMETRY                  False
THRESH                    12
SCF_CONVERGENCE           8
MAX_SUB_FILE_NUM          128
MEM_STATIC                400
MEM_TOTAL                 4000
$end
--------------------------------------------------------------

   16   -1510.2909840016      5.32E-09 Convergence criterion met
 Total energy in the final basis set = -1510.29098400
   14   -1510.2800314610      3.50E-09 Convergence criterion met
 Total energy in the final basis set = -1510.28003146
   14   -1510.2863541077      2.80E-09 Convergence criterion met
 Total energy in the final basis set = -1510.28635411
   14   -1510.2881044013      7.91E-09 Convergence criterion met
 Total energy in the final basis set = -1510.28810440
   15   -1510.2830604841      3.13E-09 Convergence criterion met
 Total energy in the final basis set = -1510.28306048
   14   -1510.2917840831      2.20E-09 Convergence criterion met
 Total energy in the final basis set = -1510.29178408
   13   -1510.2937660280      9.51E-09 Convergence criterion met
 Total energy in the final basis set = -1510.29376603
   13   -1510.2955558552      7.20E-09 Convergence criterion met
   10   -1510.3002644224      7.62E-09 Convergence criterion met
 Total energy in the final basis set = -1510.30026442
    9   -1510.3002735174      9.02E-09 Convergence criterion met
 Total energy in the final basis set = -1510.30027352
   11   -1510.3002783458      4.96E-09 Convergence criterion met
 Total energy in the final basis set = -1510.30027835
    9   -1510.3002828692      9.21E-09 Convergence criterion met
 Total energy in the final basis set = -1510.30028287
   10   -1510.3002842001      6.79E-09 Convergence criterion met
 Total energy in the final basis set = -1510.30028420
   10   -1510.3002876341      8.96E-09 Convergence criterion met
 Total energy in the final basis set = -1510.30028763

             Standard Nuclear Orientation (Angstroms)
    I     Atom           X                Y                Z
 ----------------------------------------------------------------
    1      O      -3.5048804247     2.2668231387     2.0821236312
    2      C      -3.0415581014     1.7036765834     1.0694238379
    3      C      -3.8171597300     1.1770204231    -0.1925646412
    4      C      -3.3953863701    -0.2938576838    -0.6204243988
    5      C      -2.3625421315    -0.9364427444     0.3689152238
    6      O      -1.1229927018    -1.1763766290    -0.3306821221
    7      C      -0.1030025796    -1.7014802683     0.6139482407
    8      C       0.8462735750    -2.6873508139    -0.1508853050
    9      O       1.9641181724    -1.9540629469    -0.7960216043
   10      C       3.0740206738    -1.8573369309     0.1101138805
   11      C       4.1876290814    -0.9742861077    -0.5543668737
   12      C       3.7086852491     0.4961226404    -0.9171652598
   13      C       2.1953346823     0.7508817638    -0.5970322981
   14      O       1.6568240708     0.7385114403     0.5372143088
   15      O      -1.6593099692     1.4276575712     0.8404269777
   16      O       1.5281471725     1.0111216864    -1.8231992157
   17      O       3.1215526372    -2.4159274157     1.2266039871
   18      C       0.0674435096     1.1840188610    -1.6199624319
   19      C       5.3381925656    -0.6723370659     0.4897000256
   20      C       6.5931783794    -0.1082977766    -0.2830599426
   21      C       6.1111415139     1.3525602846    -0.6200551930
   22      C       4.6672870463     1.3516825602     0.0200498884
   23      O       4.8194757570     0.5059894882     1.2243480613
   24      H       4.5612458246    -1.4975135265    -1.4536565755
   25      H       3.8713159422     0.7164911664    -1.9863830960
   26      H       5.5323555691    -1.5071963466     1.1906576331
   27      H       7.4776026933    -0.1001140680     0.3735610432
   28      H       6.8275823243    -0.6981882758    -1.1838436462
   29      H       6.7462979276     2.1098883101    -0.1337051429
   30      H       6.0863503643     1.5539144155    -1.7029264263
   31      H       4.2707531255     2.3484569441     0.2944357399
   32      O      -2.5615913622    -1.2704477838     1.5562558288
   33      C      -0.8137375013     1.7953634462     1.9982227243
   34      C      -5.3613458369     0.9857741542     0.0978113791
   35      C      -6.1168118164     0.8816964077    -1.2835020463
   36      C      -5.6916512993    -0.5605072603    -1.7518027206
   37      C      -4.8019901488    -1.0300045916    -0.5322589328
   38      O      -5.4433306394    -0.3917121257     0.6388110045
   39      H      -3.6441488405     1.8864531183    -1.0230146699
   40      H      -2.9727062923    -0.3146276681    -1.6398662557
   41      H       0.2193239518     1.5471457767     1.6740926886
   42      H      -5.7732814806     1.7126957977     0.8247985417
   43      H      -7.2058584754     0.9509425504    -1.1323971190
   44      H      -5.8072580822     1.6685474475    -1.9898692654
   45      H      -6.5641077484    -1.2227158389    -1.8683562357
   46      H      -5.1259290384    -0.5514438902    -2.6972691190
   47      H      -4.7378106296    -2.1260059528    -0.3882921833
   48      H      -1.0883831730     1.2046316240     2.8953003613
   49      H      -0.9018107568     2.8740886560     2.2379428115
   50      H      -0.3475646485     1.3803112409    -2.6251700218
   51      H      -0.1502532387     2.0451021478    -0.9576002928
   52      H      -0.4008213401     0.2682139107    -1.1787657177
   53      H       1.2559344087    -3.4292467065     0.5676800155
   54      H       0.2947915296    -3.2054107638    -0.9617384693
   55      H      -0.6216749498    -2.2009758528     1.4595054807
   56      H       0.4981612095    -0.8432465787     0.9957497402
 ----------------------------------------------------------------

    9   -1510.3002881622      3.68E-09 Convergence criterion met
 Total energy in the final basis set = -1510.30028816
 Final energy is   -1510.30028816224
 **  OPTIMIZATION CONVERGED  **

                    Orbital Energies (a.u.)
 --------------------------------------------------------------

 Alpha MOs
 -- Occupied --
-18.937 -18.937 -18.935 -18.933 -18.889 -18.888 -18.882 -18.879
-18.876 -18.873 -10.104 -10.103 -10.103 -10.100 -10.073 -10.062
-10.062 -10.061 -10.059 -10.058 -10.049 -10.041 -10.041 -10.040
-10.038 -10.038 -10.022 -10.022 -10.021 -10.020  -1.019  -1.015
 -1.009  -1.006  -0.971  -0.970  -0.943  -0.938  -0.936  -0.936
 -0.766  -0.764  -0.729  -0.724  -0.712  -0.707  -0.698  -0.657
 -0.655  -0.618  -0.598  -0.581  -0.548  -0.545  -0.539  -0.537
 -0.512  -0.511  -0.486  -0.474  -0.459  -0.458  -0.455  -0.453
 -0.437  -0.432  -0.430  -0.418  -0.415  -0.409  -0.401  -0.398
 -0.391  -0.383  -0.372  -0.368  -0.363  -0.362  -0.355  -0.352
 -0.342  -0.342  -0.338  -0.332  -0.331  -0.327  -0.324  -0.312
 -0.311  -0.307  -0.306  -0.302  -0.292  -0.289  -0.285  -0.275
 -0.273  -0.263  -0.254  -0.245  -0.242  -0.235  -0.234  -0.185
 -0.178  -0.174  -0.171  -0.162  -0.159  -0.153  -0.151  -0.145
 -0.144

          Ground-State Mulliken Net Atomic Charges

     Atom                 Charge (a.u.)
  ----------------------------------------
      1 O                    -0.205842
      2 C                     0.213300
      3 C                    -0.078681
      4 C                    -0.078816
      5 C                     0.216476
      6 O                    -0.174910
      7 C                    -0.063515
      8 C                    -0.053373
      9 O                    -0.174630
     10 C                     0.210913
     11 C                    -0.078207
     12 C                    -0.079254
     13 C                     0.217991
     14 O                    -0.227913
     15 O                    -0.176340
     16 O                    -0.166208
     17 O                    -0.208308
     18 C                    -0.148461
     19 C                     0.024415
     20 C                    -0.144208
     21 C                    -0.143667
     22 C                     0.025496
     23 O                    -0.186538
     24 H                     0.086053
     25 H                     0.087170
     26 H                     0.090797
     27 H                     0.078783
     28 H                     0.073264
     29 H                     0.078409
     30 H                     0.073781
     31 H                     0.083109
     32 O                    -0.211698
     33 C                    -0.140477
     34 C                     0.023980
     35 C                    -0.143690
     36 C                    -0.144168
     37 C                     0.025851
     38 O                    -0.185607
     39 H                     0.083494
     40 H                     0.084536
     41 H                     0.112801
     42 H                     0.091206
     43 H                     0.078753
     44 H                     0.072789
     45 H                     0.078527
     46 H                     0.072923
     47 H                     0.083523
     48 H                     0.089190
     49 H                     0.084034
     50 H                     0.078981
     51 H                     0.084072
     52 H                     0.113460
     53 H                     0.099276
     54 H                     0.092178
     55 H                     0.099764
     56 H                     0.105212
  ----------------------------------------
  Sum of atomic charges =    -0.000000

                    Cartesian Multipole Moments
 -----------------------------------------------------------------
    Charge (ESU x 10^10)
                -0.0000
    Dipole Moment (Debye)
         X       1.3518      Y       0.2412      Z      -4.6805
       Tot       4.8777
    Quadrupole Moments (Debye-Ang)
        XX    -152.4524     XY       0.4202     YY    -154.8612
        XZ       6.2437     YZ       0.3863     ZZ    -167.9076

 Total job time:  97.11s(wall), 4629.74s(cpu)
        *  Thank you very much for using Q-Chem.  Have a nice day.  *
