 Q-Chem 5.0, Q-Chem, Inc., Pleasanton, CA (2017)
 Q-Chem 5.0.1 for Intel X86 EM64T Linux

User input:
--------------------------------------------------------------
$molecule
0  1
O -3.94934 -3.66094 2.70899
C -3.26408 -4.56952 2.26188
C -3.36658 -6.02376 2.66595
C -2.04982 -6.79115 2.86874
C -0.77816 -5.97357 2.81854
O -0.47236 -5.67032 1.52241
C 0.69933 -4.85772 1.39557
C 1.61334 -5.41893 0.31125
O 1.70279 -4.49145 -0.78176
C 2.31529 -3.31489 -0.49949
C 2.36719 -2.37955 -1.68402
C 1.00771 -1.8182 -2.1256
C -0.12627 -1.97571 -1.13264
O -0.09114 -1.64039 0.04248
O -2.70636 -4.42238 1.04633
O -1.2988 -1.79906 -1.80642
O 2.84554 -3.0593 0.57585
C -2.2637 -0.84699 -1.51675
C 3.13609 -1.06234 -1.43022
C 3.62134 -0.48686 -2.76039
C 2.30981 -0.03192 -3.36696
C 1.35554 -0.31989 -2.20259
O 2.14804 -0.13567 -1.05462
H 2.88827 -2.93165 -2.49891
H 0.68507 -2.2501 -3.10049
H 3.99462 -1.17455 -0.73292
H 4.23109 0.41343 -2.51899
H 4.2232 -1.17476 -3.39238
H 2.37561 1.06071 -3.56601
H 1.99925 -0.57087 -4.28835
H 0.44919 0.32085 -2.27564
O -0.07843 -5.72422 3.79487
C -2.92157 -3.35151 0.23411
C -4.01872 -6.20112 4.05235
C -4.60066 -7.6083 4.18263
C -3.33455 -8.42297 4.32272
C -2.28416 -7.3084 4.30665
O -2.92887 -6.23012 4.93806
H -4.00243 -6.51053 1.89219
H -1.92109 -7.6509 2.17336
H -2.53139 -2.43144 0.7164
H -4.80862 -5.45045 4.27233
H -5.15968 -7.65631 5.14457
H -5.2721 -7.91043 3.35024
H -3.34373 -8.91636 5.3204
H -3.16448 -9.18127 3.52816
H -1.35024 -7.67109 4.79006
H -4.00786 -3.24219 0.0262
H -2.41408 -3.56854 -0.72086
H -2.34733 -0.15447 -2.37938
H -2.01163 -0.24653 -0.61628
H -3.25352 -1.32377 -1.38445
H 2.62209 -5.66468 0.71331
H 1.18658 -6.36659 -0.08167
H 1.29748 -4.68054 2.31678
H 0.33458 -3.85635 1.10179
$end

$opt
CONSTRAINT
tors           1           2           3           4    -137.894
tors           3           4           5           6     -76.557
tors           4           5           6           7    +178.075
tors           5           6           7           8    +133.272
tors           6           7           8           9    +114.609
tors           7           8           9          10     +66.161
tors           8           9          10          11    -179.503
tors           9          10          11          12     +68.450
tors          11          12          13          14     +51.708
ENDCONSTRAINT
$end

$rem
JOBTYPE                   OPT
METHOD                    B3LYP
DFT_D                     d3_op
BASIS                     STO-3G
GEOM_OPT_MAX_CYCLES       100
GEOM_OPT_TOL_GRADIENT     300
GEOM_OPT_TOL_DISPLACEMENT 1200
GEOM_OPT_TOL_ENERGY       100
SYMMETRY                  False
THRESH                    12
SCF_CONVERGENCE           8
MAX_SUB_FILE_NUM          128
MEM_STATIC                400
MEM_TOTAL                 4000
$end
--------------------------------------------------------------

   16   -1510.1240648456      3.05E-09 Convergence criterion met
 Total energy in the final basis set = -1510.12406485
   14   -1510.1935213103      8.06E-09 Convergence criterion met
 Total energy in the final basis set = -1510.19352131
   15   -1510.2241360145      2.70E-09 Convergence criterion met
 Total energy in the final basis set = -1510.22413601
   15   -1510.2491374623      3.47E-09 Convergence criterion met
 Total energy in the final basis set = -1510.24913746
   14   -1510.2580617108      4.63E-09 Convergence criterion met
 Total energy in the final basis set = -1510.25806171
   13   -1510.2637028350      7.10E-09 Convergence criterion met
 Total energy in the final basis set = -1510.26370284
   13   -1510.2674388651      4.30E-09 Convergence criterion met
 Total energy in the final basis set = -1510.26743887
   13   -1510.2698508521      6.99E-09 Convergence criterion met
   12   -1510.2903803896      3.69E-09 Convergence criterion met
 Total energy in the final basis set = -1510.29038039
   12   -1510.2905120547      5.13E-09 Convergence criterion met
 Total energy in the final basis set = -1510.29051205
   11   -1510.2905989715      9.92E-09 Convergence criterion met
 Total energy in the final basis set = -1510.29059897
   11   -1510.2906382142      6.73E-09 Convergence criterion met
 Total energy in the final basis set = -1510.29063821
    9   -1510.2906501327      8.75E-09 Convergence criterion met
 Total energy in the final basis set = -1510.29065013
    9   -1510.2906534338      3.80E-09 Convergence criterion met
 Total energy in the final basis set = -1510.29065343

             Standard Nuclear Orientation (Angstroms)
    I     Atom           X                Y                Z
 ----------------------------------------------------------------
    1      O       3.2159832918    -2.7460427629     1.4929527917
    2      C       2.8699669238    -1.8244596077     0.7213780549
    3      C       3.7920824671    -1.1510790848    -0.3702240710
    4      C       3.7130196962     0.4320323106    -0.5156661078
    5      C       2.4964006465     1.1279069202     0.1836451312
    6      O       1.3391695153     0.9031845670    -0.6262492606
    7      C       0.1351465996     1.4979931353     0.0017527949
    8      C      -0.6690052011     2.3105230182    -1.0864038270
    9      O      -1.9919936779     1.6893970178    -1.3384214684
   10      C      -2.8332146346     1.7809780161    -0.1825253433
   11      C      -4.1877443941     1.0850990988    -0.5625037902
   12      C      -4.0126553082    -0.4861066838    -0.7487736888
   13      C      -2.5439617811    -0.9641574596    -0.4799438402
   14      O      -1.8533170008    -0.7105661686     0.5389140970
   15      O       1.5493368695    -1.2888922910     0.6682340781
   16      O      -2.0854037194    -1.7034241384    -1.6051223645
   17      O      -2.5329043292     2.3668564957     0.8777788856
   18      C      -0.6858288160    -2.1644748967    -1.4194012865
   19      C      -5.2224017910     1.1376177738     0.6344053306
   20      C      -6.6487868913     0.7516151381     0.0805375813
   21      C      -6.4857828764    -0.8015289531    -0.1203628821
   22      C      -5.0024378842    -1.0207559445     0.3775834933
   23      O      -4.8437399886    -0.0305923380     1.4643933738
   24      H      -4.5812104079     1.5495527204    -1.4845472669
   25      H      -4.3110742625    -0.8195420908    -1.7580520054
   26      H      -5.1693521275     2.0669077698     1.2339307173
   27      H      -7.4260741481     0.9817329164     0.8263349819
   28      H      -6.8890613284     1.2797416953    -0.8559308274
   29      H      -7.1899634080    -1.3676329416     0.5098951595
   30      H      -6.6207062155    -1.1130641972    -1.1685476756
   31      H      -4.7734019243    -2.0400024506     0.7448368743
   32      O       2.5056692040     1.7901502740     1.2443689825
   33      C       0.6881444169    -1.8882118747     1.7177820621
   34      C       5.2932162984    -1.3135945244     0.1089065635
   35      C       6.2766273524    -0.9304393432    -1.0657288306
   36      C       6.2090781228     0.6420034115    -1.0267929408
   37      C       5.1158106503     0.8633456051     0.0890136080
   38      O       5.4289584945    -0.1966171066     1.0751831845
   39      H       3.5967382252    -1.6425833850    -1.3416615303
   40      H       3.6539254449     0.6884139044    -1.5892906045
   41      H       0.9822164875    -1.5266130365     2.7234020940
   42      H       5.4885801386    -2.2823239589     0.6089315293
   43      H       7.2932957779    -1.2989442803    -0.8567157889
   44      H       5.9442670366    -1.3450249925    -2.0311480216
   45      H       7.1706226981     1.0771899883    -0.7106259455
   46      H       5.9217317579     1.0839965487    -1.9941528477
   47      H       5.1127986721     1.8573711564     0.5768906169
   48      H       0.7497937426    -2.9946450411     1.7069667113
   49      H      -0.3405111481    -1.5487963769     1.4696113010
   50      H      -0.6516138361    -3.0429381830    -0.7435426452
   51      H      -0.0222226978    -1.3749125825    -1.0065055184
   52      H      -0.3333664875    -2.4654699132    -2.4229489834
   53      H      -0.7890577459     3.3701627793    -0.7747447353
   54      H      -0.1349769859     2.2710724325    -2.0573433587
   55      H       0.4527955768     2.1387694879     0.8509904055
   56      H      -0.5050098860     0.6679672074     0.3819087703
 ----------------------------------------------------------------

    9   -1510.2906542883      3.77E-09 Convergence criterion met
 Total energy in the final basis set = -1510.29065429
 Final energy is   -1510.29065428834
 **  OPTIMIZATION CONVERGED  **

                    Orbital Energies (a.u.)
 --------------------------------------------------------------

 Alpha MOs
 -- Occupied --
-18.952 -18.932 -18.931 -18.922 -18.892 -18.888 -18.882 -18.880
-18.871 -18.869 -10.115 -10.101 -10.096 -10.095 -10.071 -10.066
-10.066 -10.061 -10.055 -10.054 -10.050 -10.046 -10.044 -10.041
-10.037 -10.034 -10.024 -10.023 -10.018 -10.017  -1.024  -1.013
 -1.010  -1.001  -0.974  -0.966  -0.948  -0.940  -0.932  -0.928
 -0.768  -0.759  -0.729  -0.721  -0.713  -0.703  -0.692  -0.670
 -0.653  -0.617  -0.598  -0.582  -0.550  -0.542  -0.539  -0.534
 -0.516  -0.506  -0.480  -0.477  -0.464  -0.459  -0.455  -0.448
 -0.436  -0.432  -0.422  -0.418  -0.413  -0.407  -0.406  -0.400
 -0.395  -0.380  -0.375  -0.372  -0.363  -0.358  -0.356  -0.349
 -0.346  -0.339  -0.335  -0.330  -0.329  -0.326  -0.326  -0.314
 -0.309  -0.308  -0.304  -0.301  -0.295  -0.287  -0.282  -0.277
 -0.269  -0.263  -0.251  -0.243  -0.239  -0.238  -0.230  -0.190
 -0.182  -0.173  -0.168  -0.161  -0.155  -0.152  -0.148  -0.146
 -0.140

          Ground-State Mulliken Net Atomic Charges

     Atom                 Charge (a.u.)
  ----------------------------------------
      1 O                    -0.213563
      2 C                     0.208679
      3 C                    -0.076810
      4 C                    -0.080463
      5 C                     0.214069
      6 O                    -0.176702
      7 C                    -0.067400
      8 C                    -0.051487
      9 O                    -0.179136
     10 C                     0.210882
     11 C                    -0.078378
     12 C                    -0.077807
     13 C                     0.220057
     14 O                    -0.218776
     15 O                    -0.172985
     16 O                    -0.161677
     17 O                    -0.205680
     18 C                    -0.135465
     19 C                     0.025018
     20 C                    -0.143946
     21 C                    -0.143669
     22 C                     0.025792
     23 O                    -0.185112
     24 H                     0.086641
     25 H                     0.088333
     26 H                     0.090890
     27 H                     0.079335
     28 H                     0.073822
     29 H                     0.079127
     30 H                     0.074134
     31 H                     0.082855
     32 O                    -0.214649
     33 C                    -0.142128
     34 C                     0.023162
     35 C                    -0.145319
     36 C                    -0.142996
     37 C                     0.023650
     38 O                    -0.189406
     39 H                     0.082266
     40 H                     0.081969
     41 H                     0.087022
     42 H                     0.090954
     43 H                     0.078012
     44 H                     0.071766
     45 H                     0.077831
     46 H                     0.071861
     47 H                     0.088206
     48 H                     0.083214
     49 H                     0.110635
     50 H                     0.085362
     51 H                     0.110623
     52 H                     0.091210
     53 H                     0.088359
     54 H                     0.093225
     55 H                     0.101625
     56 H                     0.102964
  ----------------------------------------
  Sum of atomic charges =    -0.000000

                    Cartesian Multipole Moments
 -----------------------------------------------------------------
    Charge (ESU x 10^10)
                -0.0000
    Dipole Moment (Debye)
         X      -2.1432      Y      -0.6764      Z      -4.9159
       Tot       5.4052
    Quadrupole Moments (Debye-Ang)
        XX    -146.3419     XY       2.7402     YY    -157.2847
        XZ      -6.6261     YZ      -1.8300     ZZ    -166.7980

 Total job time:  92.91s(wall), 4427.37s(cpu)
        *  Thank you very much for using Q-Chem.  Have a nice day.  *
