 Q-Chem 5.0, Q-Chem, Inc., Pleasanton, CA (2017)
 Q-Chem 5.0.1 for Intel X86 EM64T Linux

User input:
--------------------------------------------------------------
$molecule
0  1
O 3.2159832918 -2.7460427629 1.4929527917
C 2.8699669238 -1.8244596077 0.7213780549
C 3.7920824671 -1.1510790848 -0.370224071
C 3.7130196962 0.4320323106 -0.5156661078
C 2.4964006465 1.1279069202 0.1836451312
O 1.3391695153 0.903184567 -0.6262492606
C 0.1351465996 1.4979931353 0.0017527949
C -0.6690052011 2.3105230182 -1.086403827
O -1.9919936779 1.6893970178 -1.3384214684
C -2.8332146346 1.7809780161 -0.1825253433
C -4.1877443941 1.0850990988 -0.5625037902
C -4.0126553082 -0.4861066838 -0.7487736888
C -2.5439617811 -0.9641574596 -0.4799438402
O -1.8533170008 -0.7105661686 0.538914097
O 1.5493368695 -1.288892291 0.6682340781
O -2.0854037194 -1.7034241384 -1.6051223645
O -2.5329043292 2.3668564957 0.8777788856
C -0.685828816 -2.1644748967 -1.4194012865
C -5.222401791 1.1376177738 0.6344053306
C -6.6487868913 0.7516151381 0.0805375813
C -6.4857828764 -0.8015289531 -0.1203628821
C -5.0024378842 -1.0207559445 0.3775834933
O -4.8437399886 -0.030592338 1.4643933738
H -4.5812104079 1.5495527204 -1.4845472669
H -4.3110742625 -0.8195420908 -1.7580520054
H -5.1693521275 2.0669077698 1.2339307173
H -7.4260741481 0.9817329164 0.8263349819
H -6.8890613284 1.2797416953 -0.8559308274
H -7.189963408 -1.3676329416 0.5098951595
H -6.6207062155 -1.1130641972 -1.1685476756
H -4.7734019243 -2.0400024506 0.7448368743
O 2.505669204 1.790150274 1.2443689825
C 0.6881444169 -1.8882118747 1.7177820621
C 5.2932162984 -1.3135945244 0.1089065635
C 6.2766273524 -0.9304393432 -1.0657288306
C 6.2090781228 0.6420034115 -1.0267929408
C 5.1158106503 0.8633456051 0.089013608
O 5.4289584945 -0.1966171066 1.0751831845
H 3.5967382252 -1.642583385 -1.3416615303
H 3.6539254449 0.6884139044 -1.5892906045
H 0.9822164875 -1.5266130365 2.723402094
H 5.4885801386 -2.2823239589 0.6089315293
H 7.2932957779 -1.2989442803 -0.8567157889
H 5.9442670366 -1.3450249925 -2.0311480216
H 7.1706226981 1.0771899883 -0.7106259455
H 5.9217317579 1.0839965487 -1.9941528477
H 5.1127986721 1.8573711564 0.5768906169
H 0.7497937426 -2.9946450411 1.7069667113
H -0.3405111481 -1.5487963769 1.469611301
H -0.6516138361 -3.042938183 -0.7435426452
H -0.0222226978 -1.3749125825 -1.0065055184
H -0.3333664875 -2.4654699132 -2.4229489834
H -0.7890577459 3.3701627793 -0.7747447353
H -0.1349769859 2.2710724325 -2.0573433587
H 0.4527955768 2.1387694879 0.8509904055
H -0.505009886 0.6679672074 0.3819087703
$end

$rem
JOBTYPE                   OPT
METHOD                    B3LYP
DFT_D                     d3_op
BASIS                     STO-3G
GEOM_OPT_MAX_CYCLES       100
GEOM_OPT_TOL_GRADIENT     300
GEOM_OPT_TOL_DISPLACEMENT 1200
GEOM_OPT_TOL_ENERGY       100
SYMMETRY                  False
THRESH                    12
SCF_CONVERGENCE           8
MAX_SUB_FILE_NUM          128
MEM_STATIC                400
MEM_TOTAL                 4000
$end
--------------------------------------------------------------

   16   -1510.2904514112      3.16E-09 Convergence criterion met
 Total energy in the final basis set = -1510.29045141
   14   -1510.2848681535      6.26E-09 Convergence criterion met
 Total energy in the final basis set = -1510.28486815
   14   -1510.2890551295      9.96E-09 Convergence criterion met
 Total energy in the final basis set = -1510.28905513
   15   -1510.2897444684      2.78E-09 Convergence criterion met
 Total energy in the final basis set = -1510.28974447
   14   -1510.2922911820      4.97E-09 Convergence criterion met
 Total energy in the final basis set = -1510.29229118
   13   -1510.2937988493      5.01E-09 Convergence criterion met
 Total energy in the final basis set = -1510.29379885
   14   -1510.2908139475      6.46E-09 Convergence criterion met
 Total energy in the final basis set = -1510.29081395
   13   -1510.2964183197      7.60E-09 Convergence criterion met
   13   -1510.2999816225      2.96E-09 Convergence criterion met
 Total energy in the final basis set = -1510.29998162
   13   -1510.3001764436      5.07E-09 Convergence criterion met
 Total energy in the final basis set = -1510.30017644
   11   -1510.3001725538      6.63E-09 Convergence criterion met
 Total energy in the final basis set = -1510.30017255
   11   -1510.3001814456      6.23E-09 Convergence criterion met
 Total energy in the final basis set = -1510.30018145
    9   -1510.3001818559      7.63E-09 Convergence criterion met
 Total energy in the final basis set = -1510.30018186
   11   -1510.3001803753      3.70E-09 Convergence criterion met
 Total energy in the final basis set = -1510.30018038

             Standard Nuclear Orientation (Angstroms)
    I     Atom           X                Y                Z
 ----------------------------------------------------------------
    1      O       3.5576443322    -2.2592452732     2.0120690690
    2      C       3.0845570187    -1.6771033801     1.0147873209
    3      C       3.8503311580    -1.0913180451    -0.2266589221
    4      C       3.4008213561     0.3853098884    -0.6045069473
    5      C       2.3668695434     0.9736978246     0.4152408783
    6      O       1.1105792784     1.1991268978    -0.2589170930
    7      C       0.0863506999     1.6480189511     0.7199422858
    8      C      -0.8732294363     2.6787809718     0.0318016600
    9      O      -1.9820834321     1.9805747791    -0.6668085034
   10      C      -3.0955948278     1.8186218205     0.2251983967
   11      C      -4.1980466289     0.9659938584    -0.4968264184
   12      C      -3.7066314504    -0.4804988668    -0.9324637666
   13      C      -2.1930754459    -0.7430343663    -0.6179981205
   14      O      -1.6585120291    -0.7867454821     0.5175552984
   15      O       1.6962605143    -1.4322150603     0.7843163369
   16      O      -1.5206761287    -0.9377906110    -1.8531652264
   17      O      -3.1547679405     2.3086272946     1.3730228188
   18      C      -0.0606425131    -1.1192713414    -1.6533289505
   19      C      -5.3577372864     0.6013481093     0.5169431992
   20      C      -6.5999725927     0.0682338222    -0.2978517324
   21      C      -6.1046717299    -1.3712493995    -0.7009731886
   22      C      -4.6661551315    -1.3909956122    -0.0493751558
   23      O      -4.8374669756    -0.6098249518     1.1953142903
   24      H      -4.5661110551     1.5332919758    -1.3713308469
   25      H      -3.8610204073    -0.6452252554    -2.0129544437
   26      H      -5.5666718990     1.3968355734     1.2581868210
   27      H      -7.4919721476     0.0221083901     0.3468603847
   28      H      -6.8285595493     0.7001446726    -1.1713050639
   29      H      -6.7376689058    -2.1551866337    -0.2556115912
   30      H      -6.0711982995    -1.5212966709    -1.7919733042
   31      H      -4.2637320347    -2.3973461731     0.1773263758
   32      O       2.5712542157     1.2693239286     1.6119105904
   33      C       0.8492608602    -1.8741218615     1.9149234411
   34      C       5.3909024380    -0.8816468334     0.0683818794
   35      C       6.1414720073    -0.7232283014    -1.3108204680
   36      C       5.6860412200     0.7221681233    -1.7377357796
   37      C       4.7947793270     1.1418258495    -0.5017843535
   38      O       5.4505778530     0.4809273384     0.6487898611
   39      H       3.6896135533    -1.7741633351    -1.0815182245
   40      H       2.9682002885     0.4313502546    -1.6189115829
   41      H       1.1037946786    -1.3247710598     2.8436420597
   42      H       5.8166937674    -1.6224214297     0.7730033389
   43      H       7.2319592190    -0.7740176668    -1.1627350996
   44      H       5.8472800246    -1.4963084425    -2.0387033058
   45      H       6.5445977063     1.4042632476    -1.8414851927
   46      H       5.1144935223     0.7272860859    -2.6797221392
   47      H       4.7123579700     2.2319312107    -0.3260781926
   48      H       0.9567381739    -2.9618204407     2.1007174299
   49      H      -0.1867673790    -1.6311254783     1.5956041103
   50      H       0.1545468765    -2.0169869796    -1.0406174501
   51      H       0.4041864492    -0.2283117945    -1.1605446050
   52      H       0.3587309150    -1.2580404639    -2.6662884806
   53      H      -1.2947576550     3.3567239973     0.8046677725
   54      H      -0.3294133466     3.2645085977    -0.7368511437
   55      H       0.6036467794     2.0874705391     1.5989834756
   56      H      -0.5085238548     0.7588697092     1.0360674617
 ----------------------------------------------------------------

    9   -1510.3001796535      3.56E-09 Convergence criterion met
 Total energy in the final basis set = -1510.30017965
 Final energy is   -1510.30017965355
 **  OPTIMIZATION CONVERGED  **

                    Orbital Energies (a.u.)
 --------------------------------------------------------------

 Alpha MOs
 -- Occupied --
-18.938 -18.937 -18.935 -18.932 -18.889 -18.888 -18.882 -18.879
-18.877 -18.874 -10.104 -10.103 -10.103 -10.100 -10.073 -10.062
-10.062 -10.060 -10.059 -10.058 -10.050 -10.042 -10.041 -10.040
-10.038 -10.038 -10.022 -10.022 -10.021 -10.021  -1.019  -1.015
 -1.009  -1.006  -0.971  -0.970  -0.943  -0.938  -0.937  -0.936
 -0.766  -0.764  -0.729  -0.724  -0.712  -0.707  -0.698  -0.657
 -0.655  -0.618  -0.598  -0.580  -0.548  -0.545  -0.539  -0.537
 -0.512  -0.512  -0.486  -0.474  -0.459  -0.458  -0.455  -0.453
 -0.437  -0.432  -0.430  -0.418  -0.416  -0.409  -0.401  -0.398
 -0.391  -0.383  -0.372  -0.367  -0.364  -0.362  -0.355  -0.352
 -0.342  -0.341  -0.338  -0.332  -0.331  -0.327  -0.325  -0.312
 -0.311  -0.307  -0.306  -0.302  -0.292  -0.289  -0.285  -0.275
 -0.273  -0.263  -0.254  -0.245  -0.242  -0.236  -0.234  -0.185
 -0.178  -0.174  -0.171  -0.162  -0.159  -0.154  -0.151  -0.145
 -0.144

          Ground-State Mulliken Net Atomic Charges

     Atom                 Charge (a.u.)
  ----------------------------------------
      1 O                    -0.205800
      2 C                     0.213015
      3 C                    -0.078625
      4 C                    -0.078674
      5 C                     0.216287
      6 O                    -0.174879
      7 C                    -0.064816
      8 C                    -0.053833
      9 O                    -0.174784
     10 C                     0.210727
     11 C                    -0.078128
     12 C                    -0.079236
     13 C                     0.218158
     14 O                    -0.227613
     15 O                    -0.176795
     16 O                    -0.165951
     17 O                    -0.208321
     18 C                    -0.147851
     19 C                     0.024412
     20 C                    -0.144217
     21 C                    -0.143610
     22 C                     0.025490
     23 O                    -0.186492
     24 H                     0.086068
     25 H                     0.087220
     26 H                     0.090789
     27 H                     0.078779
     28 H                     0.073247
     29 H                     0.078426
     30 H                     0.073773
     31 H                     0.083107
     32 O                    -0.211174
     33 C                    -0.140401
     34 C                     0.023925
     35 C                    -0.143596
     36 C                    -0.144239
     37 C                     0.025859
     38 O                    -0.185513
     39 H                     0.083509
     40 H                     0.084729
     41 H                     0.089088
     42 H                     0.091266
     43 H                     0.078758
     44 H                     0.072769
     45 H                     0.078562
     46 H                     0.072959
     47 H                     0.083589
     48 H                     0.083737
     49 H                     0.112354
     50 H                     0.083763
     51 H                     0.113843
     52 H                     0.079403
     53 H                     0.099645
     54 H                     0.091858
     55 H                     0.100267
     56 H                     0.105168
  ----------------------------------------
  Sum of atomic charges =     0.000000

                    Cartesian Multipole Moments
 -----------------------------------------------------------------
    Charge (ESU x 10^10)
                -0.0000
    Dipole Moment (Debye)
         X      -1.3471      Y      -0.1215      Z      -4.7094
       Tot       4.8998
    Quadrupole Moments (Debye-Ang)
        XX    -152.6850     XY       0.3968     YY    -154.8376
        XZ      -6.1715     YZ       0.0501     ZZ    -168.0081

 Total job time:  95.65s(wall), 4559.45s(cpu)
        *  Thank you very much for using Q-Chem.  Have a nice day.  *
