 Q-Chem 5.0, Q-Chem, Inc., Pleasanton, CA (2017)
 Q-Chem 5.0.1 for Intel X86 EM64T Linux

User input:
--------------------------------------------------------------
$molecule
0  1
O -3.1728655108 2.4119970467 1.8302785764
C -2.7280147664 1.6423298781 0.951910185
C -3.5012258128 1.1100097003 -0.3130051953
C -3.4919804066 -0.4701862941 -0.4852020811
C -2.434051887 -1.2340232441 0.3813657276
O -1.2114127437 -1.3094207675 -0.372302084
C -0.0874346198 -1.7862062453 0.4802996201
C 0.8388108422 -2.6723742969 -0.4402356955
O 2.1476063683 -2.062195981 -0.7689897532
C 2.8599294043 -1.5586902554 0.3716972237
C 4.1059047501 -0.8200491509 -0.2374206606
C 3.6499514058 0.4172315208 -1.1274404154
C 2.1297661419 0.7150813745 -0.8795940302
O 1.5699499247 0.678228166 0.2433222804
O -1.4032961892 1.116951652 0.9344425625
O 1.4457580084 0.9482290774 -2.1024378065
O 2.5753502156 -1.7790110293 1.5660698223
C -0.0144912326 1.089346895 -1.8485052448
C 5.0271235966 -0.1118108474 0.8359704896
C 6.4254389694 0.1579363637 0.157950308
C 6.052759535 1.3191346857 -0.8388232359
C 4.5338877777 1.566608251 -0.4764411274
O 4.4518896239 1.2484661167 0.967647442
H 4.6727326439 -1.5484872104 -0.8450359179
H 3.8402064571 0.2739632006 -2.204983196
H 5.0519139516 -0.6174650113 1.8207714835
H 7.1592469468 0.4918462379 0.9089473897
H 6.8223919449 -0.7329837167 -0.354233122
H 6.6479711501 2.2260586184 -0.6473802644
H 6.1817255032 1.029233838 -1.8940395312
H 4.1650412251 2.5929388721 -0.668884064
O -2.585222904 -1.7238829242 1.5206898744
C -0.6334851505 1.5651510356 2.1189309924
C -5.0491934884 1.3596334727 -0.0894680028
C -5.8371140941 1.0514404885 -1.4239721436
C -5.872767315 -0.5226419158 -1.4064703258
C -4.9998301095 -0.8236144174 -0.1270764481
O -5.4127962284 0.2414720488 0.8139970631
H -3.1055013157 1.609277433 -1.2165517852
H -3.2765406305 -0.7168021719 -1.5406482343
H -0.9066182611 0.9669652031 3.0119368914
H -5.2742279348 2.3307995899 0.3925021189
H -6.8500468578 1.4820831291 -1.3867607336
H -5.315313049 1.4512897526 -2.3082379834
H -6.898590737 -0.8991411045 -1.2653021924
H -5.453311513 -0.9720613348 -2.3207460457
H -5.1419366754 -1.8220073039 0.3300254112
H -0.8148716462 2.6361956272 2.3360408628
H 0.4264007423 1.3918365165 1.8501805884
H -0.4708086597 1.25576834 -2.8412510456
H -0.2245774197 1.9570183172 -1.1915693318
H -0.4511413686 0.1782943514 -1.3684075117
H 0.9968671969 -3.6655832249 0.0364492065
H 0.3388604573 -2.8265678962 -1.4183801416
H -0.4908891557 -2.3524464948 1.344320199
H 0.4660767871 -0.8887216314 0.8321149662
$end

$rem
JOBTYPE                   OPT
METHOD                    B3LYP
DFT_D                     d3_op
BASIS                     STO-3G
GEOM_OPT_MAX_CYCLES       100
GEOM_OPT_TOL_GRADIENT     300
GEOM_OPT_TOL_DISPLACEMENT 1200
GEOM_OPT_TOL_ENERGY       100
SYMMETRY                  False
THRESH                    12
SCF_CONVERGENCE           8
MAX_SUB_FILE_NUM          128
MEM_STATIC                400
MEM_TOTAL                 4000
$end
--------------------------------------------------------------

   16   -1510.2893658723      4.11E-09 Convergence criterion met
 Total energy in the final basis set = -1510.28936587
   15   -1510.2645849279      5.63E-09 Convergence criterion met
 Total energy in the final basis set = -1510.26458493
   14   -1510.2912885979      3.80E-09 Convergence criterion met
 Total energy in the final basis set = -1510.29128860
   14   -1510.2896615784      8.05E-09 Convergence criterion met
 Total energy in the final basis set = -1510.28966158
   13   -1510.2935044370      7.83E-09 Convergence criterion met
 Total energy in the final basis set = -1510.29350444
   14   -1510.2941810360      2.47E-09 Convergence criterion met
 Total energy in the final basis set = -1510.29418104
   14   -1510.2901457999      3.60E-09 Convergence criterion met
 Total energy in the final basis set = -1510.29014580
   14   -1510.2956451853      2.39E-09 Convergence criterion met
   11   -1510.3001422094      9.75E-09 Convergence criterion met
 Total energy in the final basis set = -1510.30014221
   11   -1510.3001356472      6.05E-09 Convergence criterion met
 Total energy in the final basis set = -1510.30013565
   11   -1510.3001439656      3.72E-09 Convergence criterion met
 Total energy in the final basis set = -1510.30014397
   10   -1510.3001517220      7.84E-09 Convergence criterion met
 Total energy in the final basis set = -1510.30015172
   11   -1510.3001528986      5.08E-09 Convergence criterion met
 Total energy in the final basis set = -1510.30015290
    9   -1510.3001543003      8.73E-09 Convergence criterion met
 Total energy in the final basis set = -1510.30015430

             Standard Nuclear Orientation (Angstroms)
    I     Atom           X                Y                Z
 ----------------------------------------------------------------
    1      O      -3.5326968346     2.4094185628     1.8146341060
    2      C      -3.0582015385     1.7421561788     0.8726518090
    3      C      -3.8219050629     1.0870305394    -0.3352480456
    4      C      -3.3974402109    -0.4198043782    -0.6101889402
    5      C      -2.3448257635    -0.9571434884     0.4196512459
    6      O      -1.1082184128    -1.2363239862    -0.2714794350
    7      C      -0.0723987079    -1.6689408893     0.7024817885
    8      C       0.8977569203    -2.6828935150     0.0031034113
    9      O       2.0061772219    -1.9685780476    -0.6795818933
   10      C       3.1215752456    -1.8282243811     0.2139979599
   11      C       4.2221880831    -0.9558935748    -0.4859076470
   12      C       3.7182644606     0.4846889557    -0.9261143417
   13      C       2.1945849229     0.7233804250    -0.6450536988
   14      O       1.6415389951     0.7845928660     0.4806180086
   15      O      -1.6735206429     1.4445468496     0.6925003205
   16      O       1.5396418989     0.8756685587    -1.8956258612
   17      O       3.1827449728    -2.3476348767     1.3487314959
   18      C       0.0727795332     1.0337686775    -1.7271315930
   19      C       5.3539799614    -0.5786717147     0.5539801268
   20      C       6.6040314942    -0.0190911450    -0.2303161330
   21      C       6.0939890770     1.4156525557    -0.6320362235
   22      C       4.6406854574     1.4052406613    -0.0149455318
   23      O       4.7968515360     0.6182668408     1.2283330214
   24      H       4.6151985707    -1.5153817010    -1.3546708497
   25      H       3.8960871110     0.6566066129    -2.0018845857
   26      H       5.5593885528    -1.3762049406     1.2940611288
   27      H       7.4820493240     0.0350767188     0.4326519530
   28      H       6.8595730403    -0.6402535679    -1.1039806217
   29      H       6.7028022385     2.2057905682    -0.1645076256
   30      H       6.0837825319     1.5752869497    -1.7221055273
   31      H       4.2142562492     2.4021454176     0.2093410667
   32      O      -2.5275102839    -1.1961209569     1.6322467187
   33      C      -0.8443357392     1.9352974014     1.8162199016
   34      C      -5.3667752841     0.9230998861    -0.0310576486
   35      C      -6.1186443559     0.6544503788    -1.3932889716
   36      C      -5.6991010252    -0.8347877956    -1.6826590519
   37      C      -4.7985845034    -1.1497998612    -0.4238964132
   38      O      -5.4390516023    -0.3821411464     0.6673642781
   39      H      -3.6462001399     1.7089182007    -1.2327697791
   40      H      -2.9924567206    -0.5467107965    -1.6291052584
   41      H      -1.1275242432     1.4390448309     2.7662824025
   42      H      -5.7855402446     1.7271226275     0.6050639913
   43      H      -7.2078422190     0.7470972236    -1.2564304692
   44      H      -5.8019835849     1.3484268818    -2.1883317909
   45      H      -6.5735146865    -1.5042607945    -1.7043320871
   46      H      -5.1452271235    -0.9457431658    -2.6286090351
   47      H      -4.7244791102    -2.2202665362    -0.1509166039
   48      H      -0.9413844002     3.0324440178     1.9418107638
   49      H       0.1937124242     1.6617864822     1.5306798511
   50      H      -0.3297099040     1.1413582302    -2.7506979775
   51      H      -0.1720075170     1.9400909536    -1.1385958775
   52      H      -0.3869998358     0.1473547623    -1.2215971761
   53      H       1.3199252803    -3.3707370556     0.7667219714
   54      H       0.3596603687    -3.2594104449    -0.7766584770
   55      H      -0.5744538404    -2.1202421727     1.5842186240
   56      H       0.5098612750    -0.7718592332     1.0193604446
 ----------------------------------------------------------------

    9   -1510.3001540685      2.96E-09 Convergence criterion met
 Total energy in the final basis set = -1510.30015407
 Final energy is   -1510.30015406845
 **  OPTIMIZATION CONVERGED  **

                    Orbital Energies (a.u.)
 --------------------------------------------------------------

 Alpha MOs
 -- Occupied --
-18.937 -18.937 -18.936 -18.933 -18.889 -18.888 -18.883 -18.879
-18.876 -18.874 -10.104 -10.104 -10.102 -10.100 -10.073 -10.062
-10.061 -10.061 -10.059 -10.058 -10.049 -10.041 -10.041 -10.040
-10.038 -10.038 -10.022 -10.022 -10.021 -10.020  -1.019  -1.015
 -1.009  -1.006  -0.971  -0.970  -0.943  -0.938  -0.936  -0.936
 -0.766  -0.764  -0.729  -0.724  -0.712  -0.707  -0.698  -0.657
 -0.655  -0.618  -0.598  -0.581  -0.548  -0.545  -0.539  -0.537
 -0.512  -0.511  -0.486  -0.474  -0.459  -0.459  -0.454  -0.453
 -0.437  -0.432  -0.429  -0.418  -0.415  -0.408  -0.401  -0.397
 -0.391  -0.383  -0.372  -0.368  -0.364  -0.362  -0.355  -0.351
 -0.342  -0.341  -0.338  -0.332  -0.331  -0.327  -0.324  -0.312
 -0.311  -0.307  -0.306  -0.302  -0.293  -0.290  -0.285  -0.275
 -0.273  -0.263  -0.254  -0.245  -0.242  -0.236  -0.234  -0.185
 -0.178  -0.174  -0.171  -0.163  -0.158  -0.153  -0.151  -0.145
 -0.144

          Ground-State Mulliken Net Atomic Charges

     Atom                 Charge (a.u.)
  ----------------------------------------
      1 O                    -0.206152
      2 C                     0.213175
      3 C                    -0.078520
      4 C                    -0.079108
      5 C                     0.216511
      6 O                    -0.175122
      7 C                    -0.063851
      8 C                    -0.053902
      9 O                    -0.174443
     10 C                     0.211006
     11 C                    -0.078083
     12 C                    -0.079346
     13 C                     0.218720
     14 O                    -0.228184
     15 O                    -0.176055
     16 O                    -0.166006
     17 O                    -0.208296
     18 C                    -0.148276
     19 C                     0.024297
     20 C                    -0.144244
     21 C                    -0.143618
     22 C                     0.025456
     23 O                    -0.186636
     24 H                     0.086171
     25 H                     0.087127
     26 H                     0.090957
     27 H                     0.078814
     28 H                     0.073256
     29 H                     0.078479
     30 H                     0.073787
     31 H                     0.083225
     32 O                    -0.211793
     33 C                    -0.140638
     34 C                     0.023990
     35 C                    -0.143853
     36 C                    -0.144152
     37 C                     0.025934
     38 O                    -0.185778
     39 H                     0.083430
     40 H                     0.084407
     41 H                     0.089169
     42 H                     0.091188
     43 H                     0.078702
     44 H                     0.072709
     45 H                     0.078556
     46 H                     0.072992
     47 H                     0.083707
     48 H                     0.083891
     49 H                     0.113076
     50 H                     0.079157
     51 H                     0.084040
     52 H                     0.113335
     53 H                     0.099860
     54 H                     0.092125
     55 H                     0.099323
     56 H                     0.105482
  ----------------------------------------
  Sum of atomic charges =    -0.000000

                    Cartesian Multipole Moments
 -----------------------------------------------------------------
    Charge (ESU x 10^10)
                -0.0000
    Dipole Moment (Debye)
         X       1.3866      Y      -0.0915      Z      -4.6831
       Tot       4.8849
    Quadrupole Moments (Debye-Ang)
        XX    -152.2367     XY       1.7305     YY    -155.1069
        XZ       6.2553     YZ      -0.3532     ZZ    -167.6794

 Total job time:  102.57s(wall), 4889.87s(cpu)
        *  Thank you very much for using Q-Chem.  Have a nice day.  *
