 Q-Chem 5.0, Q-Chem, Inc., Pleasanton, CA (2017)
 Q-Chem 5.0.1 for Intel X86 EM64T Linux

User input:
--------------------------------------------------------------
$molecule
0  1
O -3.94934 -3.66094 2.70899
C -3.26408 -4.56952 2.26188
C -3.36658 -6.02376 2.66595
C -2.07188 -6.7214 3.11417
C -0.85317 -5.84054 3.27829
O -0.18046 -5.75359 2.09282
C 0.83839 -4.74801 2.09595
C 2.03023 -5.20471 1.26104
O 2.10185 -4.43696 0.0493
C 2.02594 -3.09202 0.20581
C 1.94749 -2.35037 -1.10738
C 0.69343 -2.64505 -1.94331
C -0.44094 -3.33466 -1.21233
O -0.80652 -3.08342 -0.07312
O -2.89281 -4.36508 0.97218
O -0.78444 -4.50743 -1.82235
O 2.19112 -2.50595 1.27061
C -1.48214 -5.58482 -1.32146
C 1.84891 -0.81539 -0.97763
C 2.32423 -0.15645 -2.27241
C 1.17963 -0.50126 -3.20251
C 0.23189 -1.20298 -2.22413
O 0.46828 -0.55349 -0.99765
H 2.87685 -2.60888 -1.66365
H 0.91782 -3.19816 -2.88377
H 2.41573 -0.40253 -0.11528
H 2.32221 0.94415 -2.10191
H 3.3313 -0.47082 -2.62152
H 0.72671 0.44725 -3.5678
H 1.4445 -1.15298 -4.0631
H -0.81416 -1.16279 -2.60216
O -0.47921 -5.36847 4.34744
C -3.49081 -3.35088 0.21275
C -4.24494 -6.21404 3.92042
C -4.76668 -7.64956 3.98703
C -3.50698 -8.38594 4.38093
C -2.52992 -7.21385 4.50763
O -3.33024 -6.16089 4.98347
H -3.84307 -6.55266 1.80963
H -1.78369 -7.60446 2.50006
H -3.28394 -2.35388 0.65968
H -5.10116 -5.50685 3.9745
H -5.49077 -7.7123 4.83071
H -5.25466 -8.00501 3.054
H -3.66774 -8.84549 5.38192
H -3.1614 -9.15998 3.66218
H -1.67625 -7.50937 5.15736
H -4.58983 -3.51144 0.1659
H -3.13067 -3.33423 -0.8307
H -1.39351 -6.42202 -2.04335
H -2.5606 -5.37783 -1.24086
H -1.04685 -5.91648 -0.35753
H 2.97204 -4.97956 1.81583
H 2.03534 -6.29887 1.06965
H 1.30459 -4.70315 3.10756
H 0.39366 -3.74198 1.9913
$end

$opt
CONSTRAINT
tors           1           2           3           4    -127.149
tors           3           4           5           6     -88.732
tors           4           5           6           7    +169.094
tors           5           6           7           8    +144.818
tors           6           7           8           9    +109.300
tors           7           8           9          10     +49.577
tors           8           9          10          11    -173.417
tors           9          10          11          12     +63.576
tors          11          12          13          14     +40.773
ENDCONSTRAINT
$end

$rem
JOBTYPE                   OPT
METHOD                    B3LYP
DFT_D                     d3_op
BASIS                     STO-3G
GEOM_OPT_MAX_CYCLES       100
GEOM_OPT_TOL_GRADIENT     300
GEOM_OPT_TOL_DISPLACEMENT 1200
GEOM_OPT_TOL_ENERGY       100
SYMMETRY                  False
THRESH                    12
SCF_CONVERGENCE           8
MAX_SUB_FILE_NUM          128
MEM_STATIC                400
MEM_TOTAL                 4000
$end
--------------------------------------------------------------

   16   -1510.1175725322      2.93E-09 Convergence criterion met
 Total energy in the final basis set = -1510.11757253
   14   -1510.1886780150      2.81E-09 Convergence criterion met
 Total energy in the final basis set = -1510.18867802
   15   -1510.2289285984      2.77E-09 Convergence criterion met
 Total energy in the final basis set = -1510.22892860
   14   -1510.2520517183      2.75E-09 Convergence criterion met
 Total energy in the final basis set = -1510.25205172
   14   -1510.2647590641      4.04E-09 Convergence criterion met
 Total energy in the final basis set = -1510.26475906
   13   -1510.2723583239      6.98E-09 Convergence criterion met
 Total energy in the final basis set = -1510.27235832
   13   -1510.2779584469      7.81E-09 Convergence criterion met
 Total energy in the final basis set = -1510.27795845
   13   -1510.2823888074      9.18E-09 Convergence criterion met
   12   -1510.2892754467      3.98E-09 Convergence criterion met
 Total energy in the final basis set = -1510.28927545
   11   -1510.2893106042      9.81E-09 Convergence criterion met
 Total energy in the final basis set = -1510.28931060
   12   -1510.2893547094      2.07E-09 Convergence criterion met
 Total energy in the final basis set = -1510.28935471
   10   -1510.2893722362      6.86E-09 Convergence criterion met
 Total energy in the final basis set = -1510.28937224
   10   -1510.2893876500      7.39E-09 Convergence criterion met
 Total energy in the final basis set = -1510.28938765
   10   -1510.2893950476      8.02E-09 Convergence criterion met
 Total energy in the final basis set = -1510.28939505

             Standard Nuclear Orientation (Angstroms)
    I     Atom           X                Y                Z
 ----------------------------------------------------------------
    1      O      -3.1728655108     2.4119970467     1.8302785764
    2      C      -2.7280147664     1.6423298781     0.9519101850
    3      C      -3.5012258128     1.1100097003    -0.3130051953
    4      C      -3.4919804066    -0.4701862941    -0.4852020811
    5      C      -2.4340518870    -1.2340232441     0.3813657276
    6      O      -1.2114127437    -1.3094207675    -0.3723020840
    7      C      -0.0874346198    -1.7862062453     0.4802996201
    8      C       0.8388108422    -2.6723742969    -0.4402356955
    9      O       2.1476063683    -2.0621959810    -0.7689897532
   10      C       2.8599294043    -1.5586902554     0.3716972237
   11      C       4.1059047501    -0.8200491509    -0.2374206606
   12      C       3.6499514058     0.4172315208    -1.1274404154
   13      C       2.1297661419     0.7150813745    -0.8795940302
   14      O       1.5699499247     0.6782281660     0.2433222804
   15      O      -1.4032961892     1.1169516520     0.9344425625
   16      O       1.4457580084     0.9482290774    -2.1024378065
   17      O       2.5753502156    -1.7790110293     1.5660698223
   18      C      -0.0144912326     1.0893468950    -1.8485052448
   19      C       5.0271235966    -0.1118108474     0.8359704896
   20      C       6.4254389694     0.1579363637     0.1579503080
   21      C       6.0527595350     1.3191346857    -0.8388232359
   22      C       4.5338877777     1.5666082510    -0.4764411274
   23      O       4.4518896239     1.2484661167     0.9676474420
   24      H       4.6727326439    -1.5484872104    -0.8450359179
   25      H       3.8402064571     0.2739632006    -2.2049831960
   26      H       5.0519139516    -0.6174650113     1.8207714835
   27      H       7.1592469468     0.4918462379     0.9089473897
   28      H       6.8223919449    -0.7329837167    -0.3542331220
   29      H       6.6479711501     2.2260586184    -0.6473802644
   30      H       6.1817255032     1.0292338380    -1.8940395312
   31      H       4.1650412251     2.5929388721    -0.6688840640
   32      O      -2.5852229040    -1.7238829242     1.5206898744
   33      C      -0.6334851505     1.5651510356     2.1189309924
   34      C      -5.0491934884     1.3596334727    -0.0894680028
   35      C      -5.8371140941     1.0514404885    -1.4239721436
   36      C      -5.8727673150    -0.5226419158    -1.4064703258
   37      C      -4.9998301095    -0.8236144174    -0.1270764481
   38      O      -5.4127962284     0.2414720488     0.8139970631
   39      H      -3.1055013157     1.6092774330    -1.2165517852
   40      H      -3.2765406305    -0.7168021719    -1.5406482343
   41      H      -0.9066182611     0.9669652031     3.0119368914
   42      H      -5.2742279348     2.3307995899     0.3925021189
   43      H      -6.8500468578     1.4820831291    -1.3867607336
   44      H      -5.3153130490     1.4512897526    -2.3082379834
   45      H      -6.8985907370    -0.8991411045    -1.2653021924
   46      H      -5.4533115130    -0.9720613348    -2.3207460457
   47      H      -5.1419366754    -1.8220073039     0.3300254112
   48      H      -0.8148716462     2.6361956272     2.3360408628
   49      H       0.4264007423     1.3918365165     1.8501805884
   50      H      -0.4708086597     1.2557683400    -2.8412510456
   51      H      -0.2245774197     1.9570183172    -1.1915693318
   52      H      -0.4511413686     0.1782943514    -1.3684075117
   53      H       0.9968671969    -3.6655832249     0.0364492065
   54      H       0.3388604573    -2.8265678962    -1.4183801416
   55      H      -0.4908891557    -2.3524464948     1.3443201990
   56      H       0.4660767871    -0.8887216314     0.8321149662
 ----------------------------------------------------------------

    9   -1510.2893960166      4.63E-09 Convergence criterion met
 Total energy in the final basis set = -1510.28939602
 Final energy is   -1510.28939601663
 **  OPTIMIZATION CONVERGED  **

                    Orbital Energies (a.u.)
 --------------------------------------------------------------

 Alpha MOs
 -- Occupied --
-18.942 -18.932 -18.931 -18.928 -18.889 -18.885 -18.879 -18.877
-18.875 -18.873 -10.105 -10.103 -10.102 -10.097 -10.074 -10.063
-10.060 -10.059 -10.059 -10.057 -10.050 -10.049 -10.040 -10.039
-10.038 -10.038 -10.023 -10.021 -10.020 -10.019  -1.019  -1.013
 -1.008  -1.005  -0.972  -0.969  -0.941  -0.938  -0.935  -0.933
 -0.766  -0.763  -0.728  -0.723  -0.711  -0.705  -0.695  -0.660
 -0.655  -0.619  -0.597  -0.583  -0.548  -0.544  -0.539  -0.537
 -0.512  -0.509  -0.481  -0.475  -0.464  -0.458  -0.455  -0.450
 -0.437  -0.431  -0.423  -0.416  -0.412  -0.406  -0.404  -0.398
 -0.393  -0.382  -0.372  -0.368  -0.362  -0.360  -0.355  -0.351
 -0.346  -0.341  -0.334  -0.333  -0.330  -0.329  -0.325  -0.313
 -0.309  -0.307  -0.305  -0.298  -0.294  -0.286  -0.284  -0.276
 -0.273  -0.261  -0.250  -0.245  -0.242  -0.236  -0.233  -0.184
 -0.180  -0.174  -0.168  -0.159  -0.156  -0.153  -0.149  -0.145
 -0.143

          Ground-State Mulliken Net Atomic Charges

     Atom                 Charge (a.u.)
  ----------------------------------------
      1 O                    -0.209926
      2 C                     0.209419
      3 C                    -0.077422
      4 C                    -0.080792
      5 C                     0.215081
      6 O                    -0.177882
      7 C                    -0.063774
      8 C                    -0.050869
      9 O                    -0.181489
     10 C                     0.214868
     11 C                    -0.078249
     12 C                    -0.077109
     13 C                     0.216503
     14 O                    -0.223684
     15 O                    -0.173139
     16 O                    -0.164945
     17 O                    -0.207822
     18 C                    -0.142926
     19 C                     0.024062
     20 C                    -0.142829
     21 C                    -0.144312
     22 C                     0.024743
     23 O                    -0.187334
     24 H                     0.085683
     25 H                     0.087961
     26 H                     0.090333
     27 H                     0.078649
     28 H                     0.073446
     29 H                     0.078493
     30 H                     0.074002
     31 H                     0.082215
     32 O                    -0.210307
     33 C                    -0.137173
     34 C                     0.024135
     35 C                    -0.145325
     36 C                    -0.142827
     37 C                     0.024512
     38 O                    -0.187502
     39 H                     0.082537
     40 H                     0.082257
     41 H                     0.087676
     42 H                     0.090922
     43 H                     0.078575
     44 H                     0.071979
     45 H                     0.078316
     46 H                     0.072228
     47 H                     0.086811
     48 H                     0.089617
     49 H                     0.111451
     50 H                     0.081685
     51 H                     0.085964
     52 H                     0.110788
     53 H                     0.084707
     54 H                     0.094976
     55 H                     0.101148
     56 H                     0.111893
  ----------------------------------------
  Sum of atomic charges =     0.000000

                    Cartesian Multipole Moments
 -----------------------------------------------------------------
    Charge (ESU x 10^10)
                 0.0000
    Dipole Moment (Debye)
         X       1.8305      Y      -0.3908      Z      -4.5917
       Tot       4.9585
    Quadrupole Moments (Debye-Ang)
        XX    -150.5975     XY       0.6167     YY    -156.9028
        XZ       8.3691     YZ      -1.4354     ZZ    -166.4922

 Total job time:  65.02s(wall), 3099.02s(cpu)
        *  Thank you very much for using Q-Chem.  Have a nice day.  *
