 Q-Chem 5.0, Q-Chem, Inc., Pleasanton, CA (2017)
 Q-Chem 5.0.1 for Intel X86 EM64T Linux

User input:
--------------------------------------------------------------
$molecule
0  1
O -3.94934 -3.66094 2.70899
C -3.26408 -4.56952 2.26188
C -3.36658 -6.02376 2.66595
C -2.06972 -6.72481 3.10245
C -0.84749 -5.84701 3.25647
O -0.33904 -5.5396 2.02667
C 0.70777 -4.5645 2.07781
C 1.92303 -5.05661 1.29864
O 2.30776 -4.07655 0.32173
C 2.69845 -2.8777 0.821
C 3.03166 -1.87239 -0.25556
C 1.83959 -1.42329 -1.1132
C 0.46715 -1.75196 -0.56087
O 0.15094 -1.71619 0.61951
O -2.54249 -4.36411 1.14295
O -0.48546 -1.51675 -1.50797
O 2.83883 -2.64483 2.01613
C -1.66602 -0.81728 -1.33698
C 3.52353 -0.50745 0.27519
C 4.34381 0.19882 -0.80369
C 3.2553 0.56786 -1.78995
C 2.01642 0.10459 -1.01612
O 2.36638 0.2876 0.33436
H 3.84512 -2.32478 -0.86686
H 1.89526 -1.80746 -2.15653
H 4.11758 -0.58118 1.21193
H 4.74155 1.13443 -0.34864
H 5.1875 -0.3885 -1.22565
H 3.25306 1.67384 -1.91213
H 3.3245 0.07338 -2.78308
H 1.11593 0.65847 -1.36267
O -0.32797 -5.55808 4.32939
C -2.58029 -3.21419 0.41079
C -4.24122 -6.22865 3.91917
C -4.76387 -7.66428 3.96624
C -3.50252 -8.40931 4.34101
C -2.52286 -7.24137 4.48737
O -3.32168 -6.19427 4.98055
H -3.83123 -6.54475 1.79868
H -1.7842 -7.58284 2.45312
H -2.26368 -2.35792 1.04053
H -5.09485 -5.51952 3.98575
H -5.48247 -7.73788 4.81373
H -5.25885 -8.0055 3.03158
H -3.66099 -8.89047 5.33213
H -3.15898 -9.16738 3.60443
H -1.66984 -7.55068 5.13085
H -3.60856 -3.03846 0.02846
H -1.89751 -3.35294 -0.4471
H -1.65485 0.06503 -2.00914
H -1.79363 -0.44999 -0.29687
H -2.52763 -1.44731 -1.63419
H 2.7554 -5.35799 1.97172
H 1.6335 -5.9546 0.71161
H 0.99012 -4.1319 3.06344
H 0.2569 -3.74823 1.52023
$end

$opt
CONSTRAINT
tors           1           2           3           4    -127.669
tors           3           4           5           6     -76.557
tors           4           5           6           7    +171.935
tors           5           6           7           8    +129.454
tors           6           7           8           9    +126.015
tors           7           8           9          10     +62.627
tors           8           9          10          11    -177.473
tors           9          10          11          12     +66.357
tors          11          12          13          14     +37.376
ENDCONSTRAINT
$end

$rem
JOBTYPE                   OPT
METHOD                    B3LYP
DFT_D                     d3_op
BASIS                     STO-3G
GEOM_OPT_MAX_CYCLES       100
GEOM_OPT_TOL_GRADIENT     300
GEOM_OPT_TOL_DISPLACEMENT 1200
GEOM_OPT_TOL_ENERGY       100
SYMMETRY                  False
THRESH                    12
SCF_CONVERGENCE           8
MAX_SUB_FILE_NUM          128
MEM_STATIC                400
MEM_TOTAL                 4000
$end
--------------------------------------------------------------

   16   -1510.1364625775      3.18E-09 Convergence criterion met
 Total energy in the final basis set = -1510.13646258
   14   -1510.2047517900      8.39E-09 Convergence criterion met
 Total energy in the final basis set = -1510.20475179
   15   -1510.2353272520      2.35E-09 Convergence criterion met
 Total energy in the final basis set = -1510.23532725
   15   -1510.2587819233      2.02E-09 Convergence criterion met
 Total energy in the final basis set = -1510.25878192
   14   -1510.2664268314      4.70E-09 Convergence criterion met
 Total energy in the final basis set = -1510.26642683
   14   -1510.2713922332      3.99E-09 Convergence criterion met
 Total energy in the final basis set = -1510.27139223
   13   -1510.2740395397      3.65E-09 Convergence criterion met
 Total energy in the final basis set = -1510.27403954
   12   -1510.2750865654      1.00E-08 Convergence criterion met
   12   -1510.2893610016      3.46E-09 Convergence criterion met
 Total energy in the final basis set = -1510.28936100
   11   -1510.2894027233      8.72E-09 Convergence criterion met
 Total energy in the final basis set = -1510.28940272
   11   -1510.2894233948      7.52E-09 Convergence criterion met
 Total energy in the final basis set = -1510.28942339
   11   -1510.2894284952      4.42E-09 Convergence criterion met
 Total energy in the final basis set = -1510.28942850
   11   -1510.2894261079      2.22E-09 Convergence criterion met
 Total energy in the final basis set = -1510.28942611
    9   -1510.2894280988      4.46E-09 Convergence criterion met
 Total energy in the final basis set = -1510.28942810

             Standard Nuclear Orientation (Angstroms)
    I     Atom           X                Y                Z
 ----------------------------------------------------------------
    1      O      -3.3126606144     2.3912878888     1.7622001658
    2      C      -2.9565126467     1.6770277471     0.7990319869
    3      C      -3.9165159393     1.0736800934    -0.3006323236
    4      C      -3.8146576081    -0.4949918647    -0.5602158619
    5      C      -2.5530101180    -1.1948844734     0.0490849152
    6      O      -1.4404448823    -0.8786022783    -0.7912118620
    7      C      -0.1702800294    -1.3405245654    -0.1837121321
    8      C       0.6507653033    -2.1806538017    -1.2358855180
    9      O       2.0275460177    -1.6488028482    -1.3971905001
   10      C       2.7669867162    -1.7412215003    -0.1731207895
   11      C       4.1719416774    -1.0946292165    -0.4451323705
   12      C       4.1072135716     0.4667251098    -0.7298633056
   13      C       2.6812532030     1.0717962630    -0.5054032140
   14      O       1.8674714830     0.7455664256     0.3944800576
   15      O      -1.5957132442     1.3527765066     0.5169081337
   16      O       2.4237436465     2.0530089626    -1.5033789288
   17      O       2.3616968407    -2.2988007308     0.8675142704
   18      C       1.0689555302     2.6361590175    -1.3334998517
   19      C       5.1091795700    -1.1393221390     0.8316787528
   20      C       6.5975456099    -0.9266933199     0.3544480578
   21      C       6.5782824915     0.6040207259    -0.0112635436
   22      C       5.1031369721     1.0004526444     0.3938288723
   23      O       4.7957494830     0.1226958847     1.5433970246
   24      H       4.6274021381    -1.6195511794    -1.3046104591
   25      H       4.4483058761     0.7252773647    -1.7474106103
   26      H       4.9287776934    -2.0093348699     1.4926122156
   27      H       7.2987699795    -1.1347201989     1.1782656345
   28      H       6.8582646284    -1.5673936409    -0.5029807981
   29      H       7.3080187669     1.1736989344     0.5856873870
   30      H       6.7749329653     0.7881107079    -1.0795470457
   31      H       4.9588500844     2.0642881308     0.6655973361
   32      O      -2.4902958022    -1.8932055318     1.0846184216
   33      C      -0.7101134949     1.8694547638     1.5903821068
   34      C      -5.3985606798     1.1686826464     0.2506368480
   35      C      -6.4236882505     0.8517670645    -0.9084492621
   36      C      -6.3270594468    -0.7178343095    -0.9872160536
   37      C      -5.1848545829    -0.9970069191     0.0654327342
   38      O      -5.4750880650    -0.0175765020     1.1371697498
   39      H      -3.7698716141     1.6335361761    -1.2430791768
   40      H      -3.7904446991    -0.6770750929    -1.6502526430
   41      H      -0.9826829114     1.4401412273     2.5749764227
   42      H      -5.5915138229     2.0921250182     0.8305966135
   43      H      -7.4370910268     1.1835914329    -0.6327216840
   44      H      -6.1382711071     1.3404064174    -1.8539568101
   45      H      -7.2669153726    -1.1938644596    -0.6647353758
   46      H      -6.0732288119    -1.0832269636    -1.9950733164
   47      H      -5.1474778932    -2.0237841508     0.4785429691
   48      H      -0.7651663430     2.9746032218     1.6614120844
   49      H       0.3137386565     1.5495121951     1.3023850607
   50      H       0.8705531064     3.2129174500    -2.2553809775
   51      H       1.0361485367     3.3181615861    -0.4599199155
   52      H       0.2923544706     1.8545875475    -1.2026190612
   53      H       0.6769628138    -3.2541603016    -0.9500882307
   54      H       0.1844523003    -2.0846502424    -2.2376378013
   55      H      -0.4017425500    -1.9360933075     0.7236250828
   56      H       0.4283868923    -0.4451225424     0.1019633519
 ----------------------------------------------------------------

    9   -1510.2894286475      3.70E-09 Convergence criterion met
 Total energy in the final basis set = -1510.28942865
 Final energy is   -1510.28942864745
 **  OPTIMIZATION CONVERGED  **

                    Orbital Energies (a.u.)
 --------------------------------------------------------------

 Alpha MOs
 -- Occupied --
-18.955 -18.929 -18.928 -18.922 -18.894 -18.893 -18.880 -18.878
-18.869 -18.868 -10.118 -10.101 -10.094 -10.093 -10.073 -10.068
-10.067 -10.062 -10.054 -10.052 -10.047 -10.047 -10.045 -10.041
-10.035 -10.033 -10.025 -10.024 -10.017 -10.016  -1.028  -1.011
 -1.007  -1.000  -0.975  -0.964  -0.952  -0.938  -0.930  -0.927
 -0.769  -0.758  -0.730  -0.720  -0.714  -0.702  -0.691  -0.674
 -0.652  -0.616  -0.598  -0.581  -0.550  -0.542  -0.539  -0.533
 -0.518  -0.504  -0.481  -0.474  -0.465  -0.459  -0.455  -0.446
 -0.437  -0.432  -0.422  -0.421  -0.414  -0.410  -0.403  -0.400
 -0.392  -0.380  -0.375  -0.369  -0.361  -0.358  -0.356  -0.350
 -0.347  -0.338  -0.335  -0.331  -0.327  -0.325  -0.325  -0.316
 -0.308  -0.308  -0.304  -0.301  -0.293  -0.286  -0.280  -0.276
 -0.269  -0.265  -0.249  -0.243  -0.239  -0.238  -0.228  -0.194
 -0.181  -0.172  -0.170  -0.158  -0.154  -0.152  -0.149  -0.144
 -0.139

          Ground-State Mulliken Net Atomic Charges

     Atom                 Charge (a.u.)
  ----------------------------------------
      1 O                    -0.213066
      2 C                     0.206904
      3 C                    -0.076716
      4 C                    -0.079736
      5 C                     0.211691
      6 O                    -0.175110
      7 C                    -0.068732
      8 C                    -0.051809
      9 O                    -0.179794
     10 C                     0.212007
     11 C                    -0.078946
     12 C                    -0.077202
     13 C                     0.222112
     14 O                    -0.215983
     15 O                    -0.173583
     16 O                    -0.161713
     17 O                    -0.206871
     18 C                    -0.131867
     19 C                     0.024864
     20 C                    -0.143471
     21 C                    -0.143937
     22 C                     0.025757
     23 O                    -0.186135
     24 H                     0.085974
     25 H                     0.089417
     26 H                     0.091935
     27 H                     0.079454
     28 H                     0.074047
     29 H                     0.079334
     30 H                     0.074388
     31 H                     0.082676
     32 O                    -0.213460
     33 C                    -0.142244
     34 C                     0.023501
     35 C                    -0.145387
     36 C                    -0.143024
     37 C                     0.023757
     38 O                    -0.188815
     39 H                     0.082291
     40 H                     0.082239
     41 H                     0.088404
     42 H                     0.090594
     43 H                     0.077718
     44 H                     0.071585
     45 H                     0.077571
     46 H                     0.071746
     47 H                     0.087588
     48 H                     0.079482
     49 H                     0.108541
     50 H                     0.093825
     51 H                     0.088733
     52 H                     0.104374
     53 H                     0.086775
     54 H                     0.091724
     55 H                     0.102803
     56 H                     0.103786
  ----------------------------------------
  Sum of atomic charges =    -0.000000

                    Cartesian Multipole Moments
 -----------------------------------------------------------------
    Charge (ESU x 10^10)
                -0.0000
    Dipole Moment (Debye)
         X       2.5326      Y       1.1659      Z      -4.8879
       Tot       5.6271
    Quadrupole Moments (Debye-Ang)
        XX    -144.7232     XY       1.0592     YY    -155.8063
        XZ       7.9849     YZ       1.5218     ZZ    -167.4680

 Total job time:  95.32s(wall), 4542.41s(cpu)
        *  Thank you very much for using Q-Chem.  Have a nice day.  *
