 Q-Chem 5.0, Q-Chem, Inc., Pleasanton, CA (2017)
 Q-Chem 5.0.1 for Intel X86 EM64T Linux

User input:
--------------------------------------------------------------
$molecule
0  1
O -3.3126606144 2.3912878888 1.7622001658
C -2.9565126467 1.6770277471 0.7990319869
C -3.9165159393 1.0736800934 -0.3006323236
C -3.8146576081 -0.4949918647 -0.5602158619
C -2.553010118 -1.1948844734 0.0490849152
O -1.4404448823 -0.8786022783 -0.791211862
C -0.1702800294 -1.3405245654 -0.1837121321
C 0.6507653033 -2.1806538017 -1.235885518
O 2.0275460177 -1.6488028482 -1.3971905001
C 2.7669867162 -1.7412215003 -0.1731207895
C 4.1719416774 -1.0946292165 -0.4451323705
C 4.1072135716 0.4667251098 -0.7298633056
C 2.681253203 1.071796263 -0.505403214
O 1.867471483 0.7455664256 0.3944800576
O -1.5957132442 1.3527765066 0.5169081337
O 2.4237436465 2.0530089626 -1.5033789288
O 2.3616968407 -2.2988007308 0.8675142704
C 1.0689555302 2.6361590175 -1.3334998517
C 5.10917957 -1.139322139 0.8316787528
C 6.5975456099 -0.9266933199 0.3544480578
C 6.5782824915 0.6040207259 -0.0112635436
C 5.1031369721 1.0004526444 0.3938288723
O 4.795749483 0.1226958847 1.5433970246
H 4.6274021381 -1.6195511794 -1.3046104591
H 4.4483058761 0.7252773647 -1.7474106103
H 4.9287776934 -2.0093348699 1.4926122156
H 7.2987699795 -1.1347201989 1.1782656345
H 6.8582646284 -1.5673936409 -0.5029807981
H 7.3080187669 1.1736989344 0.585687387
H 6.7749329653 0.7881107079 -1.0795470457
H 4.9588500844 2.0642881308 0.6655973361
O -2.4902958022 -1.8932055318 1.0846184216
C -0.7101134949 1.8694547638 1.5903821068
C -5.3985606798 1.1686826464 0.250636848
C -6.4236882505 0.8517670645 -0.9084492621
C -6.3270594468 -0.7178343095 -0.9872160536
C -5.1848545829 -0.9970069191 0.0654327342
O -5.475088065 -0.017576502 1.1371697498
H -3.7698716141 1.6335361761 -1.2430791768
H -3.7904446991 -0.6770750929 -1.650252643
H -0.9826829114 1.4401412273 2.5749764227
H -5.5915138229 2.0921250182 0.8305966135
H -7.4370910268 1.1835914329 -0.632721684
H -6.1382711071 1.3404064174 -1.8539568101
H -7.2669153726 -1.1938644596 -0.6647353758
H -6.0732288119 -1.0832269636 -1.9950733164
H -5.1474778932 -2.0237841508 0.4785429691
H -0.765166343 2.9746032218 1.6614120844
H 0.3137386565 1.5495121951 1.3023850607
H 0.8705531064 3.21291745 -2.2553809775
H 1.0361485367 3.3181615861 -0.4599199155
H 0.2923544706 1.8545875475 -1.2026190612
H 0.6769628138 -3.2541603016 -0.9500882307
H 0.1844523003 -2.0846502424 -2.2376378013
H -0.40174255 -1.9360933075 0.7236250828
H 0.4283868923 -0.4451225424 0.1019633519
$end

$rem
JOBTYPE                   OPT
METHOD                    B3LYP
DFT_D                     d3_op
BASIS                     STO-3G
GEOM_OPT_MAX_CYCLES       100
GEOM_OPT_TOL_GRADIENT     300
GEOM_OPT_TOL_DISPLACEMENT 1200
GEOM_OPT_TOL_ENERGY       100
SYMMETRY                  False
THRESH                    12
SCF_CONVERGENCE           8
MAX_SUB_FILE_NUM          128
MEM_STATIC                400
MEM_TOTAL                 4000
$end
--------------------------------------------------------------

   16   -1510.2893246325      5.91E-09 Convergence criterion met
 Total energy in the final basis set = -1510.28932463
   13   -1510.2889395415      7.71E-09 Convergence criterion met
 Total energy in the final basis set = -1510.28893954
   13   -1510.2905627118      9.24E-09 Convergence criterion met
 Total energy in the final basis set = -1510.29056271
   15   -1510.2000494112      5.86E-09 Convergence criterion met
 Total energy in the final basis set = -1510.20004941
   15   -1510.2897059628      3.45E-09 Convergence criterion met
 Total energy in the final basis set = -1510.28970596
   15   -1510.2877019872      6.14E-09 Convergence criterion met
 Total energy in the final basis set = -1510.28770199
   14   -1510.2901420902      2.45E-09 Convergence criterion met
 Total energy in the final basis set = -1510.29014209
   14   -1510.2916110226      7.24E-09 Convergence criterion met
   11   -1510.3002093587      5.17E-09 Convergence criterion met
 Total energy in the final basis set = -1510.30020936
   11   -1510.3002212934      2.97E-09 Convergence criterion met
 Total energy in the final basis set = -1510.30022129
   11   -1510.3002515184      9.61E-09 Convergence criterion met
 Total energy in the final basis set = -1510.30025152
   11   -1510.3002770653      8.40E-09 Convergence criterion met
 Total energy in the final basis set = -1510.30027707
   11   -1510.3002910543      6.64E-09 Convergence criterion met
 Total energy in the final basis set = -1510.30029105
    9   -1510.3002926446      9.48E-09 Convergence criterion met
 Total energy in the final basis set = -1510.30029264

             Standard Nuclear Orientation (Angstroms)
    I     Atom           X                Y                Z
 ----------------------------------------------------------------
    1      O      -3.5054873905     2.2834614019     2.0670993106
    2      C      -3.0347554077     1.7191174573     1.0584835943
    3      C      -3.7996940566     1.2012258361    -0.2136249604
    4      C      -3.3860948218    -0.2730249337    -0.6379648432
    5      C      -2.3696770717    -0.9253142541     0.3619948054
    6      O      -1.1248400286    -1.1756243866    -0.3243333758
    7      C      -0.1199261638    -1.7107362769     0.6307183916
    8      C       0.8287522773    -2.7043859965    -0.1246785668
    9      O       1.9581557091    -1.9805247890    -0.7602153664
   10      C       3.0594250790    -1.8896306724     0.1570031569
   11      C       4.1859706105    -1.0162108852    -0.4982808530
   12      C       3.7220768362     0.4581785201    -0.8649653089
   13      C       2.2080772439     0.7251240238    -0.5585138102
   14      O       1.6585636922     0.7154419014     0.5704139440
   15      O      -1.6520358848     1.4326363059     0.8452578661
   16      O       1.5546189725     0.9929382253    -1.7905463946
   17      O       3.0912135907    -2.4454970392     1.2754217735
   18      C       0.0935645298     1.1774376067    -1.6005112378
   19      C       5.3305915833    -0.7235810815     0.5549610191
   20      C       6.5960925182    -0.1695138745    -0.2077272900
   21      C       6.1285961385     1.2952415615    -0.5479470036
   22      C       4.6796703687     1.3058516686     0.0804424378
   23      O       4.8153660600     0.4587203997     1.2857275675
   24      H       4.5623998408    -1.5424024043    -1.3946523791
   25      H       3.8959472637     0.6772088909    -1.9327057873
   26      H       5.5128730369    -1.5599189112     1.2573547476
   27      H       7.4753829835    -0.1687416582     0.4557987499
   28      H       6.8327231457    -0.7610169124    -1.1068637777
   29      H       6.7659608251     2.0472381545    -0.0562414997
   30      H       6.1141667943     1.4970690112    -1.6309223907
   31      H       4.2888388742     2.3056731627     0.3519163137
   32      O      -2.5847606821    -1.2587880644     1.5467030280
   33      C      -0.8175840409     1.7914132413     2.0138179820
   34      C      -5.3489825971     1.0235008832     0.0581235225
   35      C      -6.0883664271     0.9263790562    -1.3323380789
   36      C      -5.6713206310    -0.5198274845    -1.7954313814
   37      C      -4.7998679920    -0.9969154694    -0.5657442962
   38      O      -5.4491008400    -0.3532138399     0.5979830338
   39      H      -3.6101519244     1.9100959157    -1.0409751949
   40      H      -2.9525455104    -0.2968613075    -1.6527322926
   41      H      -1.1072714128     1.2006182031     2.9061080268
   42      H      -5.7632924883     1.7539130955     0.7802342691
   43      H      -7.1784907297     1.0063972471    -1.1949761019
   44      H      -5.7619374250     1.7099814893    -2.0346891157
   45      H      -6.5485231118    -1.1739015815    -1.9220858199
   46      H      -5.0946169070    -0.5161113882    -2.7342773560
   47      H      -4.7468178949    -2.0934204611    -0.4211674628
   48      H      -0.9003024815     2.8702087622     2.2551307288
   49      H       0.2172918457     1.5361696648     1.7014018611
   50      H      -0.3105914577     1.3793431407    -2.6090184116
   51      H      -0.1233858634     2.0386203756    -0.9380232578
   52      H      -0.3858572054     0.2644536887    -1.1656134523
   53      H       1.2260148230    -3.4488991384     0.5981923663
   54      H       0.2807652629    -3.2188876201    -0.9401458665
   55      H      -0.6521443946    -2.2064597044     1.4700162254
   56      H       0.4846217645    -0.8582888368     1.0199884537
 ----------------------------------------------------------------

    9   -1510.3002937937      4.23E-09 Convergence criterion met
 Total energy in the final basis set = -1510.30029379
 Final energy is   -1510.30029379372
 **  OPTIMIZATION CONVERGED  **

                    Orbital Energies (a.u.)
 --------------------------------------------------------------

 Alpha MOs
 -- Occupied --
-18.937 -18.937 -18.935 -18.933 -18.889 -18.888 -18.882 -18.879
-18.876 -18.873 -10.104 -10.103 -10.103 -10.100 -10.073 -10.062
-10.062 -10.061 -10.059 -10.058 -10.049 -10.041 -10.041 -10.040
-10.038 -10.038 -10.022 -10.022 -10.021 -10.020  -1.019  -1.015
 -1.009  -1.006  -0.971  -0.970  -0.943  -0.938  -0.936  -0.936
 -0.766  -0.764  -0.729  -0.724  -0.712  -0.706  -0.698  -0.657
 -0.655  -0.618  -0.598  -0.581  -0.548  -0.545  -0.539  -0.537
 -0.512  -0.511  -0.486  -0.474  -0.459  -0.458  -0.455  -0.453
 -0.437  -0.432  -0.430  -0.418  -0.415  -0.409  -0.401  -0.398
 -0.391  -0.383  -0.372  -0.368  -0.363  -0.362  -0.355  -0.352
 -0.342  -0.342  -0.338  -0.332  -0.331  -0.327  -0.324  -0.312
 -0.311  -0.307  -0.306  -0.302  -0.292  -0.289  -0.285  -0.275
 -0.273  -0.263  -0.254  -0.245  -0.242  -0.235  -0.234  -0.185
 -0.178  -0.174  -0.171  -0.162  -0.159  -0.153  -0.151  -0.145
 -0.144

          Ground-State Mulliken Net Atomic Charges

     Atom                 Charge (a.u.)
  ----------------------------------------
      1 O                    -0.205809
      2 C                     0.213288
      3 C                    -0.078658
      4 C                    -0.078840
      5 C                     0.216465
      6 O                    -0.174880
      7 C                    -0.063473
      8 C                    -0.053336
      9 O                    -0.174634
     10 C                     0.210883
     11 C                    -0.078202
     12 C                    -0.079262
     13 C                     0.217883
     14 O                    -0.227905
     15 O                    -0.176298
     16 O                    -0.166261
     17 O                    -0.208305
     18 C                    -0.148503
     19 C                     0.024424
     20 C                    -0.144218
     21 C                    -0.143656
     22 C                     0.025484
     23 O                    -0.186527
     24 H                     0.086044
     25 H                     0.087157
     26 H                     0.090760
     27 H                     0.078776
     28 H                     0.073267
     29 H                     0.078404
     30 H                     0.073782
     31 H                     0.083108
     32 O                    -0.211717
     33 C                    -0.140322
     34 C                     0.023976
     35 C                    -0.143695
     36 C                    -0.144156
     37 C                     0.025852
     38 O                    -0.185586
     39 H                     0.083484
     40 H                     0.084548
     41 H                     0.089252
     42 H                     0.091204
     43 H                     0.078755
     44 H                     0.072789
     45 H                     0.078536
     46 H                     0.072927
     47 H                     0.083529
     48 H                     0.084109
     49 H                     0.112701
     50 H                     0.078931
     51 H                     0.084095
     52 H                     0.113422
     53 H                     0.099238
     54 H                     0.092153
     55 H                     0.099768
     56 H                     0.105248
  ----------------------------------------
  Sum of atomic charges =    -0.000000

                    Cartesian Multipole Moments
 -----------------------------------------------------------------
    Charge (ESU x 10^10)
                -0.0000
    Dipole Moment (Debye)
         X       1.3972      Y       0.2326      Z      -4.6626
       Tot       4.8730
    Quadrupole Moments (Debye-Ang)
        XX    -152.6285     XY       0.3614     YY    -154.8360
        XZ       6.3994     YZ       0.3877     ZZ    -167.9178

 Total job time:  108.82s(wall), 5190.95s(cpu)
        *  Thank you very much for using Q-Chem.  Have a nice day.  *
