 Q-Chem 5.0, Q-Chem, Inc., Pleasanton, CA (2017)
 Q-Chem 5.0.1 for Intel X86 EM64T Linux

User input:
--------------------------------------------------------------
$molecule
0  1
O -2.1541584592 2.1867793434 1.2647861784
C -2.3818100831 1.6013831961 0.1837874208
C -3.7509867586 0.8989171035 -0.1670136559
C -3.7708329594 -0.6420931408 -0.5506759185
C -2.5516422072 -1.4854773246 -0.0145904407
O -1.3853964735 -1.2329024683 -0.8040225455
C -0.1869562239 -1.8758246118 -0.1959464838
C 0.7491454553 -2.3313114105 -1.3814082402
O 2.022755896 -1.5742480392 -1.4817912585
C 2.7527605566 -1.7104558881 -0.2489036985
C 4.0930286703 -0.9057323484 -0.3371849752
C 3.9244339012 0.6588674539 -0.486893776
C 2.4448593826 1.1688622883 -0.3936066285
O 1.5582713791 0.7713624649 0.3971414422
O -1.4230578455 1.810068936 -0.8701058592
O 2.3488334411 2.3243845393 -1.2245818097
O 2.3843666158 -2.4422229242 0.6949787403
C 1.1393311619 3.1217262313 -0.9008054836
C 4.9085795179 -1.0041842347 1.0180620333
C 6.4080694888 -0.6125440582 0.7202874365
C 6.2778554787 0.9442794445 0.5249271536
C 4.734829227 1.1596543811 0.7902426384
O 4.4057111591 0.141916816 1.8114362662
H 4.672593421 -1.3092906953 -1.1879301796
H 4.3688798827 1.0338455756 -1.4249858187
H 4.7515419047 -1.952033043 1.5689145475
H 7.0492380145 -0.8591958869 1.5814800226
H 6.8029395419 -1.1228104718 -0.1728097317
H 6.8757057525 1.4973891967 1.2666346339
H 6.5738213234 1.2729866126 -0.484242935
H 4.4547099909 2.171441013 1.1428435293
O -2.5751500146 -2.2816545614 0.9485925624
C -1.7181319205 1.2066027056 -2.1865265132
C -4.7963754385 0.939265584 1.0306674189
C -6.231660423 1.0292751315 0.3840357146
C -6.3454055629 -0.4041887546 -0.2581832027
C -5.0364611426 -1.1007424573 0.2914691347
O -4.7805333102 -0.4308718274 1.589524903
H -4.1662010746 1.467224353 -1.0205784728
H -3.8840318915 -0.7899762414 -1.6395319617
H -0.9210918657 1.5747055228 -2.8586694546
H -4.5533425516 1.687178784 1.8104644643
H -6.9930839894 1.1791887021 1.1662180225
H -6.3174282399 1.8411963978 -0.3558231893
H -7.2436116768 -0.9374947379 0.0902240637
H -6.3609853091 -0.3728231316 -1.3597470411
H -5.1036250163 -2.1965577704 0.4332297528
H -2.7006936831 1.5234449323 -2.5881462826
H -1.6562953962 0.1014722181 -2.1007248618
H 1.2913550466 3.6701068109 0.051247317
H 0.2095018053 2.5072342618 -0.8160307608
H 1.0368395901 3.8545390649 -1.7219357364
H 0.9615603331 -3.418942805 -1.2903957662
H 0.2298896474 -2.1510319486 -2.3447507384
H -0.5062308104 -2.7222923721 0.4457943497
H 0.3289743067 -1.1067363865 0.4229061619
$end

$rem
JOBTYPE                   OPT
METHOD                    B3LYP
DFT_D                     d3_op
BASIS                     STO-3G
GEOM_OPT_MAX_CYCLES       100
GEOM_OPT_TOL_GRADIENT     300
GEOM_OPT_TOL_DISPLACEMENT 1200
GEOM_OPT_TOL_ENERGY       100
SYMMETRY                  False
THRESH                    12
SCF_CONVERGENCE           8
MAX_SUB_FILE_NUM          128
MEM_STATIC                400
MEM_TOTAL                 4000
$end
--------------------------------------------------------------

   16   -1510.2733160738      6.27E-09 Convergence criterion met
 Total energy in the final basis set = -1510.27331607
   15   -1510.2734801121      6.59E-09 Convergence criterion met
 Total energy in the final basis set = -1510.27348011
   14   -1510.2748681007      7.98E-09 Convergence criterion met
 Total energy in the final basis set = -1510.27486810
   14   -1510.2793709264      4.63E-09 Convergence criterion met
 Total energy in the final basis set = -1510.27937093
   13   -1510.2793139277      8.25E-09 Convergence criterion met
 Total energy in the final basis set = -1510.27931393
   14   -1510.2814789191      4.27E-09 Convergence criterion met
 Total energy in the final basis set = -1510.28147892
   13   -1510.2835154987      7.04E-09 Convergence criterion met
 Total energy in the final basis set = -1510.28351550
   13   -1510.2819369438      7.15E-09 Convergence criterion met
   12   -1510.2903715146      6.09E-09 Convergence criterion met
 Total energy in the final basis set = -1510.29037151
   12   -1510.2904257803      7.02E-09 Convergence criterion met
 Total energy in the final basis set = -1510.29042578
   12   -1510.2904313839      4.76E-09 Convergence criterion met
 Total energy in the final basis set = -1510.29043138
   12   -1510.2904453907      5.69E-09 Convergence criterion met
 Total energy in the final basis set = -1510.29044539
   11   -1510.2904474535      8.21E-09 Convergence criterion met
 Total energy in the final basis set = -1510.29044745
   11   -1510.2904501133      1.90E-09 Convergence criterion met
 Total energy in the final basis set = -1510.29045011

             Standard Nuclear Orientation (Angstroms)
    I     Atom           X                Y                Z
 ----------------------------------------------------------------
    1      O      -2.9427257682     2.3140474253     1.5036528203
    2      C      -2.6340219505     1.7754095345     0.4190677823
    3      C      -3.6624524713     1.0611798179    -0.5439189928
    4      C      -3.6743005200    -0.5286668163    -0.4586279843
    5      C      -2.6357939458    -1.1190360896     0.5560517560
    6      O      -1.4786588513    -1.5355014519    -0.1898280984
    7      C      -0.4318143641    -2.0713607440     0.7210179448
    8      C       0.6152280525    -2.8386017265    -0.1525696546
    9      O       1.5351793361    -1.8906760535    -0.8237502578
   10      C       2.7574475067    -1.7929219059    -0.0636540526
   11      C       3.6989208564    -0.7506827385    -0.7696675238
   12      C       3.4409285787     0.7575324215    -0.3667384910
   13      C       2.2905334784     0.9263867637     0.6830370901
   14      O       1.6511625112     0.0041187347     1.2441095653
   15      O      -1.2571188458     1.8857240617     0.0162139916
   16      O       2.0932392810     2.3090307900     0.9233689736
   17      O       3.0492810787    -2.5428457132     0.8929028348
   18      C       0.9352662929     2.5170256556     1.8353959579
   19      C       5.1992289523    -0.9360114648    -0.2874449777
   20      C       6.1482573746    -0.1960150159    -1.3094758046
   21      C       5.8901720054     1.3088405031    -0.9272488024
   22      C       4.8524017549     1.1508612915     0.2521852624
   23      O       5.2761064133    -0.0942608544     0.9301109366
   24      H       3.5965971892    -0.8828249586    -1.8615948527
   25      H       3.2027205713     1.3818542322    -1.2469437791
   26      H       5.4699879478    -1.9822870784    -0.0473112111
   27      H       7.1979388284    -0.4822645525    -1.1367351806
   28      H       5.8883559349    -0.4209002068    -2.3561956693
   29      H       6.8086861110     1.7985032434    -0.5666645979
   30      H       5.4812918912     1.8977877000    -1.7639213731
   31      H       4.8125649201     1.9957826374     0.9668905724
   32      O      -2.7534370923    -1.2469328719     1.7920125899
   33      C      -0.8526643125     1.1190102829    -1.1853909134
   34      C      -5.1441833523     1.3911194281    -0.0761757723
   35      C      -6.1293759880     1.0357730926    -1.2576307303
   36      C      -6.1393343954    -0.5364118690    -1.1817729455
   37      C      -5.1623964794    -0.7878490792     0.0330911202
   38      O      -5.4254750944     0.3514682497     0.9390526065
   39      H      -3.4908868061     1.3927375561    -1.5826776095
   40      H      -3.4789711026    -0.9748147058    -1.4497791284
   41      H       0.2218053423     1.3413796314    -1.3195097151
   42      H      -5.2616021169     2.3999185997     0.3642060596
   43      H      -7.1289668806     1.4555197036    -1.0626610732
   44      H      -5.7709177387     1.4143414972    -2.2283106201
   45      H      -7.1445870813    -0.9242167661    -0.9525312888
   46      H      -5.7811729656    -1.0110687366    -2.1094372318
   47      H      -5.3031854640    -1.7471804780     0.5676923047
   48      H      -1.3985971440     1.4498890648    -2.0910081694
   49      H      -0.9896939900     0.0223936179    -1.0205207629
   50      H       1.0172767907     1.8797987314     2.7376675814
   51      H      -0.0129865046     2.2907862885     1.2870800077
   52      H       0.9687337670     3.5827699902     2.1241305991
   53      H       1.2122461485    -3.5065207474     0.5069426206
   54      H       0.1058415440    -3.4275040076    -0.9426249869
   55      H      -0.8935264630    -2.7480381949     1.4708018501
   56      H       0.0893543916    -1.2356308832     1.2447979993
 ----------------------------------------------------------------

    9   -1510.2904510101      6.15E-09 Convergence criterion met
 Total energy in the final basis set = -1510.29045101
 Final energy is   -1510.29045101010
 **  OPTIMIZATION CONVERGED  **

                    Orbital Energies (a.u.)
 --------------------------------------------------------------

 Alpha MOs
 -- Occupied --
-18.943 -18.942 -18.938 -18.921 -18.892 -18.889 -18.888 -18.882
-18.882 -18.866 -10.107 -10.106 -10.105 -10.094 -10.066 -10.065
-10.064 -10.063 -10.061 -10.058 -10.057 -10.047 -10.045 -10.041
-10.040 -10.036 -10.025 -10.024 -10.021 -10.020  -1.021  -1.016
 -1.010  -1.002  -0.974  -0.970  -0.946  -0.941  -0.939  -0.928
 -0.769  -0.764  -0.730  -0.724  -0.713  -0.708  -0.698  -0.663
 -0.653  -0.620  -0.600  -0.581  -0.553  -0.545  -0.542  -0.536
 -0.516  -0.510  -0.487  -0.472  -0.465  -0.462  -0.455  -0.453
 -0.441  -0.434  -0.432  -0.421  -0.416  -0.412  -0.408  -0.402
 -0.395  -0.387  -0.374  -0.371  -0.361  -0.357  -0.356  -0.355
 -0.343  -0.338  -0.337  -0.334  -0.332  -0.326  -0.321  -0.317
 -0.313  -0.311  -0.305  -0.304  -0.299  -0.290  -0.284  -0.278
 -0.273  -0.263  -0.254  -0.244  -0.241  -0.238  -0.234  -0.193
 -0.177  -0.171  -0.167  -0.164  -0.159  -0.151  -0.148  -0.148
 -0.145

          Ground-State Mulliken Net Atomic Charges

     Atom                 Charge (a.u.)
  ----------------------------------------
      1 O                    -0.193838
      2 C                     0.208611
      3 C                    -0.083344
      4 C                    -0.081062
      5 C                     0.205871
      6 O                    -0.177275
      7 C                    -0.060077
      8 C                    -0.054347
      9 O                    -0.180282
     10 C                     0.215615
     11 C                    -0.081412
     12 C                    -0.078508
     13 C                     0.216204
     14 O                    -0.215407
     15 O                    -0.173033
     16 O                    -0.169912
     17 O                    -0.216579
     18 C                    -0.147666
     19 C                     0.025506
     20 C                    -0.144239
     21 C                    -0.143687
     22 C                     0.025357
     23 O                    -0.187738
     24 H                     0.083439
     25 H                     0.084401
     26 H                     0.088714
     27 H                     0.078412
     28 H                     0.072802
     29 H                     0.078743
     30 H                     0.073325
     31 H                     0.087252
     32 O                    -0.196912
     33 C                    -0.145829
     34 C                     0.026685
     35 C                    -0.144394
     36 C                    -0.144185
     37 C                     0.026728
     38 O                    -0.182189
     39 H                     0.080229
     40 H                     0.084796
     41 H                     0.087729
     42 H                     0.091298
     43 H                     0.079841
     44 H                     0.072223
     45 H                     0.079662
     46 H                     0.072859
     47 H                     0.086737
     48 H                     0.075214
     49 H                     0.111143
     50 H                     0.087217
     51 H                     0.116322
     52 H                     0.085321
     53 H                     0.102189
     54 H                     0.085859
     55 H                     0.092038
     56 H                     0.113570
  ----------------------------------------
  Sum of atomic charges =    -0.000000

                    Cartesian Multipole Moments
 -----------------------------------------------------------------
    Charge (ESU x 10^10)
                -0.0000
    Dipole Moment (Debye)
         X      -0.3339      Y       0.0298      Z      -5.8890
       Tot       5.8985
    Quadrupole Moments (Debye-Ang)
        XX    -154.9855     XY       7.5591     YY    -158.4143
        XZ       5.3898     YZ      -0.5145     ZZ    -165.0745

 Total job time:  114.41s(wall), 5459.74s(cpu)
        *  Thank you very much for using Q-Chem.  Have a nice day.  *
