 Q-Chem 5.0, Q-Chem, Inc., Pleasanton, CA (2017)
 Q-Chem 5.0.1 for Intel X86 EM64T Linux

User input:
--------------------------------------------------------------
$molecule
0  1
O -3.94934 -3.66094 2.70899
C -3.26408 -4.56952 2.26188
C -3.36658 -6.02376 2.66595
C -2.09534 -6.69167 3.21523
C -0.91124 -5.78435 3.46578
O -0.30789 -5.47108 2.28119
C 0.71191 -4.47536 2.41466
C 1.83623 -4.7376 1.41804
O 1.85342 -3.7074 0.4174
C 2.01251 -2.44399 0.8839
C 2.01028 -1.40684 -0.21381
C 0.68838 -1.28405 -0.98567
C -0.51777 -1.93405 -0.33806
O -0.78237 -1.9068 0.85517
O -2.51568 -4.27954 1.16154
O -1.52831 -2.14637 -1.22741
O 2.24795 -2.16168 2.0539
C -2.88413 -2.14227 -0.95388
C 2.19146 0.04611 0.27504
C 2.72394 0.91171 -0.86663
C 1.50127 0.98887 -1.75702
C 0.48325 0.24044 -0.89025
O 0.8808 0.52818 0.42885
H 2.85802 -1.66639 -0.88753
H 0.75894 -1.63946 -2.0382
H 2.85707 0.1393 1.16042
H 2.92016 1.92421 -0.44615
H 3.64656 0.53509 -1.35838
H 1.21182 2.05801 -1.8634
H 1.61143 0.52166 -2.75959
H -0.55259 0.54341 -1.162
O -0.52528 -5.43618 4.57733
C -2.22352 -5.1694 0.13539
C -4.3281 -6.22747 3.85743
C -4.83435 -7.66948 3.88772
C -3.59157 -8.3922 4.35444
C -2.6453 -7.20641 4.56495
O -3.49337 -6.16728 4.98496
H -3.78034 -6.57428 1.79215
H -1.73597 -7.54972 2.60399
H -1.54242 -4.68872 -0.59313
H -5.19579 -5.53223 3.85263
H -5.60494 -7.73893 4.68875
H -5.26561 -8.03265 2.93009
H -3.81386 -8.87747 5.33111
H -3.18076 -9.1422 3.64448
H -1.83827 -7.49575 5.27391
H -3.16035 -5.45717 -0.38672
H -1.73198 -6.0931 0.49331
H -3.36489 -1.34046 -1.55095
H -3.10473 -1.94888 0.11707
H -3.33341 -3.10644 -1.26156
H 2.82447 -4.71386 1.9352
H 1.74751 -5.74385 0.95568
H 1.23718 -4.59069 3.39115
H 0.26943 -3.46322 2.45497
$end

$opt
CONSTRAINT
tors           1           2           3           4    -122.626
tors           3           4           5           6     -76.557
tors           4           5           6           7    +172.190
tors           5           6           7           8    +146.225
tors           6           7           8           9    +111.611
tors           7           8           9          10     +58.381
tors           8           9          10          11    -179.503
tors           9          10          11          12     +64.191
tors          11          12          13          14     +40.773
ENDCONSTRAINT
$end

$rem
JOBTYPE                   OPT
METHOD                    B3LYP
DFT_D                     d3_op
BASIS                     STO-3G
GEOM_OPT_MAX_CYCLES       100
GEOM_OPT_TOL_GRADIENT     300
GEOM_OPT_TOL_DISPLACEMENT 1200
GEOM_OPT_TOL_ENERGY       100
SYMMETRY                  False
THRESH                    12
SCF_CONVERGENCE           8
MAX_SUB_FILE_NUM          128
MEM_STATIC                400
MEM_TOTAL                 4000
$end
--------------------------------------------------------------

   16   -1510.1411230593      2.24E-09 Convergence criterion met
 Total energy in the final basis set = -1510.14112306
   14   -1510.2075555059      7.83E-09 Convergence criterion met
 Total energy in the final basis set = -1510.20755551
   14   -1510.2369520286      9.82E-09 Convergence criterion met
 Total energy in the final basis set = -1510.23695203
   14   -1510.2553249449      8.27E-09 Convergence criterion met
 Total energy in the final basis set = -1510.25532494
   14   -1510.2622497146      3.50E-09 Convergence criterion met
 Total energy in the final basis set = -1510.26224971
   14   -1510.2659550965      3.61E-09 Convergence criterion met
 Total energy in the final basis set = -1510.26595510
   14   -1510.2688476790      4.94E-09 Convergence criterion met
 Total energy in the final basis set = -1510.26884768
   14   -1510.2693029481      4.55E-09 Convergence criterion met
   10   -1510.2733251080      9.68E-09 Convergence criterion met
 Total energy in the final basis set = -1510.27332511
   10   -1510.2733443095      9.40E-09 Convergence criterion met
 Total energy in the final basis set = -1510.27334431
   12   -1510.2733696266      2.30E-09 Convergence criterion met
 Total energy in the final basis set = -1510.27336963
   11   -1510.2733851512      7.31E-09 Convergence criterion met
 Total energy in the final basis set = -1510.27338515
   11   -1510.2733874274      5.34E-09 Convergence criterion met
 Total energy in the final basis set = -1510.27338743
    9   -1510.2733918236      6.69E-09 Convergence criterion met
 Total energy in the final basis set = -1510.27339182

             Standard Nuclear Orientation (Angstroms)
    I     Atom           X                Y                Z
 ----------------------------------------------------------------
    1      O      -2.1541584592     2.1867793434     1.2647861784
    2      C      -2.3818100831     1.6013831961     0.1837874208
    3      C      -3.7509867586     0.8989171035    -0.1670136559
    4      C      -3.7708329594    -0.6420931408    -0.5506759185
    5      C      -2.5516422072    -1.4854773246    -0.0145904407
    6      O      -1.3853964735    -1.2329024683    -0.8040225455
    7      C      -0.1869562239    -1.8758246118    -0.1959464838
    8      C       0.7491454553    -2.3313114105    -1.3814082402
    9      O       2.0227558960    -1.5742480392    -1.4817912585
   10      C       2.7527605566    -1.7104558881    -0.2489036985
   11      C       4.0930286703    -0.9057323484    -0.3371849752
   12      C       3.9244339012     0.6588674539    -0.4868937760
   13      C       2.4448593826     1.1688622883    -0.3936066285
   14      O       1.5582713791     0.7713624649     0.3971414422
   15      O      -1.4230578455     1.8100689360    -0.8701058592
   16      O       2.3488334411     2.3243845393    -1.2245818097
   17      O       2.3843666158    -2.4422229242     0.6949787403
   18      C       1.1393311619     3.1217262313    -0.9008054836
   19      C       4.9085795179    -1.0041842347     1.0180620333
   20      C       6.4080694888    -0.6125440582     0.7202874365
   21      C       6.2778554787     0.9442794445     0.5249271536
   22      C       4.7348292270     1.1596543811     0.7902426384
   23      O       4.4057111591     0.1419168160     1.8114362662
   24      H       4.6725934210    -1.3092906953    -1.1879301796
   25      H       4.3688798827     1.0338455756    -1.4249858187
   26      H       4.7515419047    -1.9520330430     1.5689145475
   27      H       7.0492380145    -0.8591958869     1.5814800226
   28      H       6.8029395419    -1.1228104718    -0.1728097317
   29      H       6.8757057525     1.4973891967     1.2666346339
   30      H       6.5738213234     1.2729866126    -0.4842429350
   31      H       4.4547099909     2.1714410130     1.1428435293
   32      O      -2.5751500146    -2.2816545614     0.9485925624
   33      C      -1.7181319205     1.2066027056    -2.1865265132
   34      C      -4.7963754385     0.9392655840     1.0306674189
   35      C      -6.2316604230     1.0292751315     0.3840357146
   36      C      -6.3454055629    -0.4041887546    -0.2581832027
   37      C      -5.0364611426    -1.1007424573     0.2914691347
   38      O      -4.7805333102    -0.4308718274     1.5895249030
   39      H      -4.1662010746     1.4672243530    -1.0205784728
   40      H      -3.8840318915    -0.7899762414    -1.6395319617
   41      H      -0.9210918657     1.5747055228    -2.8586694546
   42      H      -4.5533425516     1.6871787840     1.8104644643
   43      H      -6.9930839894     1.1791887021     1.1662180225
   44      H      -6.3174282399     1.8411963978    -0.3558231893
   45      H      -7.2436116768    -0.9374947379     0.0902240637
   46      H      -6.3609853091    -0.3728231316    -1.3597470411
   47      H      -5.1036250163    -2.1965577704     0.4332297528
   48      H      -2.7006936831     1.5234449323    -2.5881462826
   49      H      -1.6562953962     0.1014722181    -2.1007248618
   50      H       1.2913550466     3.6701068109     0.0512473170
   51      H       0.2095018053     2.5072342618    -0.8160307608
   52      H       1.0368395901     3.8545390649    -1.7219357364
   53      H       0.9615603331    -3.4189428050    -1.2903957662
   54      H       0.2298896474    -2.1510319486    -2.3447507384
   55      H      -0.5062308104    -2.7222923721     0.4457943497
   56      H       0.3289743067    -1.1067363865     0.4229061619
 ----------------------------------------------------------------

    9   -1510.2733928055      3.57E-09 Convergence criterion met
 Total energy in the final basis set = -1510.27339281
 Final energy is   -1510.27339280553
 **  OPTIMIZATION CONVERGED  **

                    Orbital Energies (a.u.)
 --------------------------------------------------------------

 Alpha MOs
 -- Occupied --
-18.942 -18.940 -18.932 -18.922 -18.889 -18.885 -18.885 -18.881
-18.874 -18.865 -10.106 -10.106 -10.098 -10.091 -10.075 -10.066
-10.062 -10.062 -10.060 -10.058 -10.055 -10.047 -10.044 -10.035
-10.033 -10.032 -10.024 -10.022 -10.018 -10.017  -1.020  -1.011
 -1.009  -0.998  -0.972  -0.967  -0.944  -0.940  -0.934  -0.926
 -0.768  -0.760  -0.729  -0.721  -0.709  -0.705  -0.697  -0.665
 -0.648  -0.621  -0.599  -0.585  -0.552  -0.543  -0.540  -0.534
 -0.514  -0.507  -0.490  -0.472  -0.463  -0.461  -0.451  -0.448
 -0.435  -0.430  -0.428  -0.424  -0.412  -0.406  -0.403  -0.398
 -0.395  -0.385  -0.377  -0.368  -0.361  -0.354  -0.354  -0.349
 -0.348  -0.342  -0.336  -0.333  -0.328  -0.322  -0.319  -0.314
 -0.309  -0.307  -0.302  -0.300  -0.293  -0.289  -0.283  -0.281
 -0.268  -0.257  -0.253  -0.250  -0.235  -0.231  -0.229  -0.187
 -0.176  -0.173  -0.166  -0.161  -0.154  -0.151  -0.145  -0.144
 -0.140

          Ground-State Mulliken Net Atomic Charges

     Atom                 Charge (a.u.)
  ----------------------------------------
      1 O                    -0.194411
      2 C                     0.213024
      3 C                    -0.084735
      4 C                    -0.079663
      5 C                     0.209573
      6 O                    -0.180556
      7 C                    -0.057372
      8 C                    -0.049302
      9 O                    -0.172846
     10 C                     0.212010
     11 C                    -0.080408
     12 C                    -0.078395
     13 C                     0.210413
     14 O                    -0.215823
     15 O                    -0.167873
     16 O                    -0.175190
     17 O                    -0.210812
     18 C                    -0.151946
     19 C                     0.024871
     20 C                    -0.143825
     21 C                    -0.143906
     22 C                     0.025899
     23 O                    -0.186517
     24 H                     0.083642
     25 H                     0.085850
     26 H                     0.090541
     27 H                     0.078176
     28 H                     0.072404
     29 H                     0.078122
     30 H                     0.073614
     31 H                     0.083603
     32 O                    -0.201411
     33 C                    -0.140075
     34 C                     0.023943
     35 C                    -0.142254
     36 C                    -0.146167
     37 C                     0.026120
     38 O                    -0.184715
     39 H                     0.079117
     40 H                     0.081657
     41 H                     0.091191
     42 H                     0.094656
     43 H                     0.079960
     44 H                     0.072026
     45 H                     0.079576
     46 H                     0.071176
     47 H                     0.088826
     48 H                     0.075552
     49 H                     0.110180
     50 H                     0.077315
     51 H                     0.120476
     52 H                     0.076603
     53 H                     0.087270
     54 H                     0.091900
     55 H                     0.106246
     56 H                     0.112670
  ----------------------------------------
  Sum of atomic charges =    -0.000000

                    Cartesian Multipole Moments
 -----------------------------------------------------------------
    Charge (ESU x 10^10)
                -0.0000
    Dipole Moment (Debye)
         X      -0.7117      Y       0.1404      Z      -5.5161
       Tot       5.5636
    Quadrupole Moments (Debye-Ang)
        XX    -133.8249     XY      -3.0642     YY    -159.2890
        XZ       8.0972     YZ       3.1101     ZZ    -166.0075

 Total job time:  79.88s(wall), 3808.24s(cpu)
        *  Thank you very much for using Q-Chem.  Have a nice day.  *
