 Q-Chem 5.0, Q-Chem, Inc., Pleasanton, CA (2017)
 Q-Chem 5.0.1 for Intel X86 EM64T Linux

User input:
--------------------------------------------------------------
$molecule
0  1
O -2.2856336152 2.4589975938 0.9860483219
C -2.4176108835 1.6554134886 0.0360207987
C -3.7601774236 0.8810861475 -0.2624039334
C -3.7782858903 -0.6844166572 -0.5325330878
C -2.5790869411 -1.5110024481 0.0747780404
O -1.3931614491 -1.3357539254 -0.7052145003
C -0.2055821074 -1.9056324337 -0.0084512685
C 0.7331840579 -2.517168458 -1.118876906
O 1.9935459423 -1.770813971 -1.3546517409
C 2.745489048 -1.6956422782 -0.1293678725
C 4.0681113305 -0.895195051 -0.3849666206
C 3.8794227171 0.6688947055 -0.514779426
C 2.4072986553 1.1713386753 -0.3281792097
O 1.5351930637 0.7010492021 0.4394526704
O -1.3863293484 1.6895232736 -0.9648051926
O 2.2986376813 2.4003077549 -1.0396585279
O 2.4153932406 -2.281835974 0.9236777912
C 1.0721367936 3.1405315176 -0.6473637345
C 5.0278538535 -0.9846701728 0.874631215
C 6.4781063626 -0.552834176 0.4247925897
C 6.3003652443 1.0052495218 0.2874075328
C 4.7835909525 1.1765805389 0.6956890407
O 4.5780980765 0.1392366131 1.728760449
H 4.5443105873 -1.3026394194 -1.2950479732
H 4.2572560663 1.0479473905 -1.4803535649
H 4.9561214686 -1.9403014015 1.4291116636
H 7.2158964261 -0.8083609316 1.201892427
H 6.7788612918 -1.0329268467 -0.5199566053
H 6.9504663027 1.5498835832 0.9904965708
H 6.4980730072 1.3699925017 -0.7330627274
H 4.5093556389 2.1766957021 1.0841035648
O -2.633475717 -2.2344168657 1.0929935605
C -1.6451016915 0.9884168214 -2.240407266
C -4.8256739682 1.0136480001 0.9102934454
C -6.2492875782 1.0607131472 0.2342528181
C -6.3573840566 -0.4152166516 -0.3041211714
C -5.061445457 -1.0738236754 0.3197102337
O -4.8259982376 -0.3114479006 1.5692569493
H -4.1709161659 1.3737935114 -1.1648083649
H -3.8809067853 -0.9076548433 -1.609748227
H -0.8255514808 1.3017601363 -2.913296071
H -4.5918353296 1.8187412181 1.6342434052
H -7.0229960194 1.2688547562 0.9905623344
H -6.3180190679 1.8178666165 -0.5633777293
H -7.2644337181 -0.918960406 0.0648330142
H -6.3515916511 -0.4639196922 -1.405085261
H -5.1365075626 -2.1560467765 0.539892611
H -2.6139473131 1.2798528324 -2.6909582475
H -1.5932506198 -0.1068971549 -2.0630234401
H 1.1523105134 3.489612435 0.4020457184
H 0.1425745114 2.5278034786 -0.7553286568
H 1.0311712297 4.0185292637 -1.3171113489
H 0.9640671998 -3.5748542184 -0.8642021542
H 0.2014538549 -2.4967528055 -2.0921278337
H -0.5417067105 -2.6640050696 0.7282617501
H 0.3128092865 -1.0681181161 0.5142650073
$end

$rem
JOBTYPE                   OPT
METHOD                    B3LYP
DFT_D                     d3_op
BASIS                     STO-3G
GEOM_OPT_MAX_CYCLES       100
GEOM_OPT_TOL_GRADIENT     300
GEOM_OPT_TOL_DISPLACEMENT 1200
GEOM_OPT_TOL_ENERGY       100
SYMMETRY                  False
THRESH                    12
SCF_CONVERGENCE           8
MAX_SUB_FILE_NUM          128
MEM_STATIC                400
MEM_TOTAL                 4000
$end
--------------------------------------------------------------

   16   -1510.2727692502      6.24E-09 Convergence criterion met
 Total energy in the final basis set = -1510.27276925
   14   -1510.2723998302      5.17E-09 Convergence criterion met
 Total energy in the final basis set = -1510.27239983
   14   -1510.2754095139      4.99E-09 Convergence criterion met
 Total energy in the final basis set = -1510.27540951
   14   -1510.2781394168      9.59E-09 Convergence criterion met
 Total energy in the final basis set = -1510.27813942
   14   -1510.2794264009      2.95E-09 Convergence criterion met
 Total energy in the final basis set = -1510.27942640
   15   -1510.2796216897      4.80E-09 Convergence criterion met
 Total energy in the final basis set = -1510.27962169
   13   -1510.2801691121      7.86E-09 Convergence criterion met
 Total energy in the final basis set = -1510.28016911
   14   -1510.2827270740      5.06E-09 Convergence criterion met
   11   -1510.2905140238      9.40E-09 Convergence criterion met
 Total energy in the final basis set = -1510.29051402
   12   -1510.2904988681      6.37E-09 Convergence criterion met
 Total energy in the final basis set = -1510.29049887
   12   -1510.2905431127      5.17E-09 Convergence criterion met
 Total energy in the final basis set = -1510.29054311
   12   -1510.2905456378      3.98E-09 Convergence criterion met
 Total energy in the final basis set = -1510.29054564
   11   -1510.2905477552      5.23E-09 Convergence criterion met
 Total energy in the final basis set = -1510.29054776
   10   -1510.2905536119      7.57E-09 Convergence criterion met
 Total energy in the final basis set = -1510.29055361

             Standard Nuclear Orientation (Angstroms)
    I     Atom           X                Y                Z
 ----------------------------------------------------------------
    1      O      -2.9584617914     2.3435557140     1.4426398312
    2      C      -2.6493072307     1.7724247095     0.3749887968
    3      C      -3.6734510922     1.0147481628    -0.5588711321
    4      C      -3.6664560827    -0.5715051646    -0.4229073922
    5      C      -2.6236605368    -1.1175584520     0.6120226804
    6      O      -1.4603878255    -1.5444421182    -0.1182243297
    7      C      -0.4097520799    -2.0401990441     0.8106498647
    8      C       0.6352706627    -2.8435427671    -0.0326585113
    9      O       1.5511125944    -1.9249262230    -0.7479699866
   10      C       2.7731453212    -1.7850922803     0.0061199007
   11      C       3.7085588060    -0.7758894569    -0.7537665504
   12      C       3.4350632921     0.7505206386    -0.4400949397
   13      C       2.2951739505     0.9651373121     0.6129368503
   14      O       1.6679541479     0.0673513895     1.2252967955
   15      O      -1.2762452423     1.8861467588    -0.0407006106
   16      O       2.0918615335     2.3563239476     0.7899128086
   17      O       3.0692333969    -2.4870466244     0.9970968449
   18      C       0.9467883468     2.6000800612     1.7095966567
   19      C       5.2106328899    -0.9189557976    -0.2618704636
   20      C       6.1521663817    -0.2428067666    -1.3332009082
   21      C       5.8738840581     1.2820501745    -1.0599466003
   22      C       4.8477712765     1.1965092346     0.1378614811
   23      O       5.2867372622     0.0037777219     0.8954975622
   24      H       3.6100408161    -0.9718076786    -1.8365239565
   25      H       3.1804847896     1.3184021429    -1.3531257514
   26      H       5.4883716316    -1.9451508825     0.0473235068
   27      H       7.2049477385    -0.5020214431    -1.1378624611
   28      H       5.8989073553    -0.5463734584    -2.3617278527
   29      H       6.7878579136     1.8101518482    -0.7451393808
   30      H       5.4484296114     1.8018739698    -1.9333106295
   31      H       4.8070244243     2.0881961181     0.7931256306
   32      O      -2.7434149926    -1.2086196336     1.8510202279
   33      C      -0.8691353449     1.0792413086    -1.2147265575
   34      C      -5.1580987819     1.3424314689    -0.0987592314
   35      C      -6.1392835286     0.9418923657    -1.2690736492
   36      C      -6.1305767024    -0.6275832459    -1.1482223596
   37      C      -5.1522524274    -0.8323591729     0.0746684639
   38      O      -5.4286070841     0.3301144142     0.9462986419
   39      H      -3.5091805309     1.3144799769    -1.6083951824
   40      H      -3.4633634590    -1.0466449873    -1.3989257478
   41      H       0.2007176643     1.3123434877    -1.3662867316
   42      H      -5.2863674575     2.3624529467     0.3117693978
   43      H      -7.1437832477     1.3550095244    -1.0855457390
   44      H      -5.7854392584     1.2967347933    -2.2503434919
   45      H      -7.1314274138    -1.0208660912    -0.9092612804
   46      H      -5.7650863911    -1.1240340951    -2.0615049296
   47      H      -5.2831334138    -1.7769282202     0.6373927142
   48      H      -1.4268262919     1.3657784156    -2.1282225281
   49      H      -0.9889493801    -0.0119349324    -1.0058762116
   50      H       1.0433804910     2.0003343170     2.6357838819
   51      H      -0.0095763512     2.3502760765     1.1858182359
   52      H       0.9826832724     3.6767861442     1.9538767005
   53      H       1.2346213472    -3.4821124096     0.6532390131
   54      H       0.1235958591    -3.4665390898    -0.7945512652
   55      H      -0.8685587112    -2.6839266545     1.5906178414
   56      H       0.1119531525    -1.1819316468     1.2958110835
 ----------------------------------------------------------------

    9   -1510.2905543667      5.76E-09 Convergence criterion met
 Total energy in the final basis set = -1510.29055437
 Final energy is   -1510.29055436672
 **  OPTIMIZATION CONVERGED  **

                    Orbital Energies (a.u.)
 --------------------------------------------------------------

 Alpha MOs
 -- Occupied --
-18.943 -18.942 -18.938 -18.921 -18.892 -18.889 -18.888 -18.882
-18.882 -18.866 -10.107 -10.106 -10.106 -10.094 -10.066 -10.065
-10.064 -10.063 -10.061 -10.058 -10.057 -10.047 -10.045 -10.041
-10.040 -10.036 -10.025 -10.024 -10.021 -10.020  -1.021  -1.016
 -1.010  -1.002  -0.974  -0.970  -0.946  -0.941  -0.939  -0.928
 -0.769  -0.764  -0.730  -0.724  -0.714  -0.708  -0.698  -0.663
 -0.653  -0.620  -0.600  -0.581  -0.554  -0.545  -0.542  -0.536
 -0.516  -0.510  -0.487  -0.473  -0.466  -0.462  -0.455  -0.453
 -0.441  -0.434  -0.432  -0.421  -0.416  -0.412  -0.408  -0.403
 -0.395  -0.387  -0.374  -0.371  -0.361  -0.357  -0.356  -0.355
 -0.343  -0.338  -0.337  -0.335  -0.332  -0.326  -0.321  -0.317
 -0.313  -0.311  -0.305  -0.304  -0.299  -0.290  -0.284  -0.278
 -0.273  -0.263  -0.254  -0.244  -0.241  -0.238  -0.234  -0.193
 -0.177  -0.171  -0.167  -0.164  -0.159  -0.151  -0.148  -0.148
 -0.145

          Ground-State Mulliken Net Atomic Charges

     Atom                 Charge (a.u.)
  ----------------------------------------
      1 O                    -0.193698
      2 C                     0.208649
      3 C                    -0.083359
      4 C                    -0.081044
      5 C                     0.205930
      6 O                    -0.177280
      7 C                    -0.060130
      8 C                    -0.054208
      9 O                    -0.180437
     10 C                     0.215682
     11 C                    -0.081466
     12 C                    -0.078395
     13 C                     0.216323
     14 O                    -0.215248
     15 O                    -0.173012
     16 O                    -0.169839
     17 O                    -0.216816
     18 C                    -0.147805
     19 C                     0.025400
     20 C                    -0.144097
     21 C                    -0.143784
     22 C                     0.025267
     23 O                    -0.187964
     24 H                     0.083475
     25 H                     0.084421
     26 H                     0.088871
     27 H                     0.078405
     28 H                     0.072789
     29 H                     0.078681
     30 H                     0.073227
     31 H                     0.087333
     32 O                    -0.196929
     33 C                    -0.145866
     34 C                     0.026689
     35 C                    -0.144353
     36 C                    -0.144223
     37 C                     0.026798
     38 O                    -0.182236
     39 H                     0.080228
     40 H                     0.084803
     41 H                     0.087696
     42 H                     0.091328
     43 H                     0.079838
     44 H                     0.072210
     45 H                     0.079669
     46 H                     0.072851
     47 H                     0.086738
     48 H                     0.075212
     49 H                     0.111124
     50 H                     0.087395
     51 H                     0.116336
     52 H                     0.085291
     53 H                     0.101986
     54 H                     0.085886
     55 H                     0.092324
     56 H                     0.113335
  ----------------------------------------
  Sum of atomic charges =    -0.000000

                    Cartesian Multipole Moments
 -----------------------------------------------------------------
    Charge (ESU x 10^10)
                -0.0000
    Dipole Moment (Debye)
         X      -0.3529      Y      -0.2117      Z      -5.9074
       Tot       5.9217
    Quadrupole Moments (Debye-Ang)
        XX    -155.2048     XY       7.4896     YY    -158.2821
        XZ       5.0458     YZ      -0.7672     ZZ    -165.1563

 Total job time:  108.57s(wall), 5177.69s(cpu)
        *  Thank you very much for using Q-Chem.  Have a nice day.  *
