 Q-Chem 5.0, Q-Chem, Inc., Pleasanton, CA (2017)
 Q-Chem 5.0.1 for Intel X86 EM64T Linux

User input:
--------------------------------------------------------------
$molecule
0  1
O -3.94934 -3.66094 2.70899
C -3.26408 -4.56952 2.26188
C -3.36658 -6.02376 2.66595
C -2.05627 -6.75238 3.00664
C -0.80908 -5.89941 3.07761
O -0.38274 -5.59498 1.81627
C 0.64907 -4.60294 1.79469
C 1.64272 -4.90225 0.67701
O 1.50403 -3.9329 -0.37371
C 1.6846 -2.64102 -0.00279
C 1.51421 -1.67089 -1.14755
C 0.06017 -1.42244 -1.57452
C -1.00311 -1.87976 -0.59626
O -0.90457 -1.8518 0.62196
O -2.62224 -4.28791 1.09507
O -2.24504 -1.95634 -1.15121
O 2.13668 -2.29763 1.0846
C -3.45419 -1.89668 -0.48354
C 1.9504 -0.22333 -0.81848
C 2.27688 0.52363 -2.11146
C 0.89102 0.69122 -2.69782
C 0.04229 0.11687 -1.55855
O 0.77437 0.41854 -0.3963
H 2.15738 -2.0372 -1.97967
H -0.1787 -1.85117 -2.57323
H 2.81699 -0.16537 -0.12451
H 2.66072 1.52712 -1.81755
H 3.01788 0.0313 -2.7773
H 0.69435 1.77852 -2.82872
H 0.70942 0.15161 -3.65256
H -0.99157 0.52669 -1.60074
O -0.24359 -5.58287 4.11953
C -2.54777 -5.13218 -0.00348
C -4.14799 -6.20866 3.98363
C -4.70056 -7.63099 4.07418
C -3.4322 -8.40702 4.34721
C -2.41753 -7.2622 4.42087
O -3.15115 -6.19734 4.97274
H -3.91893 -6.54122 1.85031
H -1.83332 -7.617 2.34193
H -1.93272 -4.65483 -0.79226
H -4.97746 -5.48033 4.11567
H -5.34917 -7.68538 4.97779
H -5.27926 -7.96133 3.18482
H -3.52562 -8.89183 5.34476
H -3.16335 -9.16678 3.58187
H -1.52569 -7.59248 4.99805
H -3.56687 -5.30855 -0.40754
H -2.09762 -6.11334 0.24097
H -4.0326 -1.03162 -0.86767
H -3.3323 -1.76854 0.61253
H -4.03666 -2.81739 -0.68618
H 2.68779 -4.82025 1.05943
H 1.53149 -5.9388 0.2932
H 1.29508 -4.70293 2.69718
H 0.23401 -3.58407 1.88039
$end

$opt
CONSTRAINT
tors           1           2           3           4    -131.884
tors           3           4           5           6     -76.557
tors           4           5           6           7    +169.685
tors           5           6           7           8    +144.295
tors           6           7           8           9    +109.300
tors           7           8           9          10     +58.211
tors           8           9          10          11    -179.503
tors           9          10          11          12     +75.279
tors          11          12          13          14     +34.748
ENDCONSTRAINT
$end

$rem
JOBTYPE                   OPT
METHOD                    B3LYP
DFT_D                     d3_op
BASIS                     STO-3G
GEOM_OPT_MAX_CYCLES       100
GEOM_OPT_TOL_GRADIENT     300
GEOM_OPT_TOL_DISPLACEMENT 1200
GEOM_OPT_TOL_ENERGY       100
SYMMETRY                  False
THRESH                    12
SCF_CONVERGENCE           8
MAX_SUB_FILE_NUM          128
MEM_STATIC                400
MEM_TOTAL                 4000
$end
--------------------------------------------------------------

   15   -1510.1368280106      9.49E-09 Convergence criterion met
 Total energy in the final basis set = -1510.13682801
   14   -1510.2040907844      7.50E-09 Convergence criterion met
 Total energy in the final basis set = -1510.20409078
   14   -1510.2378109581      8.35E-09 Convergence criterion met
 Total energy in the final basis set = -1510.23781096
   14   -1510.2511840470      9.15E-09 Convergence criterion met
 Total energy in the final basis set = -1510.25118405
   14   -1510.2593001599      3.26E-09 Convergence criterion met
 Total energy in the final basis set = -1510.25930016
   14   -1510.2639090536      4.00E-09 Convergence criterion met
 Total energy in the final basis set = -1510.26390905
   14   -1510.2655369058      4.35E-09 Convergence criterion met
 Total energy in the final basis set = -1510.26553691
   14   -1510.2659285813      7.33E-09 Convergence criterion met
   12   -1510.2728816675      6.71E-09 Convergence criterion met
 Total energy in the final basis set = -1510.27288167
   11   -1510.2728899372      3.52E-09 Convergence criterion met
 Total energy in the final basis set = -1510.27288994
   13   -1510.2729039108      2.62E-09 Convergence criterion met
 Total energy in the final basis set = -1510.27290391
   12   -1510.2729053876      5.33E-09 Convergence criterion met
 Total energy in the final basis set = -1510.27290539
   11   -1510.2729111518      4.87E-09 Convergence criterion met
 Total energy in the final basis set = -1510.27291115
   12   -1510.2729244136      4.63E-09 Convergence criterion met
 Total energy in the final basis set = -1510.27292441

             Standard Nuclear Orientation (Angstroms)
    I     Atom           X                Y                Z
 ----------------------------------------------------------------
    1      O      -2.2856336152     2.4589975938     0.9860483219
    2      C      -2.4176108835     1.6554134886     0.0360207987
    3      C      -3.7601774236     0.8810861475    -0.2624039334
    4      C      -3.7782858903    -0.6844166572    -0.5325330878
    5      C      -2.5790869411    -1.5110024481     0.0747780404
    6      O      -1.3931614491    -1.3357539254    -0.7052145003
    7      C      -0.2055821074    -1.9056324337    -0.0084512685
    8      C       0.7331840579    -2.5171684580    -1.1188769060
    9      O       1.9935459423    -1.7708139710    -1.3546517409
   10      C       2.7454890480    -1.6956422782    -0.1293678725
   11      C       4.0681113305    -0.8951950510    -0.3849666206
   12      C       3.8794227171     0.6688947055    -0.5147794260
   13      C       2.4072986553     1.1713386753    -0.3281792097
   14      O       1.5351930637     0.7010492021     0.4394526704
   15      O      -1.3863293484     1.6895232736    -0.9648051926
   16      O       2.2986376813     2.4003077549    -1.0396585279
   17      O       2.4153932406    -2.2818359740     0.9236777912
   18      C       1.0721367936     3.1405315176    -0.6473637345
   19      C       5.0278538535    -0.9846701728     0.8746312150
   20      C       6.4781063626    -0.5528341760     0.4247925897
   21      C       6.3003652443     1.0052495218     0.2874075328
   22      C       4.7835909525     1.1765805389     0.6956890407
   23      O       4.5780980765     0.1392366131     1.7287604490
   24      H       4.5443105873    -1.3026394194    -1.2950479732
   25      H       4.2572560663     1.0479473905    -1.4803535649
   26      H       4.9561214686    -1.9403014015     1.4291116636
   27      H       7.2158964261    -0.8083609316     1.2018924270
   28      H       6.7788612918    -1.0329268467    -0.5199566053
   29      H       6.9504663027     1.5498835832     0.9904965708
   30      H       6.4980730072     1.3699925017    -0.7330627274
   31      H       4.5093556389     2.1766957021     1.0841035648
   32      O      -2.6334757170    -2.2344168657     1.0929935605
   33      C      -1.6451016915     0.9884168214    -2.2404072660
   34      C      -4.8256739682     1.0136480001     0.9102934454
   35      C      -6.2492875782     1.0607131472     0.2342528181
   36      C      -6.3573840566    -0.4152166516    -0.3041211714
   37      C      -5.0614454570    -1.0738236754     0.3197102337
   38      O      -4.8259982376    -0.3114479006     1.5692569493
   39      H      -4.1709161659     1.3737935114    -1.1648083649
   40      H      -3.8809067853    -0.9076548433    -1.6097482270
   41      H      -0.8255514808     1.3017601363    -2.9132960710
   42      H      -4.5918353296     1.8187412181     1.6342434052
   43      H      -7.0229960194     1.2688547562     0.9905623344
   44      H      -6.3180190679     1.8178666165    -0.5633777293
   45      H      -7.2644337181    -0.9189604060     0.0648330142
   46      H      -6.3515916511    -0.4639196922    -1.4050852610
   47      H      -5.1365075626    -2.1560467765     0.5398926110
   48      H      -2.6139473131     1.2798528324    -2.6909582475
   49      H      -1.5932506198    -0.1068971549    -2.0630234401
   50      H       1.1523105134     3.4896124350     0.4020457184
   51      H       0.1425745114     2.5278034786    -0.7553286568
   52      H       1.0311712297     4.0185292637    -1.3171113489
   53      H       0.9640671998    -3.5748542184    -0.8642021542
   54      H       0.2014538549    -2.4967528055    -2.0921278337
   55      H      -0.5417067105    -2.6640050696     0.7282617501
   56      H       0.3128092865    -1.0681181161     0.5142650073
 ----------------------------------------------------------------

    9   -1510.2729245811      8.07E-09 Convergence criterion met
 Total energy in the final basis set = -1510.27292458
 Final energy is   -1510.27292458112
 **  OPTIMIZATION CONVERGED  **

                    Orbital Energies (a.u.)
 --------------------------------------------------------------

 Alpha MOs
 -- Occupied --
-18.944 -18.941 -18.930 -18.924 -18.889 -18.885 -18.885 -18.881
-18.872 -18.868 -10.108 -10.107 -10.096 -10.093 -10.074 -10.064
-10.062 -10.061 -10.060 -10.058 -10.055 -10.048 -10.045 -10.035
-10.033 -10.030 -10.024 -10.022 -10.019 -10.018  -1.020  -1.011
 -1.009  -1.000  -0.973  -0.968  -0.944  -0.941  -0.933  -0.927
 -0.768  -0.761  -0.729  -0.721  -0.710  -0.705  -0.697  -0.666
 -0.647  -0.621  -0.599  -0.584  -0.552  -0.543  -0.540  -0.534
 -0.515  -0.508  -0.490  -0.471  -0.463  -0.461  -0.452  -0.448
 -0.435  -0.430  -0.429  -0.424  -0.412  -0.407  -0.403  -0.398
 -0.395  -0.385  -0.378  -0.366  -0.361  -0.356  -0.353  -0.351
 -0.347  -0.341  -0.335  -0.332  -0.329  -0.322  -0.320  -0.316
 -0.309  -0.307  -0.303  -0.300  -0.293  -0.289  -0.286  -0.280
 -0.268  -0.256  -0.252  -0.248  -0.236  -0.232  -0.230  -0.187
 -0.177  -0.171  -0.167  -0.161  -0.153  -0.151  -0.145  -0.144
 -0.141

          Ground-State Mulliken Net Atomic Charges

     Atom                 Charge (a.u.)
  ----------------------------------------
      1 O                    -0.196260
      2 C                     0.213382
      3 C                    -0.084729
      4 C                    -0.079659
      5 C                     0.209724
      6 O                    -0.180606
      7 C                    -0.059073
      8 C                    -0.049473
      9 O                    -0.174420
     10 C                     0.212069
     11 C                    -0.080763
     12 C                    -0.078622
     13 C                     0.210834
     14 O                    -0.216222
     15 O                    -0.168230
     16 O                    -0.174534
     17 O                    -0.210394
     18 C                    -0.152619
     19 C                     0.025532
     20 C                    -0.144235
     21 C                    -0.143608
     22 C                     0.025935
     23 O                    -0.186466
     24 H                     0.083676
     25 H                     0.085720
     26 H                     0.089233
     27 H                     0.078072
     28 H                     0.072621
     29 H                     0.078173
     30 H                     0.073848
     31 H                     0.084036
     32 O                    -0.201728
     33 C                    -0.141130
     34 C                     0.023630
     35 C                    -0.142139
     36 C                    -0.146298
     37 C                     0.026211
     38 O                    -0.185063
     39 H                     0.079706
     40 H                     0.081557
     41 H                     0.091170
     42 H                     0.095202
     43 H                     0.079970
     44 H                     0.072115
     45 H                     0.079613
     46 H                     0.071157
     47 H                     0.088996
     48 H                     0.075468
     49 H                     0.113029
     50 H                     0.078979
     51 H                     0.120113
     52 H                     0.077550
     53 H                     0.086747
     54 H                     0.091100
     55 H                     0.105869
     56 H                     0.115231
  ----------------------------------------
  Sum of atomic charges =    -0.000000

                    Cartesian Multipole Moments
 -----------------------------------------------------------------
    Charge (ESU x 10^10)
                -0.0000
    Dipole Moment (Debye)
         X      -0.7065      Y      -0.2045      Z      -5.5163
       Tot       5.5651
    Quadrupole Moments (Debye-Ang)
        XX    -135.4789     XY      -1.6053     YY    -159.5314
        XZ       7.3243     YZ       2.9743     ZZ    -166.0491

 Total job time:  108.73s(wall), 5186.16s(cpu)
        *  Thank you very much for using Q-Chem.  Have a nice day.  *
