 Q-Chem 5.0, Q-Chem, Inc., Pleasanton, CA (2017)
 Q-Chem 5.0.1 for Intel X86 EM64T Linux

User input:
--------------------------------------------------------------
$molecule
0  1
O -2.6249762459 2.3483043689 0.8428970066
C -2.8716477744 1.5583533162 -0.0941458073
C -4.1992531809 0.7745446291 -0.3723378125
C -4.0725518752 -0.7938208641 -0.5868365531
C -2.7741795395 -1.449258908 0.0167947975
O -1.6286058279 -1.1818587437 -0.8058503607
C -0.3880517982 -1.497534203 -0.0470881735
C 0.5562424262 -2.3448642718 -0.9814883242
O 1.821281423 -1.6520852498 -1.3393077198
C 2.7233194577 -1.761551885 -0.2280813535
C 4.0806287201 -1.0375392984 -0.5345818737
C 4.0921128091 0.5433620113 -0.5315924738
C 2.7421840256 1.3018319975 -0.3180963413
O 1.7177396275 0.9574347684 0.3173874384
O -2.0352584573 1.3602221516 -1.2344752701
O 2.988638809 2.6207015692 -0.8215003124
O 2.4556937232 -2.3923537993 0.8182719415
C 1.9844904139 3.6038618699 -0.3570740026
C 5.110468901 -1.3454374773 0.6333968017
C 6.5690679771 -1.0172702721 0.1270972499
C 6.5617294706 0.5553764538 0.1763715949
C 5.0916250238 0.8338961714 0.6818629277
O 4.8287607249 -0.2755780875 1.6199296466
H 4.4487344756 -1.4073248807 -1.5093963838
H 4.5227195318 0.9260829441 -1.4738188077
H 4.9707697812 -2.3400198649 1.0990710817
H 7.3206698501 -1.4404311343 0.8121307136
H 6.7519961466 -1.4107531502 -0.8854472589
H 7.2939345396 0.9408267155 0.903881144
H 6.7598376633 1.017215835 -0.8039777834
H 4.9393328733 1.8135995023 1.1751153137
O -2.7216560117 -2.0969810601 1.0869829606
C -0.7831583885 2.1335517279 -1.1093517006
C -5.280948356 0.8526333305 0.7850161056
C -6.6981378738 0.7153716057 0.1051896566
C -6.6591175134 -0.7952960966 -0.33971422
C -5.2956657977 -1.2773301714 0.3005737572
O -5.1435883013 -0.4314023472 1.5094237899
H -4.610532318 1.2156114828 -1.3000156693
H -4.1630348613 -1.0584825701 -1.655914917
H -0.0353501173 1.6134780752 -0.4687467889
H -5.1467497567 1.7093775962 1.4738280989
H -7.4960302776 0.8951513379 0.843460728
H -6.8328061158 1.4094723414 -0.7397457159
H -7.5049194068 -1.3643100691 0.0771419876
H -6.6617391624 -0.9126704685 -1.4353671166
H -5.2529389045 -2.3483471402 0.5769653708
H -0.9801808642 3.1390558792 -0.6878356596
H -0.3767960398 2.226369531 -2.1334310898
H 1.2983894362 3.8714133224 -1.1841361749
H 2.5373236776 4.5105137892 -0.0431052159
H 1.3990950827 3.2039931212 0.4932122833
H 0.7816435722 -3.3233013386 -0.5083367996
H 0.0369609949 -2.515981257 -1.9469182585
H -0.6646832982 -2.0560358878 0.8716556292
H 0.1251361507 -0.5478124307 0.2277588862
$end

$rem
JOBTYPE                   OPT
METHOD                    B3LYP
DFT_D                     d3_op
BASIS                     STO-3G
GEOM_OPT_MAX_CYCLES       100
GEOM_OPT_TOL_GRADIENT     300
GEOM_OPT_TOL_DISPLACEMENT 1200
GEOM_OPT_TOL_ENERGY       100
SYMMETRY                  False
THRESH                    12
SCF_CONVERGENCE           8
MAX_SUB_FILE_NUM          128
MEM_STATIC                400
MEM_TOTAL                 4000
$end
--------------------------------------------------------------

   16   -1510.2764682487      6.07E-09 Convergence criterion met
 Total energy in the final basis set = -1510.27646825
   15   -1510.2745249682      4.76E-09 Convergence criterion met
 Total energy in the final basis set = -1510.27452497
   13   -1510.2789910128      5.69E-09 Convergence criterion met
 Total energy in the final basis set = -1510.27899101
   15   -1510.2773369976      2.91E-09 Convergence criterion met
 Total energy in the final basis set = -1510.27733700
   13   -1510.2811587732      9.69E-09 Convergence criterion met
 Total energy in the final basis set = -1510.28115877
   14   -1510.2811545386      7.40E-09 Convergence criterion met
 Total energy in the final basis set = -1510.28115454
   13   -1510.2833660536      6.58E-09 Convergence criterion met
 Total energy in the final basis set = -1510.28336605
   14   -1510.2854221313      4.53E-09 Convergence criterion met
   12   -1510.3040715759      5.11E-09 Convergence criterion met
 Total energy in the final basis set = -1510.30407158
   13   -1510.3040996690      5.57E-09 Convergence criterion met
 Total energy in the final basis set = -1510.30409967
   12   -1510.3041042446      2.20E-09 Convergence criterion met
 Total energy in the final basis set = -1510.30410424
   11   -1510.3041131392      9.50E-09 Convergence criterion met
 Total energy in the final basis set = -1510.30411314
   11   -1510.3041144374      6.44E-09 Convergence criterion met
 Total energy in the final basis set = -1510.30411444
   10   -1510.3041164225      9.30E-09 Convergence criterion met
 Total energy in the final basis set = -1510.30411642

             Standard Nuclear Orientation (Angstroms)
    I     Atom           X                Y                Z
 ----------------------------------------------------------------
    1      O      -1.5414604985     1.3663494141     0.5084500551
    2      C      -2.0042792147     0.9935944405    -0.5940799070
    3      C      -3.5062043609     0.6589131734    -0.9066264854
    4      C      -3.9798342955    -0.7380101785    -0.3177752576
    5      C      -2.8830578085    -1.5037220808     0.5059085759
    6      O      -1.6397459714    -1.4019500538    -0.1939754601
    7      C      -0.5386584049    -2.0288217548     0.5792519725
    8      C       0.4829262964    -2.6512675990    -0.4298693267
    9      O       1.4081071837    -1.6128102457    -0.9460168513
   10      C       2.6840364743    -1.7218076576    -0.2709867077
   11      C       3.6311139601    -0.5831051598    -0.7971176194
   12      C       3.3994768644     0.8276884493    -0.1198579441
   13      C       2.2522793091     0.8050004792     0.9431183835
   14      O       1.7148996327    -0.2184910010     1.4325507282
   15      O      -1.2758114016     0.8943567207    -1.8158455624
   16      O       1.9073394788     2.1391719322     1.2750890273
   17      O       2.9935652587    -2.6788572730     0.4696268586
   18      C       0.7433099335     2.1560390083     2.2020101264
   19      C       5.1332845217    -0.8736383026    -0.3813837606
   20      C       6.0808743730     0.0390897875    -1.2534638130
   21      C       5.8503741876     1.4442690448    -0.5834234905
   22      C       4.8200948349     1.0733635732     0.5555185488
   23      O       5.2321054624    -0.2838954078     0.9745945794
   24      H       3.5073593877    -0.5147262429    -1.8928737808
   25      H       3.1717707821     1.6110203222    -0.8639755926
   26      H       5.3924059861    -1.9495453820    -0.3514165785
   27      H       7.1279543739    -0.2883770284    -1.1548868384
   28      H       5.8050530472     0.0247964988    -2.3199628979
   29      H       6.7799708639     1.8418642475    -0.1460359758
   30      H       5.4419682577     2.1897652088    -1.2842804135
   31      H       4.8006631915     1.7644156793     1.4206597580
   32      O      -3.0455564157    -2.1294782456     1.5752760553
   33      C       0.1820595859     1.0457671746    -1.5907385680
   34      C      -4.5038510190     1.6421512412    -0.1571571858
   35      C      -5.9267357946     1.5097531045    -0.8314913149
   36      C      -6.4016246685     0.1179068548    -0.2690030788
   37      C      -5.1670819677    -0.2855337602     0.6275166563
   38      O      -4.6882087848     1.0083872321     1.1682983890
   39      H      -3.6396684634     0.6902376503    -2.0018971552
   40      H      -4.3313253814    -1.4035930631    -1.1281815062
   41      H       0.6352854466     0.0611783214    -1.3118934754
   42      H      -4.1274924633     2.6768714079    -0.0410578515
   43      H      -6.5875596428     2.3260191852    -0.4988648145
   44      H      -5.8689180217     1.5278819702    -1.9315816404
   45      H      -7.3096108988     0.2186913177     0.3465276646
   46      H      -6.5938620379    -0.6194958088    -1.0646961247
   47      H      -5.3756541258    -0.9975710348     1.4498157779
   48      H       0.3910625438     1.7939202811    -0.8013321398
   49      H       0.6092881573     1.3903464116    -2.5504012336
   50      H       0.6454436665     3.2034624279     2.5393637140
   51      H       0.9157404848     1.4954022060     3.0742654509
   52      H      -0.1765212916     1.8364387241     1.6549396682
   53      H       1.0944647560    -3.4225687698     0.0877992647
   54      H      -0.0468842273    -3.0925012783    -1.2988742165
   55      H      -0.9604547869    -2.8006588027     1.2580981576
   56      H      -0.0087229524    -1.2536546255     1.1827110377
 ----------------------------------------------------------------

    9   -1510.3041156505      8.89E-09 Convergence criterion met
 Total energy in the final basis set = -1510.30411565
 Final energy is   -1510.30411565048
 **  OPTIMIZATION CONVERGED  **

                    Orbital Energies (a.u.)
 --------------------------------------------------------------

 Alpha MOs
 -- Occupied --
-18.941 -18.935 -18.932 -18.928 -18.891 -18.886 -18.884 -18.879
-18.876 -18.868 -10.108 -10.102 -10.102 -10.101 -10.067 -10.064
-10.061 -10.060 -10.058 -10.057 -10.044 -10.043 -10.042 -10.041
-10.038 -10.034 -10.023 -10.022 -10.020 -10.019  -1.020  -1.015
 -1.008  -1.002  -0.973  -0.968  -0.942  -0.941  -0.934  -0.931
 -0.767  -0.762  -0.728  -0.723  -0.712  -0.705  -0.697  -0.657
 -0.655  -0.614  -0.597  -0.579  -0.549  -0.543  -0.540  -0.535
 -0.514  -0.510  -0.487  -0.471  -0.461  -0.458  -0.455  -0.448
 -0.435  -0.432  -0.429  -0.424  -0.413  -0.407  -0.404  -0.400
 -0.396  -0.380  -0.371  -0.365  -0.362  -0.358  -0.355  -0.350
 -0.342  -0.339  -0.337  -0.329  -0.329  -0.329  -0.325  -0.314
 -0.310  -0.307  -0.305  -0.302  -0.298  -0.286  -0.282  -0.278
 -0.269  -0.257  -0.254  -0.244  -0.239  -0.237  -0.233  -0.184
 -0.181  -0.171  -0.165  -0.162  -0.159  -0.155  -0.148  -0.147
 -0.142

          Ground-State Mulliken Net Atomic Charges

     Atom                 Charge (a.u.)
  ----------------------------------------
      1 O                    -0.228792
      2 C                     0.223697
      3 C                    -0.079551
      4 C                    -0.077999
      5 C                     0.213482
      6 O                    -0.174782
      7 C                    -0.061576
      8 C                    -0.054164
      9 O                    -0.179031
     10 C                     0.220070
     11 C                    -0.081266
     12 C                    -0.079205
     13 C                     0.217145
     14 O                    -0.213852
     15 O                    -0.169173
     16 O                    -0.169655
     17 O                    -0.210218
     18 C                    -0.148371
     19 C                     0.025809
     20 C                    -0.144273
     21 C                    -0.143474
     22 C                     0.025720
     23 O                    -0.187092
     24 H                     0.085118
     25 H                     0.086749
     26 H                     0.089862
     27 H                     0.079133
     28 H                     0.073438
     29 H                     0.079163
     30 H                     0.073987
     31 H                     0.086167
     32 O                    -0.209273
     33 C                    -0.150229
     34 C                     0.025192
     35 C                    -0.143816
     36 C                    -0.144138
     37 C                     0.023904
     38 O                    -0.187678
     39 H                     0.085596
     40 H                     0.084913
     41 H                     0.106499
     42 H                     0.083615
     43 H                     0.077741
     44 H                     0.073164
     45 H                     0.078305
     46 H                     0.072804
     47 H                     0.090673
     48 H                     0.084430
     49 H                     0.078794
     50 H                     0.085214
     51 H                     0.086890
     52 H                     0.120728
     53 H                     0.104335
     54 H                     0.088610
     55 H                     0.097526
     56 H                     0.109136
  ----------------------------------------
  Sum of atomic charges =    -0.000000

                    Cartesian Multipole Moments
 -----------------------------------------------------------------
    Charge (ESU x 10^10)
                -0.0000
    Dipole Moment (Debye)
         X      -0.0372      Y       1.3414      Z      -3.8508
       Tot       4.0779
    Quadrupole Moments (Debye-Ang)
        XX    -148.3233     XY       6.7919     YY    -158.7746
        XZ      -0.3987     YZ       4.2023     ZZ    -163.6080

 Total job time:  147.40s(wall), 7030.74s(cpu)
        *  Thank you very much for using Q-Chem.  Have a nice day.  *
