 Q-Chem 5.0, Q-Chem, Inc., Pleasanton, CA (2017)
 Q-Chem 5.0.1 for Intel X86 EM64T Linux

User input:
--------------------------------------------------------------
$molecule
0  1
O -3.94934 -3.66094 2.70899
C -3.26408 -4.56952 2.26188
C -3.36658 -6.02376 2.66595
C -2.06878 -6.72634 3.09718
C -0.84501 -5.84991 3.24665
O -0.34104 -5.54272 2.01496
C 0.60011 -4.46447 2.04454
C 1.83896 -4.82566 1.23156
O 1.94439 -3.96071 0.0898
C 2.44068 -2.72354 0.33934
C 2.5155 -1.85927 -0.89682
C 1.16297 -1.34129 -1.40735
C 0.00375 -1.45341 -0.43764
O 0.09337 -1.41969 0.78113
O -2.56901 -4.37956 1.12136
O -1.14662 -1.00094 -1.0171
O 2.87792 -2.37325 1.42971
C -2.12346 -0.22288 -0.4188
C 3.25613 -0.51774 -0.68423
C 3.78135 -0.00344 -2.02394
C 2.48621 0.39441 -2.69991
C 1.49665 0.15637 -1.5537
O 2.24436 0.41183 -0.39062
H 3.08198 -2.43877 -1.66076
H 0.85513 -1.82733 -2.3597
H 4.09136 -0.58053 0.04685
H 4.36612 0.91943 -1.80679
H 4.41838 -0.71028 -2.59787
H 2.54423 1.47445 -2.96082
H 2.21467 -0.2028 -3.59734
H 0.59024 0.78556 -1.6933
O -0.32583 -5.55191 4.31712
C -2.62668 -3.23424 0.38515
C -4.23449 -6.22548 3.92479
C -4.76026 -7.65979 3.97664
C -3.49841 -8.40737 4.34416
C -2.51569 -7.24125 4.48462
O -3.30937 -6.19207 4.98124
H -3.83937 -6.54508 1.80321
H -1.78677 -7.58534 2.44764
H -2.29114 -2.39483 1.02307
H -5.08639 -5.51469 3.9957
H -5.47342 -7.73039 4.82897
H -5.26237 -8.00117 3.04585
H -3.65226 -8.88856 5.33598
H -3.16036 -9.16575 3.60535
H -1.65971 -7.55173 5.12367
H -3.66689 -3.05748 0.03689
H -1.97169 -3.3541 -0.49972
H -3.10956 -0.72091 -0.50095
H -2.19062 0.74255 -0.96086
H -1.90078 -0.0044 0.64739
H 2.76924 -4.86314 1.84182
H 1.70336 -5.85394 0.83262
H 0.89407 -4.06267 3.03976
H 0.08339 -3.6328 1.54541
$end

$opt
CONSTRAINT
tors           1           2           3           4    -127.902
tors           3           4           5           6     -76.557
tors           4           5           6           7    +165.383
tors           5           6           7           8    +133.272
tors           6           7           8           9    +114.644
tors           7           8           9          10     +78.902
tors           8           9          10          11    -179.503
tors           9          10          11          12     +73.300
tors          11          12          13          14     +29.293
ENDCONSTRAINT
$end

$rem
JOBTYPE                   OPT
METHOD                    B3LYP
DFT_D                     d3_op
BASIS                     STO-3G
GEOM_OPT_MAX_CYCLES       100
GEOM_OPT_TOL_GRADIENT     300
GEOM_OPT_TOL_DISPLACEMENT 1200
GEOM_OPT_TOL_ENERGY       100
SYMMETRY                  False
THRESH                    12
SCF_CONVERGENCE           8
MAX_SUB_FILE_NUM          128
MEM_STATIC                400
MEM_TOTAL                 4000
$end
--------------------------------------------------------------

   15   -1510.1381919302      7.57E-09 Convergence criterion met
 Total energy in the final basis set = -1510.13819193
   14   -1510.2067058636      3.72E-09 Convergence criterion met
 Total energy in the final basis set = -1510.20670586
   15   -1510.2385018465      2.11E-09 Convergence criterion met
 Total energy in the final basis set = -1510.23850185
   15   -1510.2607839718      1.92E-09 Convergence criterion met
 Total energy in the final basis set = -1510.26078397
   13   -1510.2683954546      8.67E-09 Convergence criterion met
 Total energy in the final basis set = -1510.26839545
   13   -1510.2718852463      5.44E-09 Convergence criterion met
 Total energy in the final basis set = -1510.27188525
   13   -1510.2737328403      4.20E-09 Convergence criterion met
 Total energy in the final basis set = -1510.27373284
   12   -1510.2743691682      6.39E-09 Convergence criterion met
   10   -1510.2763643378      6.30E-09 Convergence criterion met
 Total energy in the final basis set = -1510.27636434
   10   -1510.2763699565      5.79E-09 Convergence criterion met
 Total energy in the final basis set = -1510.27636996
    9   -1510.2763755704      9.60E-09 Convergence criterion met
 Total energy in the final basis set = -1510.27637557
    9   -1510.2763859924      7.80E-09 Convergence criterion met
 Total energy in the final basis set = -1510.27638599
   11   -1510.2763916704      3.09E-09 Convergence criterion met
 Total energy in the final basis set = -1510.27639167
    9   -1510.2763953671      8.74E-09 Convergence criterion met
 Total energy in the final basis set = -1510.27639537

             Standard Nuclear Orientation (Angstroms)
    I     Atom           X                Y                Z
 ----------------------------------------------------------------
    1      O      -2.6249762459     2.3483043689     0.8428970066
    2      C      -2.8716477744     1.5583533162    -0.0941458073
    3      C      -4.1992531809     0.7745446291    -0.3723378125
    4      C      -4.0725518752    -0.7938208641    -0.5868365531
    5      C      -2.7741795395    -1.4492589080     0.0167947975
    6      O      -1.6286058279    -1.1818587437    -0.8058503607
    7      C      -0.3880517982    -1.4975342030    -0.0470881735
    8      C       0.5562424262    -2.3448642718    -0.9814883242
    9      O       1.8212814230    -1.6520852498    -1.3393077198
   10      C       2.7233194577    -1.7615518850    -0.2280813535
   11      C       4.0806287201    -1.0375392984    -0.5345818737
   12      C       4.0921128091     0.5433620113    -0.5315924738
   13      C       2.7421840256     1.3018319975    -0.3180963413
   14      O       1.7177396275     0.9574347684     0.3173874384
   15      O      -2.0352584573     1.3602221516    -1.2344752701
   16      O       2.9886388090     2.6207015692    -0.8215003124
   17      O       2.4556937232    -2.3923537993     0.8182719415
   18      C       1.9844904139     3.6038618699    -0.3570740026
   19      C       5.1104689010    -1.3454374773     0.6333968017
   20      C       6.5690679771    -1.0172702721     0.1270972499
   21      C       6.5617294706     0.5553764538     0.1763715949
   22      C       5.0916250238     0.8338961714     0.6818629277
   23      O       4.8287607249    -0.2755780875     1.6199296466
   24      H       4.4487344756    -1.4073248807    -1.5093963838
   25      H       4.5227195318     0.9260829441    -1.4738188077
   26      H       4.9707697812    -2.3400198649     1.0990710817
   27      H       7.3206698501    -1.4404311343     0.8121307136
   28      H       6.7519961466    -1.4107531502    -0.8854472589
   29      H       7.2939345396     0.9408267155     0.9038811440
   30      H       6.7598376633     1.0172158350    -0.8039777834
   31      H       4.9393328733     1.8135995023     1.1751153137
   32      O      -2.7216560117    -2.0969810601     1.0869829606
   33      C      -0.7831583885     2.1335517279    -1.1093517006
   34      C      -5.2809483560     0.8526333305     0.7850161056
   35      C      -6.6981378738     0.7153716057     0.1051896566
   36      C      -6.6591175134    -0.7952960966    -0.3397142200
   37      C      -5.2956657977    -1.2773301714     0.3005737572
   38      O      -5.1435883013    -0.4314023472     1.5094237899
   39      H      -4.6105323180     1.2156114828    -1.3000156693
   40      H      -4.1630348613    -1.0584825701    -1.6559149170
   41      H      -0.0353501173     1.6134780752    -0.4687467889
   42      H      -5.1467497567     1.7093775962     1.4738280989
   43      H      -7.4960302776     0.8951513379     0.8434607280
   44      H      -6.8328061158     1.4094723414    -0.7397457159
   45      H      -7.5049194068    -1.3643100691     0.0771419876
   46      H      -6.6617391624    -0.9126704685    -1.4353671166
   47      H      -5.2529389045    -2.3483471402     0.5769653708
   48      H      -0.9801808642     3.1390558792    -0.6878356596
   49      H      -0.3767960398     2.2263695310    -2.1334310898
   50      H       1.2983894362     3.8714133224    -1.1841361749
   51      H       2.5373236776     4.5105137892    -0.0431052159
   52      H       1.3990950827     3.2039931212     0.4932122833
   53      H       0.7816435722    -3.3233013386    -0.5083367996
   54      H       0.0369609949    -2.5159812570    -1.9469182585
   55      H      -0.6646832982    -2.0560358878     0.8716556292
   56      H       0.1251361507    -0.5478124307     0.2277588862
 ----------------------------------------------------------------

    9   -1510.2763962073      4.81E-09 Convergence criterion met
 Total energy in the final basis set = -1510.27639621
 Final energy is   -1510.27639620726
 **  OPTIMIZATION CONVERGED  **

                    Orbital Energies (a.u.)
 --------------------------------------------------------------

 Alpha MOs
 -- Occupied --
-18.945 -18.932 -18.927 -18.924 -18.896 -18.893 -18.880 -18.874
-18.870 -18.870 -10.116 -10.098 -10.094 -10.092 -10.071 -10.067
-10.065 -10.061 -10.053 -10.052 -10.052 -10.050 -10.046 -10.041
-10.035 -10.033 -10.025 -10.023 -10.016 -10.015  -1.023  -1.011
 -1.007  -1.001  -0.975  -0.964  -0.951  -0.935  -0.931  -0.926
 -0.769  -0.758  -0.728  -0.720  -0.714  -0.701  -0.692  -0.674
 -0.655  -0.614  -0.598  -0.579  -0.549  -0.542  -0.540  -0.532
 -0.520  -0.505  -0.479  -0.472  -0.463  -0.458  -0.453  -0.448
 -0.437  -0.426  -0.425  -0.421  -0.415  -0.410  -0.406  -0.403
 -0.387  -0.376  -0.376  -0.365  -0.362  -0.358  -0.353  -0.351
 -0.347  -0.341  -0.337  -0.332  -0.329  -0.325  -0.324  -0.314
 -0.310  -0.307  -0.306  -0.301  -0.292  -0.285  -0.276  -0.273
 -0.269  -0.260  -0.253  -0.246  -0.239  -0.235  -0.227  -0.189
 -0.181  -0.177  -0.169  -0.155  -0.154  -0.151  -0.149  -0.146
 -0.137

          Ground-State Mulliken Net Atomic Charges

     Atom                 Charge (a.u.)
  ----------------------------------------
      1 O                    -0.214739
      2 C                     0.207505
      3 C                    -0.079362
      4 C                    -0.075600
      5 C                     0.205811
      6 O                    -0.170044
      7 C                    -0.064301
      8 C                    -0.051654
      9 O                    -0.171867
     10 C                     0.209141
     11 C                    -0.080624
     12 C                    -0.077461
     13 C                     0.218767
     14 O                    -0.211403
     15 O                    -0.167034
     16 O                    -0.170214
     17 O                    -0.210040
     18 C                    -0.133766
     19 C                     0.025812
     20 C                    -0.144744
     21 C                    -0.143003
     22 C                     0.026782
     23 O                    -0.185891
     24 H                     0.084725
     25 H                     0.089432
     26 H                     0.091712
     27 H                     0.079421
     28 H                     0.073827
     29 H                     0.079382
     30 H                     0.074706
     31 H                     0.083739
     32 O                    -0.209385
     33 C                    -0.139389
     34 C                     0.022437
     35 C                    -0.142273
     36 C                    -0.145858
     37 C                     0.025429
     38 O                    -0.187300
     39 H                     0.083842
     40 H                     0.084953
     41 H                     0.098250
     42 H                     0.089424
     43 H                     0.077498
     44 H                     0.071713
     45 H                     0.077581
     46 H                     0.071887
     47 H                     0.087116
     48 H                     0.084479
     49 H                     0.082371
     50 H                     0.087737
     51 H                     0.090489
     52 H                     0.100794
     53 H                     0.092229
     54 H                     0.092230
     55 H                     0.105116
     56 H                     0.099616
  ----------------------------------------
  Sum of atomic charges =     0.000000

                    Cartesian Multipole Moments
 -----------------------------------------------------------------
    Charge (ESU x 10^10)
                -0.0000
    Dipole Moment (Debye)
         X       1.9349      Y       1.6408      Z      -4.2634
       Tot       4.9611
    Quadrupole Moments (Debye-Ang)
        XX    -136.9988     XY       1.7916     YY    -153.2931
        XZ       4.1111     YZ       3.7631     ZZ    -168.9152

 Total job time:  82.55s(wall), 3928.85s(cpu)
        *  Thank you very much for using Q-Chem.  Have a nice day.  *
