 Q-Chem 5.0, Q-Chem, Inc., Pleasanton, CA (2017)
 Q-Chem 5.0.1 for Intel X86 EM64T Linux

User input:
--------------------------------------------------------------
$molecule
0  1
O -3.94934 -3.66094 2.70899
C -3.26408 -4.56952 2.26188
C -3.36658 -6.02376 2.66595
C -2.06107 -6.74075 3.04728
C -0.82365 -5.87727 3.1536
O -0.26103 -5.71871 1.9192
C 0.76185 -4.71763 1.89094
C 1.9891 -5.24083 1.15184
O 2.1215 -4.57151 -0.11202
C 2.48539 -3.26678 -0.04559
C 2.59592 -2.61687 -1.40429
C 1.25711 -2.37198 -2.11555
C 0.01932 -2.47262 -1.24698
O -0.08353 -2.04302 -0.10705
O -2.10943 -4.0329 1.78138
O -1.03295 -3.06323 -1.87606
O 2.78682 -2.69488 0.99631
C -2.298 -3.26801 -1.3842
C 3.15926 -1.17861 -1.36027
C 3.74312 -0.80987 -2.72383
C 2.47747 -0.6651 -3.5411
C 1.42285 -0.87564 -2.44949
O 2.02342 -0.35732 -1.28841
H 3.29624 -3.24291 -2.00208
H 1.11273 -2.97583 -3.03951
H 3.9263 -1.02591 -0.57004
H 4.21372 0.19411 -2.6185
H 4.49178 -1.52373 -3.12975
H 2.43043 0.37512 -3.93349
H 2.36137 -1.39257 -4.37345
H 0.46031 -0.40325 -2.74871
O -0.30658 -5.53365 4.21162
C -1.77299 -2.67539 1.99546
C -4.18815 -6.21335 3.95743
C -4.72551 -7.64249 4.03271
C -3.4592 -8.39951 4.36155
C -2.46089 -7.24228 4.45522
O -3.22406 -6.18356 4.97739
H -3.88286 -6.52948 1.82049
H -1.81511 -7.61609 2.40467
H -0.7211 -2.52866 2.28486
H -5.03051 -5.49477 4.05773
H -5.41206 -7.70577 4.90713
H -5.25893 -7.98083 3.11832
H -3.58064 -8.86696 5.36444
H -3.15731 -9.17084 3.62054
H -1.58418 -7.55806 5.06303
H -2.27071 -2.21927 2.87775
H -2.07735 -2.06046 1.13084
H -2.92423 -3.70838 -2.18682
H -2.75517 -2.30543 -1.07429
H -2.26491 -3.99797 -0.56139
H 2.91385 -5.12693 1.76156
H 1.87129 -6.32955 0.96382
H 1.05519 -4.26198 2.86314
H 0.37723 -3.92013 1.26267
$end

$opt
CONSTRAINT
tors           1           2           3           4    -130.102
tors           3           4           5           6     -84.548
tors           4           5           6           7    +168.961
tors           5           6           7           8    +133.497
tors           6           7           8           9    +109.300
tors           7           8           9          10     +70.425
tors           8           9          10          11    -179.503
tors           9          10          11          12     +71.325
tors          11          12          13          14     +40.773
ENDCONSTRAINT
$end

$rem
JOBTYPE                   OPT
METHOD                    B3LYP
DFT_D                     d3_op
BASIS                     STO-3G
GEOM_OPT_MAX_CYCLES       100
GEOM_OPT_TOL_GRADIENT     300
GEOM_OPT_TOL_DISPLACEMENT 1200
GEOM_OPT_TOL_ENERGY       100
SYMMETRY                  False
THRESH                    12
SCF_CONVERGENCE           8
MAX_SUB_FILE_NUM          128
MEM_STATIC                400
MEM_TOTAL                 4000
$end
--------------------------------------------------------------

   15   -1510.1228133596      8.16E-09 Convergence criterion met
 Total energy in the final basis set = -1510.12281336
   14   -1510.1953869494      6.10E-09 Convergence criterion met
 Total energy in the final basis set = -1510.19538695
   14   -1510.2380303195      9.54E-09 Convergence criterion met
 Total energy in the final basis set = -1510.23803032
   14   -1510.2627755843      3.07E-09 Convergence criterion met
 Total energy in the final basis set = -1510.26277558
   13   -1510.2730925545      9.26E-09 Convergence criterion met
 Total energy in the final basis set = -1510.27309255
   13   -1510.2800336442      7.77E-09 Convergence criterion met
 Total energy in the final basis set = -1510.28003364
   13   -1510.2838114541      3.48E-09 Convergence criterion met
 Total energy in the final basis set = -1510.28381145
   12   -1510.2863023598      9.04E-09 Convergence criterion met
   11   -1510.2923888419      7.84E-09 Convergence criterion met
 Total energy in the final basis set = -1510.29238884
   10   -1510.2924066768      8.20E-09 Convergence criterion met
 Total energy in the final basis set = -1510.29240668
   11   -1510.2924200125      4.40E-09 Convergence criterion met
 Total energy in the final basis set = -1510.29242001
   11   -1510.2924286507      3.56E-09 Convergence criterion met
 Total energy in the final basis set = -1510.29242865
   10   -1510.2924231956      9.80E-09 Convergence criterion met
 Total energy in the final basis set = -1510.29242320
    9   -1510.2924355282      7.64E-09 Convergence criterion met
 Total energy in the final basis set = -1510.29243553

             Standard Nuclear Orientation (Angstroms)
    I     Atom           X                Y                Z
 ----------------------------------------------------------------
    1      O      -3.3198949758     2.2514302533     1.8486176733
    2      C      -2.9150275978     1.5101296935     0.9271288022
    3      C      -3.7843413384     0.9630772176    -0.2686457500
    4      C      -3.6997452007    -0.6026930163    -0.5426941717
    5      C      -2.5484950201    -1.3424311346     0.2201883284
    6      O      -1.3605993115    -1.2025495620    -0.5640745869
    7      C      -0.1658349529    -1.6394483144     0.1973511022
    8      C       0.7216440710    -2.5748769669    -0.7119313286
    9      O       1.9750706285    -1.8865347574    -1.1035844093
   10      C       2.8589646367    -1.7383052399     0.0142880033
   11      C       4.1261220604    -0.9906387975    -0.5344226419
   12      C       3.8274436870     0.5350066360    -0.8694582513
   13      C       2.3766726384     0.9730906683    -0.4707984609
   14      O       1.7660255608     0.6448490127     0.5771103723
   15      O      -1.5568983554     1.0836478012     0.7942745237
   16      O       1.8422330328     1.7962954779    -1.4983761443
   17      O       2.6584148795    -2.2034475269     1.1549245229
   18      C       0.4811948881     2.2865635515    -1.1603682250
   19      C       5.2593169944    -0.8471857985     0.5628536823
   20      C       6.6081973326    -0.4735420453    -0.1646570866
   21      C       6.3341195190     1.0255957596    -0.5570932727
   22      C       4.8993918364     1.2499225291     0.0654397582
   23      O       4.8979757113     0.4011778540     1.2767542252
   24      H       4.4815797931    -1.5235501922    -1.4343438178
   25      H       3.9831681048     0.7693109637    -1.9368807696
   26      H       5.3105842936    -1.6941967086     1.2742488544
   27      H       7.4568516669    -0.5583204679     0.5326642465
   28      H       6.8045711854    -1.1140671961    -1.0393852540
   29      H       7.0651146441     1.7070671472    -0.0938686010
   30      H       6.3411053761     1.1873016984    -1.6468878250
   31      H       4.6564332340     2.2989045290     0.3241471216
   32      O      -2.6148407539    -1.9357204827     1.3188694189
   33      C      -0.7517106199     1.5434470949     1.9544632953
   34      C      -5.3113940183     1.1016906251     0.1295321423
   35      C      -6.2157091957     0.8605802799    -1.1417506883
   36      C      -6.1472907924    -0.7067393171    -1.2771230539
   37      C      -5.1540157333    -1.0643848614    -0.1031611247
   38      O      -5.5309640120    -0.1061050639     0.9607183212
   39      H      -3.5266742524     1.5326101092    -1.1808912070
   40      H      -3.5393302144    -0.7745825507    -1.6222626655
   41      H       0.2976063322     1.3069860401     1.6798698871
   42      H      -5.5298067899     2.0158024954     0.7154416993
   43      H      -7.2446763015     1.2063644471    -0.9548751719
   44      H      -5.8259892621     1.3809257550    -2.0315010510
   45      H      -7.1316876504    -1.1691998126    -1.1015157796
   46      H      -5.7715731808    -1.0352666963    -2.2594389302
   47      H      -5.2089205953    -2.1036180477     0.2750290620
   48      H      -1.0442267238     1.0007263338     2.8752220359
   49      H      -0.8784688419     2.6307043001     2.1260252349
   50      H       0.0412949046     2.6306265328    -2.1143227008
   51      H       0.5447519737     3.1457967340    -0.4616406121
   52      H      -0.1690259635     1.5085198427    -0.7015242997
   53      H       0.9470768223    -3.5265806830    -0.1846088292
   54      H       0.1917352477    -2.7947925218    -1.6607639663
   55      H      -0.5015916464    -2.1638243250     1.1167128983
   56      H       0.4250880413    -0.7366175156     0.4757971545
 ----------------------------------------------------------------

    9   -1510.2924358646      5.54E-09 Convergence criterion met
 Total energy in the final basis set = -1510.29243586
 Final energy is   -1510.29243586457
 **  OPTIMIZATION CONVERGED  **

                    Orbital Energies (a.u.)
 --------------------------------------------------------------

 Alpha MOs
 -- Occupied --
-18.952 -18.935 -18.927 -18.922 -18.892 -18.890 -18.883 -18.876
-18.875 -18.870 -10.115 -10.099 -10.099 -10.095 -10.069 -10.066
-10.064 -10.061 -10.056 -10.055 -10.050 -10.047 -10.044 -10.040
-10.038 -10.035 -10.025 -10.023 -10.019 -10.018  -1.025  -1.013
 -1.009  -1.002  -0.974  -0.967  -0.949  -0.937  -0.935  -0.929
 -0.768  -0.761  -0.729  -0.722  -0.713  -0.704  -0.692  -0.670
 -0.654  -0.617  -0.598  -0.581  -0.549  -0.543  -0.539  -0.535
 -0.516  -0.507  -0.480  -0.478  -0.464  -0.458  -0.454  -0.449
 -0.436  -0.432  -0.423  -0.417  -0.414  -0.408  -0.406  -0.402
 -0.393  -0.381  -0.374  -0.370  -0.361  -0.359  -0.355  -0.348
 -0.347  -0.339  -0.335  -0.334  -0.329  -0.327  -0.326  -0.314
 -0.309  -0.308  -0.305  -0.303  -0.296  -0.285  -0.282  -0.276
 -0.271  -0.264  -0.249  -0.245  -0.238  -0.238  -0.231  -0.191
 -0.180  -0.176  -0.168  -0.160  -0.155  -0.152  -0.148  -0.148
 -0.141

          Ground-State Mulliken Net Atomic Charges

     Atom                 Charge (a.u.)
  ----------------------------------------
      1 O                    -0.209392
      2 C                     0.209428
      3 C                    -0.077482
      4 C                    -0.079870
      5 C                     0.211959
      6 O                    -0.177431
      7 C                    -0.066681
      8 C                    -0.051264
      9 O                    -0.180154
     10 C                     0.211735
     11 C                    -0.078933
     12 C                    -0.077452
     13 C                     0.221461
     14 O                    -0.218023
     15 O                    -0.175073
     16 O                    -0.162402
     17 O                    -0.207544
     18 C                    -0.138735
     19 C                     0.024946
     20 C                    -0.143626
     21 C                    -0.143772
     22 C                     0.025566
     23 O                    -0.185865
     24 H                     0.086368
     25 H                     0.088762
     26 H                     0.090678
     27 H                     0.079152
     28 H                     0.073906
     29 H                     0.079065
     30 H                     0.074355
     31 H                     0.082537
     32 O                    -0.214268
     33 C                    -0.142829
     34 C                     0.023731
     35 C                    -0.145122
     36 C                    -0.143147
     37 C                     0.024253
     38 O                    -0.188169
     39 H                     0.082688
     40 H                     0.083078
     41 H                     0.112235
     42 H                     0.090899
     43 H                     0.078203
     44 H                     0.071907
     45 H                     0.077857
     46 H                     0.072112
     47 H                     0.086879
     48 H                     0.088191
     49 H                     0.084302
     50 H                     0.089656
     51 H                     0.083453
     52 H                     0.112619
     53 H                     0.089264
     54 H                     0.092857
     55 H                     0.099438
     56 H                     0.103691
  ----------------------------------------
  Sum of atomic charges =    -0.000000

                    Cartesian Multipole Moments
 -----------------------------------------------------------------
    Charge (ESU x 10^10)
                -0.0000
    Dipole Moment (Debye)
         X       1.9594      Y       1.0032      Z      -4.8839
       Tot       5.3570
    Quadrupole Moments (Debye-Ang)
        XX    -149.5482     XY       0.6755     YY    -155.3131
        XZ       6.3016     YZ       1.6806     ZZ    -167.7967

 Total job time:  92.75s(wall), 4420.84s(cpu)
        *  Thank you very much for using Q-Chem.  Have a nice day.  *
