 Q-Chem 5.0, Q-Chem, Inc., Pleasanton, CA (2017)
 Q-Chem 5.0.1 for Intel X86 EM64T Linux

User input:
--------------------------------------------------------------
$molecule
0  1
O -3.3198949758 2.2514302533 1.8486176733
C -2.9150275978 1.5101296935 0.9271288022
C -3.7843413384 0.9630772176 -0.26864575
C -3.6997452007 -0.6026930163 -0.5426941717
C -2.5484950201 -1.3424311346 0.2201883284
O -1.3605993115 -1.202549562 -0.5640745869
C -0.1658349529 -1.6394483144 0.1973511022
C 0.721644071 -2.5748769669 -0.7119313286
O 1.9750706285 -1.8865347574 -1.1035844093
C 2.8589646367 -1.7383052399 0.0142880033
C 4.1261220604 -0.9906387975 -0.5344226419
C 3.827443687 0.535006636 -0.8694582513
C 2.3766726384 0.9730906683 -0.4707984609
O 1.7660255608 0.6448490127 0.5771103723
O -1.5568983554 1.0836478012 0.7942745237
O 1.8422330328 1.7962954779 -1.4983761443
O 2.6584148795 -2.2034475269 1.1549245229
C 0.4811948881 2.2865635515 -1.160368225
C 5.2593169944 -0.8471857985 0.5628536823
C 6.6081973326 -0.4735420453 -0.1646570866
C 6.334119519 1.0255957596 -0.5570932727
C 4.8993918364 1.2499225291 0.0654397582
O 4.8979757113 0.401177854 1.2767542252
H 4.4815797931 -1.5235501922 -1.4343438178
H 3.9831681048 0.7693109637 -1.9368807696
H 5.3105842936 -1.6941967086 1.2742488544
H 7.4568516669 -0.5583204679 0.5326642465
H 6.8045711854 -1.1140671961 -1.039385254
H 7.0651146441 1.7070671472 -0.093868601
H 6.3411053761 1.1873016984 -1.646887825
H 4.656433234 2.298904529 0.3241471216
O -2.6148407539 -1.9357204827 1.3188694189
C -0.7517106199 1.5434470949 1.9544632953
C -5.3113940183 1.1016906251 0.1295321423
C -6.2157091957 0.8605802799 -1.1417506883
C -6.1472907924 -0.7067393171 -1.2771230539
C -5.1540157333 -1.0643848614 -0.1031611247
O -5.530964012 -0.1061050639 0.9607183212
H -3.5266742524 1.5326101092 -1.180891207
H -3.5393302144 -0.7745825507 -1.6222626655
H 0.2976063322 1.3069860401 1.6798698871
H -5.5298067899 2.0158024954 0.7154416993
H -7.2446763015 1.2063644471 -0.9548751719
H -5.8259892621 1.380925755 -2.031501051
H -7.1316876504 -1.1691998126 -1.1015157796
H -5.7715731808 -1.0352666963 -2.2594389302
H -5.2089205953 -2.1036180477 0.275029062
H -1.0442267238 1.0007263338 2.8752220359
H -0.8784688419 2.6307043001 2.1260252349
H 0.0412949046 2.6306265328 -2.1143227008
H 0.5447519737 3.145796734 -0.4616406121
H -0.1690259635 1.5085198427 -0.7015242997
H 0.9470768223 -3.526580683 -0.1846088292
H 0.1917352477 -2.7947925218 -1.6607639663
H -0.5015916464 -2.163824325 1.1167128983
H 0.4250880413 -0.7366175156 0.4757971545
$end

$rem
JOBTYPE                   OPT
METHOD                    B3LYP
DFT_D                     d3_op
BASIS                     STO-3G
GEOM_OPT_MAX_CYCLES       100
GEOM_OPT_TOL_GRADIENT     300
GEOM_OPT_TOL_DISPLACEMENT 1200
GEOM_OPT_TOL_ENERGY       100
SYMMETRY                  False
THRESH                    12
SCF_CONVERGENCE           8
MAX_SUB_FILE_NUM          128
MEM_STATIC                400
MEM_TOTAL                 4000
$end
--------------------------------------------------------------

   16   -1510.2925292091      4.53E-09 Convergence criterion met
 Total energy in the final basis set = -1510.29252921
   14   -1510.2752191560      3.45E-09 Convergence criterion met
 Total energy in the final basis set = -1510.27521916
   14   -1510.2891165996      4.78E-09 Convergence criterion met
 Total energy in the final basis set = -1510.28911660
   15   -1510.2904764852      2.16E-09 Convergence criterion met
 Total energy in the final basis set = -1510.29047649
   15   -1510.2760471289      2.86E-09 Convergence criterion met
 Total energy in the final basis set = -1510.27604713
   15   -1510.2914840822      3.13E-09 Convergence criterion met
 Total energy in the final basis set = -1510.29148408
   14   -1510.2941763628      5.82E-09 Convergence criterion met
 Total energy in the final basis set = -1510.29417636
   15   -1510.2946179886      3.43E-09 Convergence criterion met
   11   -1510.3003011909      5.62E-09 Convergence criterion met
 Total energy in the final basis set = -1510.30030119
    9   -1510.3003014987      8.71E-09 Convergence criterion met
 Total energy in the final basis set = -1510.30030150
   10   -1510.3003055221      6.79E-09 Convergence criterion met
 Total energy in the final basis set = -1510.30030552
   10   -1510.3003079940      8.28E-09 Convergence criterion met
 Total energy in the final basis set = -1510.30030799
   11   -1510.3003116983      5.76E-09 Convergence criterion met
 Total energy in the final basis set = -1510.30031170
   11   -1510.3003131845      3.67E-09 Convergence criterion met
 Total energy in the final basis set = -1510.30031318

             Standard Nuclear Orientation (Angstroms)
    I     Atom           X                Y                Z
 ----------------------------------------------------------------
    1      O      -3.5125256142     2.2330182725     2.1048235667
    2      C      -3.0466607557     1.6800881061     1.0876727006
    3      C      -3.8190449422     1.1663700719    -0.1817206206
    4      C      -3.3953505315    -0.2994887677    -0.6242655704
    5      C      -2.3589102567    -0.9507524169     0.3556172218
    6      O      -1.1193725038    -1.1759114008    -0.3488559709
    7      C      -0.0966628821    -1.7130049216     0.5858622791
    8      C       0.8579271241    -2.6783416893    -0.1978368401
    9      O       1.9654369456    -1.9229548402    -0.8354240614
   10      C       3.0893419294    -1.8577397355     0.0558734290
   11      C       4.1935774265    -0.9517356700    -0.5929064306
   12      C       3.7067920344     0.5248859952    -0.9175356342
   13      C       2.1928915335     0.7670741641    -0.5895743527
   14      O       1.6565071298     0.7384312661     0.5452804554
   15      O      -1.6638573070     1.4063942449     0.8594677636
   16      O       1.5227401923     1.0410578582    -1.8113791857
   17      O       3.1549947154    -2.4568852406     1.1503469514
   18      C       0.0619812783     1.2072655300    -1.6038087352
   19      C       5.3486442722    -0.6700655914     0.4521078392
   20      C       6.5965851069    -0.0810585588    -0.3134871580
   21      C       6.1060103583     1.3855576573    -0.6110422559
   22      C       4.6655835748     1.3615926234     0.0364991587
   23      O       4.8283459475     0.4869480269     1.2184779863
   24      H       4.5650829166    -1.4512158688    -1.5065147165
   25      H       3.8660612103     0.7714583014    -1.9814933982
   26      H       5.5506354081    -1.5212847884     1.1308873380
   27      H       7.4848482139    -0.0852106953     0.3379491366
   28      H       6.8278550607    -0.6472525289    -1.2300740116
   29      H       6.7403278494     2.1334745241    -0.1092567239
   30      H       6.0740542349     1.6140425010    -1.6883005627
   31      H       4.2655833993     2.3492012651     0.3376483281
   32      O      -2.5553706960    -1.3029832335     1.5380968629
   33      C      -0.8208631800     1.7624833988     2.0227203009
   34      C      -5.3634309535     0.9706445362     0.1041575143
   35      C      -6.1166570992     0.8766393951    -1.2791170463
   36      C      -5.6907506088    -0.5620595169    -1.7574472126
   37      C      -4.8004679397    -1.0391445628    -0.5413597477
   38      O      -5.4437512509    -0.4111811082     0.6342468786
   39      H      -3.6449719759     1.8849592655    -1.0040510098
   40      H      -2.9747379606    -0.3093071630    -1.6447584548
   41      H       0.2136148218     1.5237632361     1.6960119748
   42      H      -5.7776034545     1.6910885445     0.8362940300
   43      H      -7.2059491399     0.9449570988    -1.1294658814
   44      H      -5.8056978571     1.6686280321    -1.9790732415
   45      H      -6.5629015542    -1.2239595828    -1.8781109300
   46      H      -5.1254689735    -0.5462950013    -2.7031034605
   47      H      -4.7340317975    -2.1360665532    -0.4057279834
   48      H      -1.0932523132     1.1579977908     2.9113033308
   49      H      -0.9144601969     2.8373141829     2.2772847649
   50      H      -0.3547906165     1.4179808622    -2.6053693614
   51      H      -0.1569142982     2.0575618610    -0.9281001392
   52      H      -0.4035539978     0.2837315970    -1.1761472314
   53      H       1.2806762245    -3.4249962092     0.5081403578
   54      H       0.3078086710    -3.1906711619    -1.0132287152
   55      H      -0.6123535972    -2.2316081041     1.4217484251
   56      H       0.5000784625    -0.8592087838     0.9841782605
 ----------------------------------------------------------------

    9   -1510.3003141452      7.20E-09 Convergence criterion met
 Total energy in the final basis set = -1510.30031415
 Final energy is   -1510.30031414523
 **  OPTIMIZATION CONVERGED  **

                    Orbital Energies (a.u.)
 --------------------------------------------------------------

 Alpha MOs
 -- Occupied --
-18.937 -18.937 -18.936 -18.933 -18.889 -18.888 -18.883 -18.879
-18.876 -18.873 -10.104 -10.103 -10.103 -10.100 -10.073 -10.062
-10.062 -10.062 -10.059 -10.058 -10.049 -10.041 -10.041 -10.040
-10.038 -10.038 -10.022 -10.022 -10.021 -10.020  -1.019  -1.015
 -1.009  -1.006  -0.971  -0.970  -0.943  -0.938  -0.936  -0.936
 -0.766  -0.764  -0.729  -0.724  -0.712  -0.706  -0.698  -0.657
 -0.655  -0.618  -0.598  -0.581  -0.548  -0.545  -0.539  -0.537
 -0.512  -0.511  -0.487  -0.474  -0.459  -0.458  -0.455  -0.453
 -0.437  -0.432  -0.430  -0.418  -0.415  -0.409  -0.401  -0.398
 -0.391  -0.383  -0.372  -0.367  -0.364  -0.362  -0.355  -0.351
 -0.342  -0.341  -0.338  -0.332  -0.331  -0.327  -0.324  -0.312
 -0.311  -0.307  -0.306  -0.302  -0.292  -0.289  -0.285  -0.275
 -0.273  -0.263  -0.254  -0.245  -0.242  -0.235  -0.234  -0.185
 -0.178  -0.174  -0.171  -0.163  -0.159  -0.153  -0.151  -0.145
 -0.144

          Ground-State Mulliken Net Atomic Charges

     Atom                 Charge (a.u.)
  ----------------------------------------
      1 O                    -0.205845
      2 C                     0.213330
      3 C                    -0.078653
      4 C                    -0.078869
      5 C                     0.216524
      6 O                    -0.174870
      7 C                    -0.063189
      8 C                    -0.053654
      9 O                    -0.174407
     10 C                     0.211076
     11 C                    -0.078187
     12 C                    -0.079314
     13 C                     0.218031
     14 O                    -0.228114
     15 O                    -0.176233
     16 O                    -0.166343
     17 O                    -0.208438
     18 C                    -0.148468
     19 C                     0.024415
     20 C                    -0.144227
     21 C                    -0.143669
     22 C                     0.025478
     23 O                    -0.186666
     24 H                     0.086091
     25 H                     0.087128
     26 H                     0.090855
     27 H                     0.078791
     28 H                     0.073267
     29 H                     0.078385
     30 H                     0.073771
     31 H                     0.083157
     32 O                    -0.211824
     33 C                    -0.140399
     34 C                     0.023974
     35 C                    -0.143723
     36 C                    -0.144141
     37 C                     0.025843
     38 O                    -0.185621
     39 H                     0.083520
     40 H                     0.084549
     41 H                     0.112774
     42 H                     0.091180
     43 H                     0.078758
     44 H                     0.072793
     45 H                     0.078525
     46 H                     0.072925
     47 H                     0.083559
     48 H                     0.089161
     49 H                     0.084170
     50 H                     0.078878
     51 H                     0.083937
     52 H                     0.113417
     53 H                     0.099837
     54 H                     0.092069
     55 H                     0.099664
     56 H                     0.105022
  ----------------------------------------
  Sum of atomic charges =     0.000000

                    Cartesian Multipole Moments
 -----------------------------------------------------------------
    Charge (ESU x 10^10)
                -0.0000
    Dipole Moment (Debye)
         X       1.3365      Y       0.3215      Z      -4.6656
       Tot       4.8639
    Quadrupole Moments (Debye-Ang)
        XX    -152.6142     XY       0.5302     YY    -154.9795
        XZ       6.1820     YZ       0.6442     ZZ    -167.7345

 Total job time:  104.79s(wall), 4999.52s(cpu)
        *  Thank you very much for using Q-Chem.  Have a nice day.  *
