 Q-Chem 5.0, Q-Chem, Inc., Pleasanton, CA (2017)
 Q-Chem 5.0.1 for Intel X86 EM64T Linux

User input:
--------------------------------------------------------------
$molecule
0  1
O -3.94934 -3.66094 2.70899
C -3.26408 -4.56952 2.26188
C -3.36658 -6.02376 2.66595
C -2.06107 -6.74075 3.04728
C -0.82365 -5.87727 3.1536
O -0.26103 -5.71871 1.9192
C 0.7991 -4.75688 1.90288
C 2.00387 -5.31521 1.15258
O 2.26361 -4.52143 -0.01589
C 2.75034 -3.27787 0.22035
C 2.9911 -2.49003 -1.04535
C 1.71957 -2.02722 -1.7715
C 0.43657 -2.09906 -0.9681
O 0.33056 -1.84285 0.22257
O -2.54694 -4.37206 1.14097
O -0.62026 -1.82407 -1.78683
O 3.05494 -2.86544 1.33386
C -1.66801 -0.95901 -1.5216
C 3.68789 -1.12784 -0.82008
C 4.38684 -0.68922 -2.10632
C 3.19314 -0.34922 -2.97382
C 2.05812 -0.5355 -1.96077
O 2.6387 -0.1982 -0.725
H 3.65696 -3.11117 -1.68649
H 1.55773 -2.56983 -2.72986
H 4.41615 -1.13322 0.01991
H 4.93364 0.25227 -1.871
H 5.09772 -1.42287 -2.5436
H 3.27797 0.71553 -3.28543
H 3.05141 -0.99897 -3.86457
H 1.1725 0.06735 -2.25995
O -0.30742 -5.53419 4.21214
C -2.54596 -3.21237 0.427
C -4.19823 -6.22108 3.94787
C -4.72738 -7.65359 4.01654
C -3.45944 -8.4036 4.35642
C -2.46678 -7.24184 4.45454
O -3.23953 -6.18741 4.97317
H -3.86314 -6.5359 1.81126
H -1.8143 -7.61747 2.40668
H -2.13802 -2.38373 1.04315
H -5.04434 -5.50619 4.04247
H -5.42242 -7.72342 4.88369
H -5.24894 -7.99235 3.09551
H -3.5852 -8.86728 5.36056
H -3.15004 -9.1773 3.62103
H -1.59228 -7.55355 5.06758
H -3.57672 -2.96915 0.09063
H -1.91961 -3.39695 -0.45993
H -1.64762 -0.13831 -2.26765
H -1.59957 -0.50513 -0.51016
H -2.6353 -1.48584 -1.63842
H 2.89935 -5.42208 1.80476
H 1.75527 -6.3358 0.79007
H 1.11512 -4.31259 2.87299
H 0.38533 -3.91404 1.33122
$end

$opt
CONSTRAINT
tors           1           2           3           4    -130.102
tors           3           4           5           6     -84.548
tors           4           5           6           7    +171.374
tors           5           6           7           8    +133.304
tors           6           7           8           9    +116.740
tors           7           8           9          10     +70.425
tors           8           9          10          11    -179.503
tors           9          10          11          12     +71.325
tors          11          12          13          14     +37.928
ENDCONSTRAINT
$end

$rem
JOBTYPE                   OPT
METHOD                    B3LYP
DFT_D                     d3_op
BASIS                     STO-3G
GEOM_OPT_MAX_CYCLES       100
GEOM_OPT_TOL_GRADIENT     300
GEOM_OPT_TOL_DISPLACEMENT 1200
GEOM_OPT_TOL_ENERGY       100
SYMMETRY                  False
THRESH                    12
SCF_CONVERGENCE           8
MAX_SUB_FILE_NUM          128
MEM_STATIC                400
MEM_TOTAL                 4000
$end
--------------------------------------------------------------

   15   -1510.1351061582      7.97E-09 Convergence criterion met
 Total energy in the final basis set = -1510.13510616
   14   -1510.2042007562      7.68E-09 Convergence criterion met
 Total energy in the final basis set = -1510.20420076
   15   -1510.2339299715      2.53E-09 Convergence criterion met
 Total energy in the final basis set = -1510.23392997
   15   -1510.2584457312      2.02E-09 Convergence criterion met
 Total energy in the final basis set = -1510.25844573
   14   -1510.2664356608      4.62E-09 Convergence criterion met
 Total energy in the final basis set = -1510.26643566
   14   -1510.2711251591      3.97E-09 Convergence criterion met
 Total energy in the final basis set = -1510.27112516
   13   -1510.2741827434      4.05E-09 Convergence criterion met
 Total energy in the final basis set = -1510.27418274
   13   -1510.2765629611      7.67E-09 Convergence criterion met
   12   -1510.2909803438      4.73E-09 Convergence criterion met
 Total energy in the final basis set = -1510.29098034
   12   -1510.2911436192      3.70E-09 Convergence criterion met
 Total energy in the final basis set = -1510.29114362
   12   -1510.2912956822      4.34E-09 Convergence criterion met
 Total energy in the final basis set = -1510.29129568
   11   -1510.2913325044      6.27E-09 Convergence criterion met
 Total energy in the final basis set = -1510.29133250
   11   -1510.2913464964      4.21E-09 Convergence criterion met
 Total energy in the final basis set = -1510.29134650
    9   -1510.2913484870      8.97E-09 Convergence criterion met
 Total energy in the final basis set = -1510.29134849

             Standard Nuclear Orientation (Angstroms)
    I     Atom           X                Y                Z
 ----------------------------------------------------------------
    1      O      -3.3061956711     2.5299160452     1.6129605801
    2      C      -2.9425400311     1.7321465563     0.7215586277
    3      C      -3.8735402275     1.0877957394    -0.3779852974
    4      C      -3.7685345429    -0.4930367015    -0.5421877646
    5      C      -2.5496848341    -1.1437191898     0.1939738487
    6      O      -1.4160570866    -1.0401097606    -0.6735029792
    7      C      -0.1809207273    -1.4476197077     0.0355064233
    8      C       0.6641907967    -2.4315175176    -0.8609206922
    9      O       1.9768527008    -1.8270783132    -1.1986904289
   10      C       2.8208695062    -1.7660454715    -0.0427612996
   11      C       4.1700239580    -1.1046003664    -0.4981851556
   12      C       4.0387779403     0.4478041986    -0.8107595173
   13      C       2.6099654111     1.0199261162    -0.5245758258
   14      O       1.8534457633     0.7040410679     0.4274188137
   15      O      -1.5901082458     1.3112312985     0.5361811914
   16      O       2.2752855841     1.9599050494    -1.5392668802
   17      O       2.5316135458    -2.2349044266     1.0776458068
   18      C       0.9205199015     2.5253658331    -1.3166873642
   19      C       5.2293289602    -1.0928066752     0.6791935654
   20      C       6.6566535922    -0.8243054297     0.0641125527
   21      C       6.5481283207     0.7059109782    -0.2914621076
   22      C       5.0934206127     1.0395210812     0.2274218357
   23      O       4.9250457058     0.1631261941     1.4056691754
   24      H       4.5391250328    -1.6470603456    -1.3871860872
   25      H       4.3084928988     0.6872009441    -1.8540519983
   26      H       5.1482223902    -1.9599729166     1.3626831649
   27      H       7.4406905224    -1.0081252987     0.8157505331
   28      H       6.8576948743    -1.4533337322    -0.8177941662
   29      H       7.2959592738     1.3030040873     0.2542008756
   30      H       6.6579260494     0.9022498124    -1.3700964466
   31      H       4.9224097053     2.0988941797     0.5010776650
   32      O      -2.5317127682    -1.6559616844     1.3347525732
   33      C      -0.7305258415     1.8300172842     1.6294697098
   34      C      -5.3747369755     1.2237198783     0.1073276763
   35      C      -6.3507542943     0.8591602871    -1.0794599586
   36      C      -6.2603008747    -0.7124390229    -1.0833818201
   37      C      -5.1745233762    -0.9504786821     0.0368224964
   38      O      -5.5037410435     0.0825593093     1.0454385906
   39      H      -3.6860149022     1.5943107931    -1.3430289330
   40      H      -3.6788268505    -0.7442656270    -1.6144004687
   41      H      -1.0331613253     1.4056045405     2.6075191877
   42      H      -5.5826487314     2.1768254711     0.6314205291
   43      H      -7.3731127985     1.2068995001    -0.8625949660
   44      H      -6.0229008325     1.3042333903    -2.0327068711
   45      H      -7.2182426832    -1.1699747359    -0.7885287476
   46      H      -5.9577383684    -1.1234729611    -2.0597471229
   47      H      -5.1718451392    -1.9561278237     0.5001769753
   48      H      -0.7821619006     2.9354854479     1.6929939638
   49      H       0.2984370210     1.5028543422     1.3699451391
   50      H       0.9249739057     3.2418774378    -0.4706257617
   51      H       0.1637858837     1.7396224933    -1.1109496881
   52      H       0.6617080570     3.0621361718    -2.2476840541
   53      H       0.8030997369    -3.4073491139    -0.3487334209
   54      H       0.1536412883    -2.5943515096    -1.8318205863
   55      H      -0.4662336063    -1.9173625355     1.0001932659
   56      H       0.4308692626    -0.5380243551     0.2373854656
 ----------------------------------------------------------------

   10   -1510.2913487061      7.26E-09 Convergence criterion met
 Total energy in the final basis set = -1510.29134871
 Final energy is   -1510.29134870614
 **  OPTIMIZATION CONVERGED  **

                    Orbital Energies (a.u.)
 --------------------------------------------------------------

 Alpha MOs
 -- Occupied --
-18.955 -18.930 -18.928 -18.921 -18.894 -18.893 -18.882 -18.876
-18.871 -18.868 -10.117 -10.099 -10.095 -10.093 -10.071 -10.068
-10.067 -10.061 -10.055 -10.053 -10.047 -10.047 -10.046 -10.041
-10.036 -10.033 -10.025 -10.023 -10.018 -10.017  -1.027  -1.010
 -1.009  -1.000  -0.975  -0.965  -0.951  -0.936  -0.932  -0.927
 -0.768  -0.759  -0.729  -0.721  -0.714  -0.703  -0.691  -0.673
 -0.653  -0.616  -0.598  -0.580  -0.550  -0.543  -0.539  -0.533
 -0.518  -0.505  -0.480  -0.476  -0.465  -0.459  -0.454  -0.447
 -0.436  -0.432  -0.422  -0.420  -0.414  -0.410  -0.405  -0.402
 -0.392  -0.380  -0.375  -0.369  -0.361  -0.358  -0.356  -0.348
 -0.347  -0.338  -0.335  -0.332  -0.328  -0.326  -0.325  -0.315
 -0.308  -0.308  -0.305  -0.302  -0.294  -0.285  -0.281  -0.276
 -0.270  -0.264  -0.249  -0.244  -0.239  -0.237  -0.229  -0.194
 -0.179  -0.173  -0.170  -0.159  -0.153  -0.152  -0.149  -0.145
 -0.140

          Ground-State Mulliken Net Atomic Charges

     Atom                 Charge (a.u.)
  ----------------------------------------
      1 O                    -0.211354
      2 C                     0.208363
      3 C                    -0.077061
      4 C                    -0.080031
      5 C                     0.212455
      6 O                    -0.176494
      7 C                    -0.068710
      8 C                    -0.051713
      9 O                    -0.179611
     10 C                     0.211382
     11 C                    -0.079194
     12 C                    -0.077665
     13 C                     0.221445
     14 O                    -0.215729
     15 O                    -0.174880
     16 O                    -0.162024
     17 O                    -0.207833
     18 C                    -0.132896
     19 C                     0.025140
     20 C                    -0.143822
     21 C                    -0.143638
     22 C                     0.025924
     23 O                    -0.185889
     24 H                     0.086161
     25 H                     0.089148
     26 H                     0.091378
     27 H                     0.079374
     28 H                     0.074008
     29 H                     0.079269
     30 H                     0.074367
     31 H                     0.082704
     32 O                    -0.214816
     33 C                    -0.141766
     34 C                     0.023521
     35 C                    -0.145170
     36 C                    -0.143135
     37 C                     0.024215
     38 O                    -0.188344
     39 H                     0.082471
     40 H                     0.082774
     41 H                     0.088803
     42 H                     0.090602
     43 H                     0.077846
     44 H                     0.071763
     45 H                     0.077704
     46 H                     0.072078
     47 H                     0.086782
     48 H                     0.081541
     49 H                     0.109134
     50 H                     0.087840
     51 H                     0.105674
     52 H                     0.093142
     53 H                     0.089194
     54 H                     0.091994
     55 H                     0.100597
     56 H                     0.102981
  ----------------------------------------
  Sum of atomic charges =    -0.000000

                    Cartesian Multipole Moments
 -----------------------------------------------------------------
    Charge (ESU x 10^10)
                -0.0000
    Dipole Moment (Debye)
         X       2.2944      Y       0.8409      Z      -4.9434
       Tot       5.5144
    Quadrupole Moments (Debye-Ang)
        XX    -146.6026     XY       1.9940     YY    -154.9686
        XZ       6.7622     YZ       0.9765     ZZ    -167.8413

 Total job time:  89.74s(wall), 4275.23s(cpu)
        *  Thank you very much for using Q-Chem.  Have a nice day.  *
