 Q-Chem 5.0, Q-Chem, Inc., Pleasanton, CA (2017)
 Q-Chem 5.0.1 for Intel X86 EM64T Linux

User input:
--------------------------------------------------------------
$molecule
0  1
O -3.3061956711 2.5299160452 1.6129605801
C -2.9425400311 1.7321465563 0.7215586277
C -3.8735402275 1.0877957394 -0.3779852974
C -3.7685345429 -0.4930367015 -0.5421877646
C -2.5496848341 -1.1437191898 0.1939738487
O -1.4160570866 -1.0401097606 -0.6735029792
C -0.1809207273 -1.4476197077 0.0355064233
C 0.6641907967 -2.4315175176 -0.8609206922
O 1.9768527008 -1.8270783132 -1.1986904289
C 2.8208695062 -1.7660454715 -0.0427612996
C 4.170023958 -1.1046003664 -0.4981851556
C 4.0387779403 0.4478041986 -0.8107595173
C 2.6099654111 1.0199261162 -0.5245758258
O 1.8534457633 0.7040410679 0.4274188137
O -1.5901082458 1.3112312985 0.5361811914
O 2.2752855841 1.9599050494 -1.5392668802
O 2.5316135458 -2.2349044266 1.0776458068
C 0.9205199015 2.5253658331 -1.3166873642
C 5.2293289602 -1.0928066752 0.6791935654
C 6.6566535922 -0.8243054297 0.0641125527
C 6.5481283207 0.7059109782 -0.2914621076
C 5.0934206127 1.0395210812 0.2274218357
O 4.9250457058 0.1631261941 1.4056691754
H 4.5391250328 -1.6470603456 -1.3871860872
H 4.3084928988 0.6872009441 -1.8540519983
H 5.1482223902 -1.9599729166 1.3626831649
H 7.4406905224 -1.0081252987 0.8157505331
H 6.8576948743 -1.4533337322 -0.8177941662
H 7.2959592738 1.3030040873 0.2542008756
H 6.6579260494 0.9022498124 -1.3700964466
H 4.9224097053 2.0988941797 0.501077665
O -2.5317127682 -1.6559616844 1.3347525732
C -0.7305258415 1.8300172842 1.6294697098
C -5.3747369755 1.2237198783 0.1073276763
C -6.3507542943 0.8591602871 -1.0794599586
C -6.2603008747 -0.7124390229 -1.0833818201
C -5.1745233762 -0.9504786821 0.0368224964
O -5.5037410435 0.0825593093 1.0454385906
H -3.6860149022 1.5943107931 -1.343028933
H -3.6788268505 -0.744265627 -1.6144004687
H -1.0331613253 1.4056045405 2.6075191877
H -5.5826487314 2.1768254711 0.6314205291
H -7.3731127985 1.2068995001 -0.862594966
H -6.0229008325 1.3042333903 -2.0327068711
H -7.2182426832 -1.1699747359 -0.7885287476
H -5.9577383684 -1.1234729611 -2.0597471229
H -5.1718451392 -1.9561278237 0.5001769753
H -0.7821619006 2.9354854479 1.6929939638
H 0.298437021 1.5028543422 1.3699451391
H 0.9249739057 3.2418774378 -0.4706257617
H 0.1637858837 1.7396224933 -1.1109496881
H 0.661708057 3.0621361718 -2.2476840541
H 0.8030997369 -3.4073491139 -0.3487334209
H 0.1536412883 -2.5943515096 -1.8318205863
H -0.4662336063 -1.9173625355 1.0001932659
H 0.4308692626 -0.5380243551 0.2373854656
$end

$rem
JOBTYPE                   OPT
METHOD                    B3LYP
DFT_D                     d3_op
BASIS                     STO-3G
GEOM_OPT_MAX_CYCLES       100
GEOM_OPT_TOL_GRADIENT     300
GEOM_OPT_TOL_DISPLACEMENT 1200
GEOM_OPT_TOL_ENERGY       100
SYMMETRY                  False
THRESH                    12
SCF_CONVERGENCE           8
MAX_SUB_FILE_NUM          128
MEM_STATIC                400
MEM_TOTAL                 4000
$end
--------------------------------------------------------------

   16   -1510.2913009280      4.78E-09 Convergence criterion met
 Total energy in the final basis set = -1510.29130093
   15   -1510.2867514173      2.09E-09 Convergence criterion met
 Total energy in the final basis set = -1510.28675142
   14   -1510.2895072373      5.19E-09 Convergence criterion met
 Total energy in the final basis set = -1510.28950724
   15   -1510.2898342307      2.66E-09 Convergence criterion met
 Total energy in the final basis set = -1510.28983423
   15   -1510.2830676592      3.29E-09 Convergence criterion met
 Total energy in the final basis set = -1510.28306766
   14   -1510.2862875179      9.31E-09 Convergence criterion met
 Total energy in the final basis set = -1510.28628752
   14   -1510.2906580546      3.16E-09 Convergence criterion met
 Total energy in the final basis set = -1510.29065805
   14   -1510.2930973275      4.35E-09 Convergence criterion met
   12   -1510.3002997179      2.04E-09 Convergence criterion met
 Total energy in the final basis set = -1510.30029972
   11   -1510.3003000361      3.76E-09 Convergence criterion met
 Total energy in the final basis set = -1510.30030004
   11   -1510.3002990617      5.05E-09 Convergence criterion met
 Total energy in the final basis set = -1510.30029906
   11   -1510.3003084107      3.63E-09 Convergence criterion met
 Total energy in the final basis set = -1510.30030841
   11   -1510.3003052974      1.80E-09 Convergence criterion met
 Total energy in the final basis set = -1510.30030530
    9   -1510.3003091944      5.73E-09 Convergence criterion met
 Total energy in the final basis set = -1510.30030919

             Standard Nuclear Orientation (Angstroms)
    I     Atom           X                Y                Z
 ----------------------------------------------------------------
    1      O      -3.5225891799     2.2198757632     2.0961679962
    2      C      -3.0486508797     1.6699666529     1.0811077469
    3      C      -3.8105135086     1.1620387599    -0.1969160784
    4      C      -3.3865941591    -0.3037684410    -0.6394588413
    5      C      -2.3599464460    -0.9600259114     0.3474114930
    6      O      -1.1149114430    -1.1859988650    -0.3469458553
    7      C      -0.1015215786    -1.7280448547     0.5950655282
    8      C       0.8548616827    -2.6969705088    -0.1825449344
    9      O       1.9736815699    -1.9489242960    -0.8084989648
   10      C       3.0780925008    -1.8645434006     0.1055398236
   11      C       4.1932003723    -0.9682404115    -0.5381608419
   12      C       3.7131110510     0.5069844289    -0.8792519420
   13      C       2.1976545303     0.7536478679    -0.5626687984
   14      O       1.6527983202     0.7212053664     0.5680472456
   15      O      -1.6642876770     1.3947592049     0.8642428566
   16      O       1.5366199070     1.0331018559    -1.7881081534
   17      O       3.1206349629    -2.4415485508     1.2128247028
   18      C       0.0746205448     1.2000007408    -1.5895379625
   19      C       5.3385228930    -0.6811010030     0.5159388480
   20      C       6.5957590115    -0.1030421468    -0.2427932619
   21      C       6.1126649093     1.3621730982    -0.5586881287
   22      C       4.6663062731     1.3490324598     0.0756098131
   23      O       4.8149028098     0.4845583262     1.2669432520
   24      H       4.5723471370    -1.4758087392    -1.4441117282
   25      H       3.8803992996     0.7448952572    -1.9439680011
   26      H       5.5314000226    -1.5266395326     1.2043791076
   27      H       7.4776030290    -0.1038757533     0.4173298624
   28      H       6.8342685180    -0.6784632653    -1.1517598350
   29      H       6.7447457035     2.1128234116    -0.0581771848
   30      H       6.0915328045     1.5803936885    -1.6383539818
   31      H       4.2670984124     2.3407382141     0.3640982748
   32      O      -2.5675353981    -1.3151878607     1.5271209684
   33      C      -0.8315882799     1.7439207495     2.0369360106
   34      C      -5.3579827564     0.9694951545     0.0741678076
   35      C      -6.0982855344     0.8801880765    -1.3163639631
   36      C      -5.6723542782    -0.5589369914    -1.7932849168
   37      C      -4.7940212183    -1.0403766565    -0.5702674708
   38      O      -5.4463095278    -0.4132017600     0.6007863469
   39      H      -3.6268732293     1.8825012095    -1.0155393139
   40      H      -2.9575328892    -0.3120974652    -1.6564145754
   41      H      -1.1129068455     1.1354746460     2.9200097024
   42      H      -5.7772857582     1.6894526537     0.8038469796
   43      H      -7.1887344755     0.9518429046    -1.1770948957
   44      H      -5.7778611396     1.6723718012    -2.0117930967
   45      H      -6.5453041858    -1.2181189753    -1.9228637976
   46      H      -5.0986570491    -0.5431916213    -2.7338677708
   47      H      -4.7312730180    -2.1377005737    -0.4361708419
   48      H      -0.9259487203     2.8176400939     2.2958803040
   49      H       0.2054055331     1.5053793814     1.7184300877
   50      H      -0.1480057252     2.0485278566    -0.9128113190
   51      H      -0.3940077324     0.2756148095    -1.1671465994
   52      H      -0.3355989763     1.4136828637    -2.5931642966
   53      H       1.2630818234    -3.4504198596     0.5247202613
   54      H       0.3090800948    -3.2020215801    -1.0053689241
   55      H      -0.6256194937    -2.2453256417     1.4264732116
   56      H       0.4952874080    -0.8769484409     0.9988815191
 ----------------------------------------------------------------

    9   -1510.3003096035      2.61E-09 Convergence criterion met
 Total energy in the final basis set = -1510.30030960
 Final energy is   -1510.30030960350
 **  OPTIMIZATION CONVERGED  **

                    Orbital Energies (a.u.)
 --------------------------------------------------------------

 Alpha MOs
 -- Occupied --
-18.937 -18.937 -18.935 -18.933 -18.889 -18.888 -18.882 -18.879
-18.876 -18.873 -10.104 -10.103 -10.103 -10.100 -10.073 -10.062
-10.062 -10.061 -10.059 -10.058 -10.049 -10.041 -10.041 -10.040
-10.038 -10.038 -10.022 -10.022 -10.021 -10.020  -1.019  -1.015
 -1.009  -1.006  -0.971  -0.970  -0.943  -0.938  -0.936  -0.936
 -0.766  -0.764  -0.729  -0.724  -0.712  -0.706  -0.698  -0.657
 -0.655  -0.618  -0.598  -0.581  -0.548  -0.545  -0.539  -0.537
 -0.512  -0.511  -0.486  -0.474  -0.459  -0.458  -0.455  -0.453
 -0.437  -0.432  -0.430  -0.418  -0.415  -0.409  -0.401  -0.398
 -0.391  -0.383  -0.372  -0.368  -0.363  -0.362  -0.355  -0.351
 -0.342  -0.342  -0.338  -0.332  -0.331  -0.327  -0.325  -0.312
 -0.311  -0.307  -0.306  -0.302  -0.292  -0.289  -0.285  -0.275
 -0.273  -0.263  -0.254  -0.245  -0.242  -0.235  -0.234  -0.185
 -0.178  -0.174  -0.171  -0.162  -0.159  -0.153  -0.151  -0.145
 -0.144

          Ground-State Mulliken Net Atomic Charges

     Atom                 Charge (a.u.)
  ----------------------------------------
      1 O                    -0.205809
      2 C                     0.213322
      3 C                    -0.078644
      4 C                    -0.078882
      5 C                     0.216506
      6 O                    -0.174888
      7 C                    -0.063253
      8 C                    -0.053314
      9 O                    -0.174587
     10 C                     0.210918
     11 C                    -0.078212
     12 C                    -0.079264
     13 C                     0.217820
     14 O                    -0.227932
     15 O                    -0.176216
     16 O                    -0.166311
     17 O                    -0.208338
     18 C                    -0.148482
     19 C                     0.024439
     20 C                    -0.144211
     21 C                    -0.143672
     22 C                     0.025486
     23 O                    -0.186558
     24 H                     0.086028
     25 H                     0.087146
     26 H                     0.090758
     27 H                     0.078770
     28 H                     0.073260
     29 H                     0.078394
     30 H                     0.073781
     31 H                     0.083108
     32 O                    -0.211821
     33 C                    -0.140301
     34 C                     0.023965
     35 C                    -0.143728
     36 C                    -0.144131
     37 C                     0.025841
     38 O                    -0.185604
     39 H                     0.083509
     40 H                     0.084534
     41 H                     0.089221
     42 H                     0.091182
     43 H                     0.078759
     44 H                     0.072792
     45 H                     0.078532
     46 H                     0.072920
     47 H                     0.083567
     48 H                     0.084229
     49 H                     0.112742
     50 H                     0.084036
     51 H                     0.113420
     52 H                     0.078890
     53 H                     0.099251
     54 H                     0.092178
     55 H                     0.099741
     56 H                     0.105110
  ----------------------------------------
  Sum of atomic charges =    -0.000000

                    Cartesian Multipole Moments
 -----------------------------------------------------------------
    Charge (ESU x 10^10)
                -0.0000
    Dipole Moment (Debye)
         X       1.3779      Y       0.3062      Z      -4.6597
       Tot       4.8688
    Quadrupole Moments (Debye-Ang)
        XX    -152.6665     XY       0.3454     YY    -154.8712
        XZ       6.3363     YZ       0.6628     ZZ    -167.8125

 Total job time:  98.38s(wall), 4688.43s(cpu)
        *  Thank you very much for using Q-Chem.  Have a nice day.  *
