 Q-Chem 5.0, Q-Chem, Inc., Pleasanton, CA (2017)
 Q-Chem 5.0.1 for Intel X86 EM64T Linux

User input:
--------------------------------------------------------------
$molecule
0  1
O -3.94934 -3.66094 2.70899
C -3.26408 -4.56952 2.26188
C -3.36658 -6.02376 2.66595
C -2.05514 -6.75572 2.99488
C -0.80533 -5.90579 3.05559
O -0.28899 -5.74963 1.80082
C 0.81375 -4.83797 1.75511
C 1.99866 -5.48161 1.04246
O 2.23204 -4.82255 -0.21215
C 2.85792 -3.62209 -0.13265
C 3.06621 -2.97665 -1.48197
C 1.77998 -2.52471 -2.18882
C 0.5397 -2.45196 -1.321
O 0.50035 -2.02811 -0.17498
O -2.11321 -4.06437 1.74943
O -0.58953 -2.88812 -1.93889
O 3.25593 -3.12855 0.91655
C -1.84273 -2.97151 -1.38702
C 3.84326 -1.64348 -1.42278
C 4.47376 -1.35171 -2.7842
C 3.24365 -1.00309 -3.59454
C 2.17053 -1.06609 -2.50249
O 2.8451 -0.6603 -1.33686
H 3.65599 -3.69902 -2.0902
H 1.54715 -3.08743 -3.12061
H 4.62549 -1.61999 -0.63309
H 5.09429 -0.43398 -2.66937
H 5.10171 -2.1682 -3.20123
H 3.35505 0.03829 -3.97058
H 3.01723 -1.6909 -4.43782
H 1.29058 -0.449 -2.7923
O -0.24123 -5.58004 4.09526
C -1.78975 -2.71267 1.92782
C -4.13678 -6.20508 3.99048
C -4.69052 -7.62645 4.08589
C -3.42195 -8.40237 4.35667
C -2.40515 -7.25877 4.4153
O -3.13198 -6.19169 4.97081
H -3.92432 -6.52242 1.8429
H -1.84378 -7.63029 2.33902
H -1.78165 -2.46482 3.01216
H -4.96435 -5.47551 4.12763
H -5.33762 -7.68076 4.99056
H -5.27003 -7.9557 3.19663
H -3.50845 -8.87674 5.3599
H -3.16081 -9.17092 3.5975
H -1.50911 -7.58884 4.9862
H -2.52178 -2.0591 1.40666
H -0.79596 -2.4653 1.58773
H -2.55963 -3.2918 -2.17032
H -2.16041 -1.98213 -0.99627
H -1.84261 -3.74407 -0.60167
H 2.91247 -5.51773 1.67762
H 1.74554 -6.54002 0.81775
H 1.1422 -4.37731 2.7133
H 0.49341 -4.01374 1.12245
$end

$opt
CONSTRAINT
tors           1           2           3           4    -132.399
tors           3           4           5           6     -84.548
tors           4           5           6           7    +173.649
tors           5           6           7           8    +128.660
tors           6           7           8           9    +111.808
tors           7           8           9          10     +77.140
tors           8           9          10          11    -179.634
tors           9          10          11          12     +67.675
tors          11          12          13          14     +40.773
ENDCONSTRAINT
$end

$rem
JOBTYPE                   OPT
METHOD                    B3LYP
DFT_D                     d3_op
BASIS                     STO-3G
GEOM_OPT_MAX_CYCLES       100
GEOM_OPT_TOL_GRADIENT     300
GEOM_OPT_TOL_DISPLACEMENT 1200
GEOM_OPT_TOL_ENERGY       100
SYMMETRY                  False
THRESH                    12
SCF_CONVERGENCE           8
MAX_SUB_FILE_NUM          128
MEM_STATIC                400
MEM_TOTAL                 4000
$end
--------------------------------------------------------------

   15   -1510.1364248943      7.19E-09 Convergence criterion met
 Total energy in the final basis set = -1510.13642489
   13   -1510.2103111994      9.63E-09 Convergence criterion met
 Total energy in the final basis set = -1510.21031120
   14   -1510.2461818580      7.78E-09 Convergence criterion met
 Total energy in the final basis set = -1510.24618186
   14   -1510.2692061301      7.73E-09 Convergence criterion met
 Total energy in the final basis set = -1510.26920613
   13   -1510.2772046757      8.62E-09 Convergence criterion met
 Total energy in the final basis set = -1510.27720468
   14   -1510.2840847327      3.47E-09 Convergence criterion met
 Total energy in the final basis set = -1510.28408473
   13   -1510.2877766030      7.72E-09 Convergence criterion met
 Total energy in the final basis set = -1510.28777660
   13   -1510.2895278687      3.39E-09 Convergence criterion met
   11   -1510.2914155289      4.50E-09 Convergence criterion met
 Total energy in the final basis set = -1510.29141553
   11   -1510.2914285407      3.20E-09 Convergence criterion met
 Total energy in the final basis set = -1510.29142854
   10   -1510.2914347101      8.47E-09 Convergence criterion met
 Total energy in the final basis set = -1510.29143471
    9   -1510.2914365819      5.83E-09 Convergence criterion met
 Total energy in the final basis set = -1510.29143658
    9   -1510.2914379400      5.74E-09 Convergence criterion met
 Total energy in the final basis set = -1510.29143794
    9   -1510.2914389922      2.23E-09 Convergence criterion met
 Total energy in the final basis set = -1510.29143899

             Standard Nuclear Orientation (Angstroms)
    I     Atom           X                Y                Z
 ----------------------------------------------------------------
    1      O      -3.4732388340     2.3686392190     1.6706025885
    2      C      -3.0603228167     1.5769475234     0.7955556905
    3      C      -3.9393044442     0.9007102136    -0.3284551641
    4      C      -3.7492754814    -0.6700599687    -0.5250763980
    5      C      -2.5356506762    -1.2699506491     0.2599666153
    6      O      -1.3734627786    -1.0826601278    -0.5512335618
    7      C      -0.1527186591    -1.4854833338     0.1805741368
    8      C       0.7182489516    -2.4854169620    -0.6710868089
    9      O       1.9786457629    -1.8082525888    -1.0664064893
   10      C       2.9025257251    -1.7547797920     0.0249543944
   11      C       4.1769765780    -1.0139580592    -0.5155835949
   12      C       3.9122671115     0.5203913243    -0.8397935244
   13      C       2.4670930445     1.0059304156    -0.4749823856
   14      O       1.8020642696     0.7066453703     0.5483082225
   15      O      -1.6882587811     1.2022414086     0.6496142949
   16      O       1.9936928949     1.8394311381    -1.5271597502
   17      O       2.7181343288    -2.2676479553     1.1478845076
   18      C       0.6239868115     2.3411806758    -1.2501622282
   19      C       5.3075059497    -0.9037550096     0.5884299449
   20      C       6.6678295898    -0.5447560838    -0.1246168005
   21      C       6.4243720650     0.9649900127    -0.4967880749
   22      C       4.9877609096     1.2048347313     0.1151350695
   23      O       4.9616844274     0.3413769305     1.3155548475
   24      H       4.5279187156    -1.5434565708    -1.4195875928
   25      H       4.0938609781     0.7574471949    -1.9024976190
   26      H       5.3379006408    -1.7611759252     1.2885045458
   27      H       7.5097534027    -0.6551997631     0.5772224080
   28      H       6.8585869064    -1.1761336527    -1.0071921247
   29      H       7.1624909923     1.6259281314    -0.0154658135
   30      H       6.4455170856     1.1436260344    -1.5837734300
   31      H       4.7597196461     2.2543523352     0.3849703119
   32      O      -2.5415596123    -1.8070607376     1.3892000855
   33      C      -0.8733758103     1.7506718337     1.7624387059
   34      C      -5.4566442876     0.9525176923     0.1222213663
   35      C      -6.3831918763     0.5897552769    -1.1035324082
   36      C      -6.2047986453    -0.9730481931    -1.1743647936
   37      C      -5.1548467606    -1.2066489470    -0.0187654662
   38      O      -5.5634443649    -0.2273338123     1.0137066276
   39      H      -3.7614612274     1.4359458018    -1.2800152120
   40      H      -3.5974952844    -0.8918725289    -1.5964724595
   41      H      -1.1791049645     1.3100572153     2.7323744652
   42      H      -5.7198103258     1.8764947903     0.6731144888
   43      H      -7.4278762519     0.8694697948    -0.8946662906
   44      H      -6.0614556150     1.0953340087    -2.0282128351
   45      H      -7.1477041235    -1.4960866527    -0.9481636100
   46      H      -5.8342527412    -1.3174486789    -2.1531907961
   47      H      -5.1266739523    -2.2281388915     0.4076836421
   48      H      -0.9691243848     2.8530368422     1.8283745523
   49      H       0.1729512970     1.4656868805     1.5245663563
   50      H       0.2632466731     2.7678178145    -2.2039318483
   51      H       0.6460628809     3.1392187439    -0.4803451919
   52      H      -0.0685867549     1.5417080935    -0.9099959973
   53      H       0.9320304900    -3.4106979539    -0.0955751639
   54      H       0.2008006726    -2.7426329929    -1.6175034437
   55      H      -0.4627833987    -1.9438272251     1.1437679891
   56      H       0.4566106608    -0.5747313582     0.3863400311
 ----------------------------------------------------------------

    9   -1510.2914398636      2.77E-09 Convergence criterion met
 Total energy in the final basis set = -1510.29143986
 Final energy is   -1510.29143986355
 **  OPTIMIZATION CONVERGED  **

                    Orbital Energies (a.u.)
 --------------------------------------------------------------

 Alpha MOs
 -- Occupied --
-18.952 -18.933 -18.927 -18.922 -18.892 -18.891 -18.883 -18.877
-18.874 -18.869 -10.115 -10.100 -10.097 -10.095 -10.068 -10.067
-10.066 -10.061 -10.056 -10.055 -10.050 -10.046 -10.045 -10.040
-10.037 -10.034 -10.025 -10.023 -10.018 -10.017  -1.025  -1.012
 -1.010  -1.001  -0.974  -0.966  -0.949  -0.937  -0.934  -0.928
 -0.768  -0.760  -0.729  -0.721  -0.713  -0.704  -0.691  -0.671
 -0.655  -0.616  -0.598  -0.580  -0.549  -0.543  -0.539  -0.534
 -0.517  -0.506  -0.480  -0.477  -0.465  -0.458  -0.454  -0.449
 -0.436  -0.432  -0.422  -0.418  -0.414  -0.408  -0.407  -0.403
 -0.393  -0.381  -0.374  -0.369  -0.363  -0.358  -0.355  -0.348
 -0.347  -0.339  -0.335  -0.333  -0.329  -0.327  -0.325  -0.314
 -0.309  -0.308  -0.305  -0.303  -0.295  -0.286  -0.281  -0.276
 -0.271  -0.263  -0.250  -0.245  -0.238  -0.236  -0.231  -0.192
 -0.179  -0.175  -0.169  -0.159  -0.154  -0.153  -0.148  -0.147
 -0.141

          Ground-State Mulliken Net Atomic Charges

     Atom                 Charge (a.u.)
  ----------------------------------------
      1 O                    -0.210529
      2 C                     0.208684
      3 C                    -0.077091
      4 C                    -0.079886
      5 C                     0.213203
      6 O                    -0.176643
      7 C                    -0.070331
      8 C                    -0.052345
      9 O                    -0.180167
     10 C                     0.211770
     11 C                    -0.078844
     12 C                    -0.077427
     13 C                     0.221259
     14 O                    -0.217465
     15 O                    -0.174226
     16 O                    -0.162526
     17 O                    -0.207884
     18 C                    -0.134958
     19 C                     0.024825
     20 C                    -0.143726
     21 C                    -0.143765
     22 C                     0.025611
     23 O                    -0.185971
     24 H                     0.086217
     25 H                     0.089021
     26 H                     0.091108
     27 H                     0.079219
     28 H                     0.073878
     29 H                     0.079093
     30 H                     0.074306
     31 H                     0.082522
     32 O                    -0.214852
     33 C                    -0.139933
     34 C                     0.023418
     35 C                    -0.144939
     36 C                    -0.143276
     37 C                     0.024398
     38 O                    -0.188282
     39 H                     0.082645
     40 H                     0.083315
     41 H                     0.089406
     42 H                     0.090871
     43 H                     0.078117
     44 H                     0.071946
     45 H                     0.077793
     46 H                     0.072086
     47 H                     0.086800
     48 H                     0.083335
     49 H                     0.108461
     50 H                     0.091657
     51 H                     0.085641
     52 H                     0.108688
     53 H                     0.091729
     54 H                     0.091786
     55 H                     0.098685
     56 H                     0.103573
  ----------------------------------------
  Sum of atomic charges =    -0.000000

                    Cartesian Multipole Moments
 -----------------------------------------------------------------
    Charge (ESU x 10^10)
                -0.0000
    Dipole Moment (Debye)
         X       1.9704      Y       0.8945      Z      -4.9621
       Tot       5.4134
    Quadrupole Moments (Debye-Ang)
        XX    -148.6696     XY       1.8539     YY    -155.3456
        XZ       6.1172     YZ       1.9600     ZZ    -167.7780

 Total job time:  64.35s(wall), 3063.22s(cpu)
        *  Thank you very much for using Q-Chem.  Have a nice day.  *
