 Q-Chem 5.0, Q-Chem, Inc., Pleasanton, CA (2017)
 Q-Chem 5.0.1 for Intel X86 EM64T Linux

User input:
--------------------------------------------------------------
$molecule
0  1
O -3.473238834 2.368639219 1.6706025885
C -3.0603228167 1.5769475234 0.7955556905
C -3.9393044442 0.9007102136 -0.3284551641
C -3.7492754814 -0.6700599687 -0.525076398
C -2.5356506762 -1.2699506491 0.2599666153
O -1.3734627786 -1.0826601278 -0.5512335618
C -0.1527186591 -1.4854833338 0.1805741368
C 0.7182489516 -2.485416962 -0.6710868089
O 1.9786457629 -1.8082525888 -1.0664064893
C 2.9025257251 -1.754779792 0.0249543944
C 4.176976578 -1.0139580592 -0.5155835949
C 3.9122671115 0.5203913243 -0.8397935244
C 2.4670930445 1.0059304156 -0.4749823856
O 1.8020642696 0.7066453703 0.5483082225
O -1.6882587811 1.2022414086 0.6496142949
O 1.9936928949 1.8394311381 -1.5271597502
O 2.7181343288 -2.2676479553 1.1478845076
C 0.6239868115 2.3411806758 -1.2501622282
C 5.3075059497 -0.9037550096 0.5884299449
C 6.6678295898 -0.5447560838 -0.1246168005
C 6.424372065 0.9649900127 -0.4967880749
C 4.9877609096 1.2048347313 0.1151350695
O 4.9616844274 0.3413769305 1.3155548475
H 4.5279187156 -1.5434565708 -1.4195875928
H 4.0938609781 0.7574471949 -1.902497619
H 5.3379006408 -1.7611759252 1.2885045458
H 7.5097534027 -0.6551997631 0.577222408
H 6.8585869064 -1.1761336527 -1.0071921247
H 7.1624909923 1.6259281314 -0.0154658135
H 6.4455170856 1.1436260344 -1.58377343
H 4.7597196461 2.2543523352 0.3849703119
O -2.5415596123 -1.8070607376 1.3892000855
C -0.8733758103 1.7506718337 1.7624387059
C -5.4566442876 0.9525176923 0.1222213663
C -6.3831918763 0.5897552769 -1.1035324082
C -6.2047986453 -0.9730481931 -1.1743647936
C -5.1548467606 -1.206648947 -0.0187654662
O -5.5634443649 -0.2273338123 1.0137066276
H -3.7614612274 1.4359458018 -1.280015212
H -3.5974952844 -0.8918725289 -1.5964724595
H -1.1791049645 1.3100572153 2.7323744652
H -5.7198103258 1.8764947903 0.6731144888
H -7.4278762519 0.8694697948 -0.8946662906
H -6.061455615 1.0953340087 -2.0282128351
H -7.1477041235 -1.4960866527 -0.94816361
H -5.8342527412 -1.3174486789 -2.1531907961
H -5.1266739523 -2.2281388915 0.4076836421
H -0.9691243848 2.8530368422 1.8283745523
H 0.172951297 1.4656868805 1.5245663563
H 0.2632466731 2.7678178145 -2.2039318483
H 0.6460628809 3.1392187439 -0.4803451919
H -0.0685867549 1.5417080935 -0.9099959973
H 0.93203049 -3.4106979539 -0.0955751639
H 0.2008006726 -2.7426329929 -1.6175034437
H -0.4627833987 -1.9438272251 1.1437679891
H 0.4566106608 -0.5747313582 0.3863400311
$end

$rem
JOBTYPE                   OPT
METHOD                    B3LYP
DFT_D                     d3_op
BASIS                     STO-3G
GEOM_OPT_MAX_CYCLES       100
GEOM_OPT_TOL_GRADIENT     300
GEOM_OPT_TOL_DISPLACEMENT 1200
GEOM_OPT_TOL_ENERGY       100
SYMMETRY                  False
THRESH                    12
SCF_CONVERGENCE           8
MAX_SUB_FILE_NUM          128
MEM_STATIC                400
MEM_TOTAL                 4000
$end
--------------------------------------------------------------

   16   -1510.2915536168      4.85E-09 Convergence criterion met
 Total energy in the final basis set = -1510.29155362
   15   -1510.2823380198      2.34E-09 Convergence criterion met
 Total energy in the final basis set = -1510.28233802
   14   -1510.2877514897      4.72E-09 Convergence criterion met
 Total energy in the final basis set = -1510.28775149
   15   -1510.2907782437      3.72E-09 Convergence criterion met
 Total energy in the final basis set = -1510.29077824
   15   -1510.2756855120      5.90E-09 Convergence criterion met
 Total energy in the final basis set = -1510.27568551
   14   -1510.2937274708      4.77E-09 Convergence criterion met
 Total energy in the final basis set = -1510.29372747
   14   -1510.2957345896      7.10E-09 Convergence criterion met
 Total energy in the final basis set = -1510.29573459
   14   -1510.2956409317      6.15E-09 Convergence criterion met
   11   -1510.3002334797      5.46E-09 Convergence criterion met
 Total energy in the final basis set = -1510.30023348
   11   -1510.3002410159      4.15E-09 Convergence criterion met
 Total energy in the final basis set = -1510.30024102
   10   -1510.3002479771      5.51E-09 Convergence criterion met
 Total energy in the final basis set = -1510.30024798
   11   -1510.3002518064      4.12E-09 Convergence criterion met
 Total energy in the final basis set = -1510.30025181
   11   -1510.3002557208      2.74E-09 Convergence criterion met
 Total energy in the final basis set = -1510.30025572
    9   -1510.3002575207      9.93E-09 Convergence criterion met
 Total energy in the final basis set = -1510.30025752

             Standard Nuclear Orientation (Angstroms)
    I     Atom           X                Y                Z
 ----------------------------------------------------------------
    1      O      -3.5203738522     2.2508534002     2.0563972718
    2      C      -3.0528737080     1.6820857419     1.0487428829
    3      C      -3.8254464869     1.1341466349    -0.2059652984
    4      C      -3.3921282363    -0.3380558540    -0.6178040603
    5      C      -2.3532054562    -0.9601261645     0.3780833346
    6      O      -1.1127362488    -1.2000842660    -0.3198686799
    7      C      -0.0862904098    -1.6990809079     0.6320151659
    8      C       0.8722584308    -2.6885150579    -0.1166254656
    9      O       1.9841946888    -1.9560788320    -0.7730225741
   10      C       3.0907899188    -1.8307070540     0.1337976210
   11      C       4.1967516203    -0.9485030230    -0.5446053922
   12      C       3.7033764012     0.5105219274    -0.9327034131
   13      C       2.1876104038     0.7547096446    -0.6160829762
   14      O       1.6497236156     0.7522791795     0.5185643343
   15      O      -1.6681333689     1.4184656744     0.8201845417
   16      O       1.5172106517     0.9911164784    -1.8452011491
   17      O       3.1410616122    -2.3674507845     1.2608087811
   18      C       0.0549466682     1.1523503071    -1.6432040056
   19      C       5.3427706197    -0.6173783014     0.4954594872
   20      C       6.5930428496    -0.0537830050    -0.2853480467
   21      C       6.0970509357     1.3964976729    -0.6469076398
   22      C       4.6521675221     1.3915275423    -0.0093324979
   23      O       4.8112232967     0.5680225004     1.2094366595
   24      H       4.5763697109    -1.4832104584    -1.4345823079
   25      H       3.8639512525     0.7145521115    -2.0054871570
   26      H       5.5441214844    -1.4382595585     1.2107096114
   27      H       7.4766992253    -0.0261249889     0.3717769532
   28      H       6.8343252668    -0.6561107916    -1.1760689901
   29      H       6.7235214426     2.1678659088    -0.1714765635
   30      H       6.0726779874     1.5802929283    -1.7329224392
   31      H       4.2450554712     2.3886692949     0.2476133745
   32      O      -2.5478382303    -1.2785788529     1.5704265997
   33      C      -0.8250759670     1.8089837557     1.9723663978
   34      C      -5.3676267769     0.9334357851     0.0886748287
   35      C      -6.1238961695     0.8079201290    -1.2905932026
   36      C      -5.6872430006    -0.6355498197    -1.7437737541
   37      C      -4.7927185764    -1.0845986711    -0.5202464067
   38      O      -5.4378962802    -0.4387799743     0.6445748143
   39      H      -3.6595418448     1.8352101200    -1.0449103720
   40      H      -2.9701905861    -0.3668027582    -1.6373425620
   41      H      -1.0936399576     1.2276576079     2.8773929027
   42      H      -5.7846815761     1.6648302839     0.8082059587
   43      H      -7.2132911178     0.8695154521    -1.1386622924
   44      H      -5.8221337140     1.5897002362    -2.0059286785
   45      H      -6.5542048664    -1.3062876390    -1.8520985246
   46      H      -5.1225729438    -0.6321145293    -2.6898991148
   47      H      -4.7195165483    -2.1784286989    -0.3644665781
   48      H      -0.9226713718     2.8899541513     2.1979424549
   49      H       0.2098786141     1.5658411364     1.6506818310
   50      H      -0.3625421988     1.3307403220    -2.6507073599
   51      H      -0.1709962514     2.0201209982    -0.9923883627
   52      H      -0.4040798205     0.2380578579    -1.1892347926
   53      H       1.2874021811    -3.4158122678     0.6136113026
   54      H       0.3260124303    -3.2238335948    -0.9197606645
   55      H      -0.5989780239    -2.1887888050     1.4868774430
   56      H       0.5066780573    -0.8281058848     0.9974783158
 ----------------------------------------------------------------

    9   -1510.3002568471      4.90E-09 Convergence criterion met
 Total energy in the final basis set = -1510.30025685
 Final energy is   -1510.30025684707
 **  OPTIMIZATION CONVERGED  **

                    Orbital Energies (a.u.)
 --------------------------------------------------------------

 Alpha MOs
 -- Occupied --
-18.937 -18.937 -18.935 -18.933 -18.889 -18.888 -18.882 -18.879
-18.876 -18.874 -10.104 -10.103 -10.103 -10.100 -10.073 -10.062
-10.062 -10.061 -10.059 -10.058 -10.049 -10.041 -10.041 -10.040
-10.038 -10.038 -10.022 -10.022 -10.021 -10.020  -1.019  -1.015
 -1.009  -1.006  -0.971  -0.970  -0.943  -0.938  -0.936  -0.936
 -0.766  -0.764  -0.729  -0.724  -0.712  -0.707  -0.698  -0.657
 -0.655  -0.618  -0.598  -0.581  -0.548  -0.545  -0.539  -0.537
 -0.512  -0.511  -0.486  -0.474  -0.459  -0.458  -0.455  -0.453
 -0.437  -0.432  -0.429  -0.418  -0.415  -0.409  -0.401  -0.398
 -0.391  -0.383  -0.372  -0.368  -0.363  -0.362  -0.355  -0.352
 -0.342  -0.342  -0.338  -0.332  -0.331  -0.327  -0.324  -0.312
 -0.311  -0.307  -0.306  -0.302  -0.292  -0.289  -0.285  -0.275
 -0.273  -0.263  -0.254  -0.245  -0.242  -0.235  -0.234  -0.185
 -0.178  -0.174  -0.171  -0.162  -0.159  -0.153  -0.151  -0.145
 -0.144

          Ground-State Mulliken Net Atomic Charges

     Atom                 Charge (a.u.)
  ----------------------------------------
      1 O                    -0.205865
      2 C                     0.213264
      3 C                    -0.078696
      4 C                    -0.078807
      5 C                     0.216431
      6 O                    -0.174894
      7 C                    -0.063718
      8 C                    -0.053370
      9 O                    -0.174675
     10 C                     0.210881
     11 C                    -0.078208
     12 C                    -0.079251
     13 C                     0.218034
     14 O                    -0.227923
     15 O                    -0.176382
     16 O                    -0.166153
     17 O                    -0.208284
     18 C                    -0.148493
     19 C                     0.024394
     20 C                    -0.144196
     21 C                    -0.143664
     22 C                     0.025500
     23 O                    -0.186507
     24 H                     0.086046
     25 H                     0.087187
     26 H                     0.090804
     27 H                     0.078777
     28 H                     0.073257
     29 H                     0.078426
     30 H                     0.073791
     31 H                     0.083084
     32 O                    -0.211580
     33 C                    -0.140421
     34 C                     0.023982
     35 C                    -0.143678
     36 C                    -0.144185
     37 C                     0.025865
     38 O                    -0.185602
     39 H                     0.083482
     40 H                     0.084533
     41 H                     0.089227
     42 H                     0.091232
     43 H                     0.078745
     44 H                     0.072779
     45 H                     0.078533
     46 H                     0.072935
     47 H                     0.083520
     48 H                     0.084004
     49 H                     0.112749
     50 H                     0.078990
     51 H                     0.084147
     52 H                     0.113426
     53 H                     0.099195
     54 H                     0.092180
     55 H                     0.099785
     56 H                     0.105367
  ----------------------------------------
  Sum of atomic charges =    -0.000000

                    Cartesian Multipole Moments
 -----------------------------------------------------------------
    Charge (ESU x 10^10)
                -0.0000
    Dipole Moment (Debye)
         X       1.3505      Y       0.1947      Z      -4.6846
       Tot       4.8793
    Quadrupole Moments (Debye-Ang)
        XX    -152.3986     XY       0.4628     YY    -154.8149
        XZ       6.2329     YZ       0.2715     ZZ    -167.9210

 Total job time:  97.86s(wall), 4664.98s(cpu)
        *  Thank you very much for using Q-Chem.  Have a nice day.  *
