 Q-Chem 5.0, Q-Chem, Inc., Pleasanton, CA (2017)
 Q-Chem 5.0.1 for Intel X86 EM64T Linux

User input:
--------------------------------------------------------------
$molecule
0  1
O -3.94934 -3.66094 2.70899
C -3.26408 -4.56952 2.26188
C -3.36658 -6.02376 2.66595
C -2.04998 -6.78225 2.90073
C -0.7828 -5.9565 2.87881
O -0.35105 -5.80324 1.59213
C 0.69268 -4.83242 1.46024
C 1.79627 -5.36703 0.55337
O 1.78718 -4.66067 -0.69717
C 2.28724 -3.40066 -0.6588
C 2.15544 -2.67497 -1.97662
C 0.72312 -2.26572 -2.34981
C -0.29183 -2.31305 -1.22539
O -0.09207 -1.95212 -0.07457
O -2.05816 -4.04097 1.91579
O -1.5485 -2.59584 -1.66282
O 2.85145 -2.92109 0.31826
C -2.71453 -2.54576 -0.94102
C 2.8564 -1.29785 -1.99805
C 3.15581 -0.89245 -3.44099
C 1.76088 -0.5842 -3.9409
C 0.96077 -0.77125 -2.64744
O 1.85435 -0.38571 -1.63254
H 2.63914 -3.31806 -2.74615
H 0.31397 -2.79456 -3.23981
H 3.79162 -1.26626 -1.39758
H 3.73584 0.05754 -3.40065
H 3.72027 -1.64011 -4.03868
H 1.73241 0.4791 -4.26771
H 1.38926 -1.24385 -4.7547
H 0.00868 -0.19665 -2.69783
O -0.14434 -5.63938 3.87727
C -1.65232 -2.76489 2.34525
C -4.04881 -6.19684 4.03827
C -4.62073 -7.60839 4.16599
C -3.35118 -8.40818 4.34899
C -2.31168 -7.2837 4.34072
O -2.97935 -6.20586 4.94768
H -3.98389 -6.50769 1.87738
H -1.90095 -7.65875 2.23051
H -0.59735 -2.54767 2.14055
H -4.85109 -5.45248 4.2336
H -5.20728 -7.6556 5.1114
H -5.26364 -7.92259 3.31571
H -3.37805 -8.88314 5.35532
H -3.15663 -9.17981 3.57315
H -1.38506 -7.63219 4.84835
H -1.73308 -2.70144 3.45249
H -2.28363 -1.97239 1.89132
H -3.5668 -2.72236 -1.62846
H -2.83876 -1.54784 -0.47015
H -2.72924 -3.35429 -0.20184
H 2.79646 -5.32682 1.04107
H 1.60345 -6.44108 0.34386
H 1.12443 -4.41618 2.39773
H 0.24998 -4.00579 0.91537
$end

$opt
CONSTRAINT
tors           1           2           3           4    -136.503
tors           3           4           5           6     -84.548
tors           4           5           6           7    +168.961
tors           5           6           7           8    +135.350
tors           6           7           8           9    +109.300
tors           7           8           9          10     +74.824
tors           8           9          10          11    -175.680
tors           9          10          11          12     +71.325
tors          11          12          13          14     +40.773
ENDCONSTRAINT
$end

$rem
JOBTYPE                   OPT
METHOD                    B3LYP
DFT_D                     d3_op
BASIS                     STO-3G
GEOM_OPT_MAX_CYCLES       100
GEOM_OPT_TOL_GRADIENT     300
GEOM_OPT_TOL_DISPLACEMENT 1200
GEOM_OPT_TOL_ENERGY       100
SYMMETRY                  False
THRESH                    12
SCF_CONVERGENCE           8
MAX_SUB_FILE_NUM          128
MEM_STATIC                400
MEM_TOTAL                 4000
$end
--------------------------------------------------------------

   15   -1510.1212980890      8.67E-09 Convergence criterion met
 Total energy in the final basis set = -1510.12129809
   14   -1510.1963299568      5.19E-09 Convergence criterion met
 Total energy in the final basis set = -1510.19632996
   14   -1510.2327710339      4.55E-09 Convergence criterion met
 Total energy in the final basis set = -1510.23277103
   14   -1510.2582820438      9.23E-09 Convergence criterion met
 Total energy in the final basis set = -1510.25828204
   14   -1510.2689079299      2.58E-09 Convergence criterion met
 Total energy in the final basis set = -1510.26890793
   13   -1510.2775495367      3.84E-09 Convergence criterion met
 Total energy in the final basis set = -1510.27754954
   13   -1510.2833086190      3.35E-09 Convergence criterion met
 Total energy in the final basis set = -1510.28330862
   13   -1510.2869991514      5.14E-09 Convergence criterion met
   11   -1510.2927133689      5.49E-09 Convergence criterion met
 Total energy in the final basis set = -1510.29271337
    9   -1510.2927229580      6.49E-09 Convergence criterion met
 Total energy in the final basis set = -1510.29272296
    9   -1510.2927267756      8.72E-09 Convergence criterion met
 Total energy in the final basis set = -1510.29272678
    9   -1510.2927296234      4.96E-09 Convergence criterion met
 Total energy in the final basis set = -1510.29272962
    9   -1510.2927314135      4.93E-09 Convergence criterion met
 Total energy in the final basis set = -1510.29273141
    9   -1510.2927325445      3.26E-09 Convergence criterion met
 Total energy in the final basis set = -1510.29273254

             Standard Nuclear Orientation (Angstroms)
    I     Atom           X                Y                Z
 ----------------------------------------------------------------
    1      O       3.3125350879     2.4482929161    -1.6261826089
    2      C       2.9345148131     1.5658055925    -0.8258279552
    3      C       3.7991215967     0.9427132536     0.3362731358
    4      C       3.7110290992    -0.6366986533     0.5055395960
    5      C       2.5305231645    -1.3257549466    -0.2590065894
    6      O       1.3693435682    -1.2379413904     0.5748142376
    7      C       0.1556817442    -1.6277935418    -0.1802034240
    8      C      -0.7364757806    -2.5855576541     0.6966687362
    9      O      -1.9761268397    -1.8972499771     1.1355322138
   10      C      -2.9087545909    -1.7801092397     0.0553626534
   11      C      -4.1245179877    -0.9446324628     0.5975513542
   12      C      -3.7913414855     0.5919299647     0.8254526931
   13      C      -2.3420500716     0.9969270131     0.3927554190
   14      O      -1.7314975572     0.6067383248    -0.6336870751
   15      O       1.6145345916     1.0131213741    -0.8194395476
   16      O      -1.8081502676     1.8776461544     1.3726995456
   17      O      -2.7709300715    -2.3042997385    -1.0692308649
   18      C      -0.4468546040     2.3493069994     1.0131053746
   19      C      -5.2923441408    -0.8492333299    -0.4697784293
   20      C      -6.6086848455    -0.3898667828     0.2688428574
   21      C      -6.2919278102     1.1283835609     0.5354179795
   22      C      -4.8683394095     1.2666479063    -0.1359886822
   23      O      -4.9224548642     0.3344010386    -1.2821622935
   24      H      -4.4643778055    -1.4063426857     1.5420983264
   25      H      -3.9336563128     0.8947286938     1.8773485690
   26      H      -5.3870647590    -1.7434567884    -1.1159258954
   27      H      -7.4809748855    -0.5082044909    -0.3934949600
   28      H      -6.7892835540    -0.9568353145     1.1961169313
   29      H      -7.0183870704     1.7882424100     0.0351295759
   30      H      -6.2691133811     1.3769111873     1.6085325510
   31      H      -4.6045482714     2.2871987767    -0.4755558338
   32      O       2.5619681986    -1.8640991685    -1.3872606338
   33      C       0.8351479477     1.4875639668    -1.9916370992
   34      C       5.3239534814     1.1004967537    -0.0621508340
   35      C       6.2400094031     0.7406184463     1.1726012655
   36      C       6.1733272305    -0.8323645595     1.1614481029
   37      C       5.1467159992    -1.0762623462    -0.0117235555
   38      O       5.5142931241    -0.0341857156    -0.9980116778
   39      H       3.5452152664     1.4557738033     1.2824970918
   40      H       3.5884758616    -0.8782089155     1.5767494430
   41      H      -0.2209438089     1.2443536007    -1.7513600533
   42      H       5.5468777371     2.0596826965    -0.5688835176
   43      H       7.2670902732     1.1042673927     1.0114456158
   44      H       5.8566808904     1.1748337355     2.1100262742
   45      H       7.1515194421    -1.2737185224     0.9118900491
   46      H       5.8277873567    -1.2545321329     2.1186799215
   47      H       5.1754786857    -2.0791906009    -0.4800311553
   48      H       1.1561581572     0.9558343071    -2.9094391578
   49      H       0.9647734504     2.5770169165    -2.1440822122
   50      H      -0.0115219567     2.7481399776     1.9476034356
   51      H      -0.5080328431     3.1671354297     0.2660727414
   52      H       0.2056650759     1.5462393808     0.6032354785
   53      H      -0.9865134675    -3.5072182882     0.1293127738
   54      H      -0.1998313884    -2.8579333485     1.6279949003
   55      H       0.4714831658    -2.1230369305    -1.1226339638
   56      H      -0.4310036059    -0.7114087354    -0.4261479860
 ----------------------------------------------------------------

    9   -1510.2927326890      3.16E-09 Convergence criterion met
 Total energy in the final basis set = -1510.29273269
 Final energy is   -1510.29273268903
 **  OPTIMIZATION CONVERGED  **

                    Orbital Energies (a.u.)
 --------------------------------------------------------------

 Alpha MOs
 -- Occupied --
-18.952 -18.938 -18.927 -18.920 -18.892 -18.891 -18.884 -18.878
-18.876 -18.867 -10.116 -10.101 -10.099 -10.094 -10.067 -10.066
-10.064 -10.061 -10.056 -10.056 -10.049 -10.046 -10.045 -10.040
-10.039 -10.034 -10.024 -10.023 -10.019 -10.018  -1.025  -1.014
 -1.009  -1.000  -0.974  -0.967  -0.950  -0.937  -0.936  -0.927
 -0.767  -0.761  -0.728  -0.722  -0.713  -0.704  -0.691  -0.670
 -0.656  -0.616  -0.598  -0.580  -0.549  -0.543  -0.539  -0.535
 -0.517  -0.507  -0.480  -0.479  -0.465  -0.458  -0.454  -0.449
 -0.436  -0.433  -0.424  -0.417  -0.414  -0.408  -0.407  -0.402
 -0.394  -0.382  -0.374  -0.369  -0.362  -0.358  -0.355  -0.348
 -0.346  -0.340  -0.335  -0.333  -0.330  -0.327  -0.326  -0.314
 -0.310  -0.307  -0.306  -0.304  -0.297  -0.285  -0.283  -0.276
 -0.270  -0.264  -0.250  -0.246  -0.238  -0.237  -0.232  -0.192
 -0.178  -0.177  -0.168  -0.160  -0.156  -0.152  -0.148  -0.147
 -0.142

          Ground-State Mulliken Net Atomic Charges

     Atom                 Charge (a.u.)
  ----------------------------------------
      1 O                    -0.209215
      2 C                     0.211000
      3 C                    -0.077076
      4 C                    -0.080591
      5 C                     0.214040
      6 O                    -0.178599
      7 C                    -0.069262
      8 C                    -0.052212
      9 O                    -0.179240
     10 C                     0.211075
     11 C                    -0.078916
     12 C                    -0.077798
     13 C                     0.221715
     14 O                    -0.217653
     15 O                    -0.174045
     16 O                    -0.162487
     17 O                    -0.207640
     18 C                    -0.139075
     19 C                     0.025116
     20 C                    -0.143848
     21 C                    -0.143708
     22 C                     0.025839
     23 O                    -0.185787
     24 H                     0.085950
     25 H                     0.089012
     26 H                     0.090697
     27 H                     0.079127
     28 H                     0.073929
     29 H                     0.079049
     30 H                     0.074324
     31 H                     0.082438
     32 O                    -0.216121
     33 C                    -0.142269
     34 C                     0.023473
     35 C                    -0.145200
     36 C                    -0.142934
     37 C                     0.023984
     38 O                    -0.188954
     39 H                     0.083334
     40 H                     0.083136
     41 H                     0.111410
     42 H                     0.090757
     43 H                     0.078284
     44 H                     0.072133
     45 H                     0.077947
     46 H                     0.072431
     47 H                     0.087342
     48 H                     0.088771
     49 H                     0.087178
     50 H                     0.089832
     51 H                     0.083488
     52 H                     0.111187
     53 H                     0.090863
     54 H                     0.092080
     55 H                     0.098133
     56 H                     0.103552
  ----------------------------------------
  Sum of atomic charges =    -0.000000

                    Cartesian Multipole Moments
 -----------------------------------------------------------------
    Charge (ESU x 10^10)
                -0.0000
    Dipole Moment (Debye)
         X      -1.7350      Y       1.0647      Z       4.6962
       Tot       5.1184
    Quadrupole Moments (Debye-Ang)
        XX    -149.2887     XY      -2.6215     YY    -156.3884
        XZ       5.3414     YZ      -1.9595     ZZ    -167.1453

 Total job time:  70.03s(wall), 3338.59s(cpu)
        *  Thank you very much for using Q-Chem.  Have a nice day.  *
