 Q-Chem 5.0, Q-Chem, Inc., Pleasanton, CA (2017)
 Q-Chem 5.0.1 for Intel X86 EM64T Linux

User input:
--------------------------------------------------------------
$molecule
0  1
O 3.3125350879 2.4482929161 -1.6261826089
C 2.9345148131 1.5658055925 -0.8258279552
C 3.7991215967 0.9427132536 0.3362731358
C 3.7110290992 -0.6366986533 0.505539596
C 2.5305231645 -1.3257549466 -0.2590065894
O 1.3693435682 -1.2379413904 0.5748142376
C 0.1556817442 -1.6277935418 -0.180203424
C -0.7364757806 -2.5855576541 0.6966687362
O -1.9761268397 -1.8972499771 1.1355322138
C -2.9087545909 -1.7801092397 0.0553626534
C -4.1245179877 -0.9446324628 0.5975513542
C -3.7913414855 0.5919299647 0.8254526931
C -2.3420500716 0.9969270131 0.392755419
O -1.7314975572 0.6067383248 -0.6336870751
O 1.6145345916 1.0131213741 -0.8194395476
O -1.8081502676 1.8776461544 1.3726995456
O -2.7709300715 -2.3042997385 -1.0692308649
C -0.446854604 2.3493069994 1.0131053746
C -5.2923441408 -0.8492333299 -0.4697784293
C -6.6086848455 -0.3898667828 0.2688428574
C -6.2919278102 1.1283835609 0.5354179795
C -4.8683394095 1.2666479063 -0.1359886822
O -4.9224548642 0.3344010386 -1.2821622935
H -4.4643778055 -1.4063426857 1.5420983264
H -3.9336563128 0.8947286938 1.877348569
H -5.387064759 -1.7434567884 -1.1159258954
H -7.4809748855 -0.5082044909 -0.39349496
H -6.789283554 -0.9568353145 1.1961169313
H -7.0183870704 1.78824241 0.0351295759
H -6.2691133811 1.3769111873 1.608532551
H -4.6045482714 2.2871987767 -0.4755558338
O 2.5619681986 -1.8640991685 -1.3872606338
C 0.8351479477 1.4875639668 -1.9916370992
C 5.3239534814 1.1004967537 -0.062150834
C 6.2400094031 0.7406184463 1.1726012655
C 6.1733272305 -0.8323645595 1.1614481029
C 5.1467159992 -1.0762623462 -0.0117235555
O 5.5142931241 -0.0341857156 -0.9980116778
H 3.5452152664 1.4557738033 1.2824970918
H 3.5884758616 -0.8782089155 1.576749443
H -0.2209438089 1.2443536007 -1.7513600533
H 5.5468777371 2.0596826965 -0.5688835176
H 7.2670902732 1.1042673927 1.0114456158
H 5.8566808904 1.1748337355 2.1100262742
H 7.1515194421 -1.2737185224 0.9118900491
H 5.8277873567 -1.2545321329 2.1186799215
H 5.1754786857 -2.0791906009 -0.4800311553
H 1.1561581572 0.9558343071 -2.9094391578
H 0.9647734504 2.5770169165 -2.1440822122
H -0.0115219567 2.7481399776 1.9476034356
H -0.5080328431 3.1671354297 0.2660727414
H 0.2056650759 1.5462393808 0.6032354785
H -0.9865134675 -3.5072182882 0.1293127738
H -0.1998313884 -2.8579333485 1.6279949003
H 0.4714831658 -2.1230369305 -1.1226339638
H -0.4310036059 -0.7114087354 -0.426147986
$end

$rem
JOBTYPE                   OPT
METHOD                    B3LYP
DFT_D                     d3_op
BASIS                     STO-3G
GEOM_OPT_MAX_CYCLES       100
GEOM_OPT_TOL_GRADIENT     300
GEOM_OPT_TOL_DISPLACEMENT 1200
GEOM_OPT_TOL_ENERGY       100
SYMMETRY                  False
THRESH                    12
SCF_CONVERGENCE           8
MAX_SUB_FILE_NUM          128
MEM_STATIC                400
MEM_TOTAL                 4000
$end
--------------------------------------------------------------

   16   -1510.2928367619      3.40E-09 Convergence criterion met
 Total energy in the final basis set = -1510.29283676
   14   -1510.2914435790      3.00E-09 Convergence criterion met
 Total energy in the final basis set = -1510.29144358
   13   -1510.2878914184      8.20E-09 Convergence criterion met
 Total energy in the final basis set = -1510.28789142
   15   -1510.2891178300      2.30E-09 Convergence criterion met
 Total energy in the final basis set = -1510.28911783
   14   -1510.2924259803      9.80E-09 Convergence criterion met
 Total energy in the final basis set = -1510.29242598
   14   -1510.2909597082      3.08E-09 Convergence criterion met
 Total energy in the final basis set = -1510.29095971
   13   -1510.2926736917      5.78E-09 Convergence criterion met
 Total energy in the final basis set = -1510.29267369
   14   -1510.2957085571      8.10E-09 Convergence criterion met
   12   -1510.3002523802      4.89E-09 Convergence criterion met
 Total energy in the final basis set = -1510.30025238
   12   -1510.3001408951      7.86E-09 Convergence criterion met
 Total energy in the final basis set = -1510.30014090
   12   -1510.3002678232      3.33E-09 Convergence criterion met
 Total energy in the final basis set = -1510.30026782
   11   -1510.3002604860      6.81E-09 Convergence criterion met
 Total energy in the final basis set = -1510.30026049
   11   -1510.3002699803      3.62E-09 Convergence criterion met
 Total energy in the final basis set = -1510.30026998
    9   -1510.3002722087      9.04E-09 Convergence criterion met
 Total energy in the final basis set = -1510.30027221

             Standard Nuclear Orientation (Angstroms)
    I     Atom           X                Y                Z
 ----------------------------------------------------------------
    1      O       3.5590812277    -2.1814931204     2.1074794503
    2      C       3.0843918518    -1.6396716193     1.0885411396
    3      C       3.8467293823    -1.1103095832    -0.1803816982
    4      C       3.4017090350     0.3512774291    -0.6164040371
    5      C       2.3647120598     0.9828606771     0.3743177615
    6      O       1.1100852989     1.1756177880    -0.3128176327
    7      C       0.0840849403     1.6758158224     0.6387358944
    8      C      -0.8726367386     2.6687954375    -0.1072228039
    9      O      -1.9805046131     1.9368195771    -0.7710645040
   10      C      -3.0891987877     1.8049112637     0.1317461824
   11      C      -4.1914750851     0.9239066505    -0.5554172484
   12      C      -3.6993932088    -0.5397200930    -0.9283633468
   13      C      -2.1872612012    -0.7880430260    -0.5956883626
   14      O      -1.6571256231    -0.7776636998     0.5426365111
   15      O       1.6962317629    -1.3981829774     0.8537032946
   16      O      -1.5092279133    -1.0396526712    -1.8175514292
   17      O      -3.1446141847     2.3358130141     1.2612743322
   18      C      -0.0500377261    -1.2090126016    -1.6017462305
   19      C      -5.3542939237     0.6030161232     0.4695914893
   20      C      -6.5952348744     0.0392651831    -0.3263406138
   21      C      -6.0999749226    -1.4152521073    -0.6715250838
   22      C      -4.6644784879    -1.4117092845    -0.0126079516
   23      O      -4.8386915730    -0.5802709789     1.1984790187
   24      H      -4.5569787503     1.4545287778    -1.4536722012
   25      H      -3.8488593096    -0.7496409246    -2.0016302409
   26      H      -5.5641637228     1.4284042806     1.1771392521
   27      H      -7.4884405922     0.0188573020     0.3180340755
   28      H      -6.8214697628     0.6366326629    -1.2243171543
   29      H      -6.7364132437    -2.1811041700    -0.2003609282
   30      H      -6.0605597989    -1.6063128254    -1.7558422048
   31      H      -4.2655427380    -2.4090494972     0.2562613523
   32      O       2.5664868733     1.3352161835     1.5559574150
   33      C       0.8519899949    -1.7852742696     2.0061830657
   34      C       5.3888699377    -0.8947298655     0.1002293794
   35      C       6.1348354640    -0.7886018432    -1.2861898091
   36      C       5.6867160453     0.6443102516    -1.7611501420
   37      C       4.7968875546     1.1086088843    -0.5399861456
   38      O       5.4534497436     0.4873755693     0.6320106079
   39      H       3.6787556124    -1.8280711684    -1.0047161159
   40      H       2.9727190126     0.3581569807    -1.6334314597
   41      H      -0.1851725211    -1.5626624229     1.6761788886
   42      H       5.8152212055    -1.6108955362     0.8295141477
   43      H       7.2255795267    -0.8416845782    -1.1410683344
   44      H       5.8321982782    -1.5842503920    -1.9856572914
   45      H       6.5489088026     1.3181831528    -1.8866807583
   46      H       5.1159226949     0.6212426898    -2.7033714226
   47      H       4.7163755272     2.2043203819    -0.4024930374
   48      H       1.1054408991    -1.1879827267     2.9051678458
   49      H       0.9637528634    -2.8615595982     2.2472621372
   50      H       0.3747228902    -1.3987875498    -2.6041202127
   51      H       0.1629003933    -2.0737576309    -0.9426850750
   52      H       0.4107722827    -0.2935298549    -1.1521524896
   53      H      -1.2925351145     3.3904557296     0.6259177296
   54      H      -0.3253486904     3.2100190514    -0.9055512349
   55      H       0.5993846280     2.1618048751     1.4942394012
   56      H      -0.5116631103     0.8053997332     1.0014852750
 ----------------------------------------------------------------

    9   -1510.3002725994      8.77E-09 Convergence criterion met
 Total energy in the final basis set = -1510.30027260
 Final energy is   -1510.30027259941
 **  OPTIMIZATION CONVERGED  **

                    Orbital Energies (a.u.)
 --------------------------------------------------------------

 Alpha MOs
 -- Occupied --
-18.938 -18.937 -18.935 -18.932 -18.889 -18.888 -18.882 -18.879
-18.877 -18.874 -10.104 -10.103 -10.103 -10.100 -10.073 -10.062
-10.062 -10.060 -10.059 -10.058 -10.050 -10.042 -10.041 -10.040
-10.039 -10.038 -10.022 -10.022 -10.021 -10.021  -1.019  -1.015
 -1.009  -1.006  -0.971  -0.970  -0.943  -0.938  -0.937  -0.936
 -0.766  -0.764  -0.729  -0.724  -0.712  -0.707  -0.698  -0.657
 -0.655  -0.618  -0.598  -0.581  -0.549  -0.545  -0.539  -0.537
 -0.512  -0.511  -0.486  -0.474  -0.459  -0.458  -0.455  -0.453
 -0.437  -0.432  -0.430  -0.418  -0.416  -0.409  -0.401  -0.398
 -0.391  -0.383  -0.372  -0.368  -0.364  -0.362  -0.355  -0.352
 -0.342  -0.341  -0.338  -0.332  -0.331  -0.327  -0.325  -0.312
 -0.311  -0.307  -0.306  -0.302  -0.292  -0.289  -0.285  -0.275
 -0.273  -0.263  -0.254  -0.245  -0.242  -0.235  -0.234  -0.186
 -0.178  -0.174  -0.171  -0.162  -0.159  -0.153  -0.151  -0.145
 -0.144

          Ground-State Mulliken Net Atomic Charges

     Atom                 Charge (a.u.)
  ----------------------------------------
      1 O                    -0.205707
      2 C                     0.213125
      3 C                    -0.078573
      4 C                    -0.078772
      5 C                     0.216369
      6 O                    -0.174906
      7 C                    -0.064310
      8 C                    -0.053451
      9 O                    -0.174803
     10 C                     0.210715
     11 C                    -0.078186
     12 C                    -0.079221
     13 C                     0.217747
     14 O                    -0.227557
     15 O                    -0.176623
     16 O                    -0.166084
     17 O                    -0.208300
     18 C                    -0.147872
     19 C                     0.024474
     20 C                    -0.144208
     21 C                    -0.143648
     22 C                     0.025513
     23 O                    -0.186473
     24 H                     0.085997
     25 H                     0.087183
     26 H                     0.090679
     27 H                     0.078762
     28 H                     0.073248
     29 H                     0.078389
     30 H                     0.073765
     31 H                     0.083067
     32 O                    -0.211411
     33 C                    -0.140209
     34 C                     0.023912
     35 C                    -0.143679
     36 C                    -0.144157
     37 C                     0.025829
     38 O                    -0.185518
     39 H                     0.083551
     40 H                     0.084707
     41 H                     0.112327
     42 H                     0.091196
     43 H                     0.078773
     44 H                     0.072789
     45 H                     0.078561
     46 H                     0.072937
     47 H                     0.083646
     48 H                     0.089129
     49 H                     0.084047
     50 H                     0.079303
     51 H                     0.083798
     52 H                     0.113744
     53 H                     0.099183
     54 H                     0.091982
     55 H                     0.100246
     56 H                     0.104974
  ----------------------------------------
  Sum of atomic charges =    -0.000000

                    Cartesian Multipole Moments
 -----------------------------------------------------------------
    Charge (ESU x 10^10)
                -0.0000
    Dipole Moment (Debye)
         X      -1.3315      Y      -0.2970      Z      -4.6988
       Tot       4.8928
    Quadrupole Moments (Debye-Ang)
        XX    -152.7968     XY       0.1242     YY    -154.7645
        XZ      -6.1553     YZ      -0.4672     ZZ    -167.9313

 Total job time:  95.61s(wall), 4554.17s(cpu)
        *  Thank you very much for using Q-Chem.  Have a nice day.  *
