 Q-Chem 5.0, Q-Chem, Inc., Pleasanton, CA (2017)
 Q-Chem 5.0.1 for Intel X86 EM64T Linux

User input:
--------------------------------------------------------------
$molecule
0  1
O -3.94934 -3.66094 2.70899
C -3.26408 -4.56952 2.26188
C -3.36658 -6.02376 2.66595
C -2.05132 -6.77102 2.94079
C -0.79077 -5.93501 2.95414
O -0.3228 -5.78073 1.68032
C 0.81771 -4.91933 1.59985
C 1.81697 -5.46372 0.58434
O 1.79279 -4.65965 -0.60552
C 2.42123 -3.46151 -0.5125
C 2.24812 -2.60892 -1.74691
C 0.8131 -2.12658 -2.00446
C -0.14622 -2.25419 -0.83822
O 0.11641 -1.99488 0.32726
O -2.05805 -4.03428 1.93361
O -1.43654 -2.26413 -1.27705
O 3.07832 -3.10682 0.45979
C -2.58339 -1.98041 -0.57554
C 2.99315 -1.25694 -1.68894
C 3.23169 -0.73832 -3.10673
C 1.82347 -0.35009 -3.50536
C 1.08324 -0.62054 -2.19112
O 2.0406 -0.34991 -1.19654
H 2.65934 -3.19815 -2.59749
H 0.34988 -2.58607 -2.90674
H 3.95761 -1.3041 -1.13796
H 3.84272 0.18856 -3.01685
H 3.74176 -1.44661 -3.7945
H 1.81356 0.73664 -3.74423
H 1.38953 -0.93048 -4.34821
H 0.14949 -0.01679 -2.14248
O -0.19511 -5.60815 3.97623
C -1.53591 -2.90339 2.60117
C -4.08897 -6.20149 4.01685
C -4.6522 -7.6179 4.1287
C -3.38198 -8.40628 4.35187
C -2.35247 -7.27285 4.37324
O -3.04758 -6.20019 4.95826
H -3.95503 -6.51389 1.85936
H -1.87522 -7.6479 2.27766
H -0.52016 -3.08973 2.99006
H -4.90334 -5.46399 4.18646
H -5.26744 -7.66956 5.05545
H -5.26552 -7.93841 3.25913
H -3.43533 -8.87951 5.35796
H -3.15732 -9.17775 3.58406
H -1.43881 -7.61288 4.90931
H -2.10218 -2.62395 3.51596
H -1.54996 -2.01369 1.95425
H -3.43252 -1.94384 -1.28808
H -2.50031 -0.99154 -0.07706
H -2.81295 -2.78001 0.13477
H 2.85092 -5.49866 0.99984
H 1.56427 -6.51678 0.33606
H 1.38421 -4.8354 2.55394
H 0.53411 -3.919 1.32839
$end

$opt
CONSTRAINT
tors           1           2           3           4    -134.759
tors           3           4           5           6     -84.548
tors           4           5           6           7    +175.796
tors           5           6           7           8    +140.881
tors           6           7           8           9    +106.631
tors           7           8           9          10     +76.099
tors           8           9          10          11    -174.467
tors           9          10          11          12     +66.632
tors          11          12          13          14     +41.777
ENDCONSTRAINT
$end

$rem
JOBTYPE                   OPT
METHOD                    B3LYP
DFT_D                     d3_op
BASIS                     STO-3G
GEOM_OPT_MAX_CYCLES       100
GEOM_OPT_TOL_GRADIENT     300
GEOM_OPT_TOL_DISPLACEMENT 1200
GEOM_OPT_TOL_ENERGY       100
SYMMETRY                  False
THRESH                    12
SCF_CONVERGENCE           8
MAX_SUB_FILE_NUM          128
MEM_STATIC                400
MEM_TOTAL                 4000
$end
--------------------------------------------------------------

   16   -1510.1136917297      2.79E-09 Convergence criterion met
 Total energy in the final basis set = -1510.11369173
   14   -1510.1886458452      6.68E-09 Convergence criterion met
 Total energy in the final basis set = -1510.18864585
   14   -1510.2244154060      6.61E-09 Convergence criterion met
 Total energy in the final basis set = -1510.22441541
   15   -1510.2513945116      1.76E-09 Convergence criterion met
 Total energy in the final basis set = -1510.25139451
   14   -1510.2627822523      6.27E-09 Convergence criterion met
 Total energy in the final basis set = -1510.26278225
   13   -1510.2731130315      7.07E-09 Convergence criterion met
 Total energy in the final basis set = -1510.27311303
   13   -1510.2797908348      6.19E-09 Convergence criterion met
 Total energy in the final basis set = -1510.27979083
   13   -1510.2839348299      3.43E-09 Convergence criterion met
   11   -1510.2932609504      6.97E-09 Convergence criterion met
 Total energy in the final basis set = -1510.29326095
   11   -1510.2932716675      8.48E-09 Convergence criterion met
 Total energy in the final basis set = -1510.29327167
   11   -1510.2933002421      4.62E-09 Convergence criterion met
 Total energy in the final basis set = -1510.29330024
    9   -1510.2933148636      8.92E-09 Convergence criterion met
 Total energy in the final basis set = -1510.29331486
    9   -1510.2933213552      6.16E-09 Convergence criterion met
 Total energy in the final basis set = -1510.29332136
    9   -1510.2933248261      6.15E-09 Convergence criterion met
 Total energy in the final basis set = -1510.29332483

             Standard Nuclear Orientation (Angstroms)
    I     Atom           X                Y                Z
 ----------------------------------------------------------------
    1      O      -3.3221400290    -2.4757411293    -1.5921565989
    2      C      -2.9339990142    -1.5850799204    -0.8065883694
    3      C      -3.7802287689    -0.9330810505     0.3541705036
    4      C      -3.6855081962     0.6523501655     0.4428782607
    5      C      -2.4759962350     1.2806350732    -0.3309731854
    6      O      -1.3385809969     1.2241745451     0.5383363316
    7      C      -0.1297120235     1.7111683154    -0.1663637795
    8      C       0.7515257569     2.5676378202     0.8161030336
    9      O       1.9710259958     1.8294055568     1.2303502263
   10      C       2.9437137209     1.8235926514     0.1794844496
   11      C       4.1291801638     0.9067948409     0.6496771970
   12      C       3.7556408021    -0.6289989892     0.7936029184
   13      C       2.2984407842    -0.9889901103     0.3474021241
   14      O       1.6910804677    -0.5549352992    -0.6626965762
   15      O      -1.6202404263    -1.0167407305    -0.8374209135
   16      O       1.7619353892    -1.8977936837     1.3003577038
   17      O       2.8462783483     2.4680706696    -0.8856180574
   18      C       0.3970325251    -2.3553737153     0.9396300800
   19      C       5.2795107253     0.8423443474    -0.4390773295
   20      C       6.5940024619     0.3149227128     0.2565623385
   21      C       6.2428096359    -1.2073418299     0.4488042460
   22      C       4.8089188007    -1.2768197404    -0.2113289434
   23      O       4.8727647483    -0.2873787222    -1.3079321206
   24      H       4.5002878256     1.2970860898     1.6148876375
   25      H       3.8967144794    -0.9923274446     1.8261993866
   26      H       5.3833745093     1.7685027462    -1.0370887667
   27      H       7.4609885552     0.4464846291    -0.4101598141
   28      H       6.7983440096     0.8294559039     1.2089771767
   29      H       6.9469149291    -1.8575522287    -0.0942940595
   30      H       6.2260743508    -1.5112073843     1.5077891171
   31      H       4.5177902068    -2.2717729141    -0.6010014017
   32      O      -2.4808634676     1.7906552433    -1.4727276413
   33      C      -0.8673265108    -1.4693838901    -2.0344457518
   34      C      -5.3089821058    -1.1032425043    -0.0226702336
   35      C      -6.2155081707    -0.6532090306     1.1899733013
   36      C      -6.1450735036     0.9150224694     1.0668738435
   37      C      -5.1117658562     1.0715019227    -0.1157940694
   38      O      -5.4903862261    -0.0302345541    -1.0307998683
   39      H      -3.5099897064    -1.4087863431     1.3150541448
   40      H      -3.5794900401     0.9492327406     1.5017245911
   41      H      -1.2176835875    -0.9276103369    -2.9355453863
   42      H      -5.5465032085    -2.0905430915    -0.4644707078
   43      H      -7.2445550463    -1.0246437679     1.0628943382
   44      H      -5.8255975699    -1.0206040827     2.1528748964
   45      H      -7.1209383704     1.3388240829     0.7802573280
   46      H      -5.8044966964     1.4035423554     1.9937521870
   47      H      -5.1286345649     2.0411304618    -0.6500927144
   48      H      -0.9907862201    -2.5580733733    -2.1971461654
   49      H       0.1913554687    -1.2175722535    -1.8157273468
   50      H      -0.0440880122    -2.7495432801     1.8735185931
   51      H       0.4530819694    -3.1763228479     0.1954662547
   52      H      -0.2493441073    -1.5487825475     0.5251710182
   53      H       1.0302349654     3.5305498917     0.3379858059
   54      H       0.1905426941     2.7682480639     1.7515975139
   55      H      -0.4476185975     2.3027968059    -1.0508509664
   56      H       0.4670643311     0.8326577470    -0.5106527127
 ----------------------------------------------------------------

    9   -1510.2933253398      3.40E-09 Convergence criterion met
 Total energy in the final basis set = -1510.29332534
 Final energy is   -1510.29332533979
 **  OPTIMIZATION CONVERGED  **

                    Orbital Energies (a.u.)
 --------------------------------------------------------------

 Alpha MOs
 -- Occupied --
-18.949 -18.940 -18.928 -18.919 -18.891 -18.889 -18.884 -18.881
-18.877 -18.865 -10.114 -10.102 -10.099 -10.094 -10.068 -10.065
-10.061 -10.060 -10.057 -10.056 -10.051 -10.046 -10.044 -10.040
-10.040 -10.034 -10.024 -10.022 -10.020 -10.018  -1.022  -1.016
 -1.010  -0.999  -0.974  -0.967  -0.948  -0.939  -0.937  -0.927
 -0.767  -0.762  -0.728  -0.723  -0.712  -0.704  -0.692  -0.669
 -0.657  -0.616  -0.598  -0.580  -0.548  -0.544  -0.539  -0.535
 -0.516  -0.507  -0.481  -0.478  -0.465  -0.457  -0.454  -0.450
 -0.435  -0.433  -0.424  -0.416  -0.414  -0.408  -0.407  -0.402
 -0.395  -0.382  -0.373  -0.368  -0.363  -0.358  -0.355  -0.347
 -0.346  -0.341  -0.334  -0.333  -0.329  -0.328  -0.325  -0.313
 -0.310  -0.307  -0.306  -0.304  -0.298  -0.285  -0.284  -0.275
 -0.271  -0.261  -0.250  -0.246  -0.238  -0.237  -0.232  -0.190
 -0.179  -0.177  -0.167  -0.161  -0.156  -0.153  -0.148  -0.146
 -0.142

          Ground-State Mulliken Net Atomic Charges

     Atom                 Charge (a.u.)
  ----------------------------------------
      1 O                    -0.207369
      2 C                     0.212193
      3 C                    -0.076947
      4 C                    -0.081088
      5 C                     0.214252
      6 O                    -0.178530
      7 C                    -0.069853
      8 C                    -0.052139
      9 O                    -0.178278
     10 C                     0.211200
     11 C                    -0.079008
     12 C                    -0.077799
     13 C                     0.222061
     14 O                    -0.218690
     15 O                    -0.172559
     16 O                    -0.163460
     17 O                    -0.208104
     18 C                    -0.141037
     19 C                     0.024911
     20 C                    -0.143833
     21 C                    -0.143797
     22 C                     0.025801
     23 O                    -0.186228
     24 H                     0.085617
     25 H                     0.089073
     26 H                     0.091083
     27 H                     0.079031
     28 H                     0.073766
     29 H                     0.078937
     30 H                     0.074261
     31 H                     0.082198
     32 O                    -0.218606
     33 C                    -0.140931
     34 C                     0.023560
     35 C                    -0.145308
     36 C                    -0.142632
     37 C                     0.023758
     38 O                    -0.189152
     39 H                     0.083755
     40 H                     0.083133
     41 H                     0.090013
     42 H                     0.090344
     43 H                     0.078314
     44 H                     0.072273
     45 H                     0.078004
     46 H                     0.072535
     47 H                     0.087785
     48 H                     0.088056
     49 H                     0.111384
     50 H                     0.088320
     51 H                     0.081695
     52 H                     0.112741
     53 H                     0.091410
     54 H                     0.092077
     55 H                     0.096956
     56 H                     0.104852
  ----------------------------------------
  Sum of atomic charges =    -0.000000

                    Cartesian Multipole Moments
 -----------------------------------------------------------------
    Charge (ESU x 10^10)
                -0.0000
    Dipole Moment (Debye)
         X       1.5762      Y      -1.0366      Z       4.5887
       Tot       4.9613
    Quadrupole Moments (Debye-Ang)
        XX    -149.2447     XY      -3.9113     YY    -156.7634
        XZ      -5.3445     YZ       2.4786     ZZ    -166.8105

 Total job time:  79.81s(wall), 3694.98s(cpu)
        *  Thank you very much for using Q-Chem.  Have a nice day.  *
