 Q-Chem 5.0, Q-Chem, Inc., Pleasanton, CA (2017)
 Q-Chem 5.0.1 for Intel X86 EM64T Linux

User input:
--------------------------------------------------------------
$molecule
0  1
O -3.322140029 -2.4757411293 -1.5921565989
C -2.9339990142 -1.5850799204 -0.8065883694
C -3.7802287689 -0.9330810505 0.3541705036
C -3.6855081962 0.6523501655 0.4428782607
C -2.475996235 1.2806350732 -0.3309731854
O -1.3385809969 1.2241745451 0.5383363316
C -0.1297120235 1.7111683154 -0.1663637795
C 0.7515257569 2.5676378202 0.8161030336
O 1.9710259958 1.8294055568 1.2303502263
C 2.9437137209 1.8235926514 0.1794844496
C 4.1291801638 0.9067948409 0.649677197
C 3.7556408021 -0.6289989892 0.7936029184
C 2.2984407842 -0.9889901103 0.3474021241
O 1.6910804677 -0.5549352992 -0.6626965762
O -1.6202404263 -1.0167407305 -0.8374209135
O 1.7619353892 -1.8977936837 1.3003577038
O 2.8462783483 2.4680706696 -0.8856180574
C 0.3970325251 -2.3553737153 0.93963008
C 5.2795107253 0.8423443474 -0.4390773295
C 6.5940024619 0.3149227128 0.2565623385
C 6.2428096359 -1.2073418299 0.448804246
C 4.8089188007 -1.2768197404 -0.2113289434
O 4.8727647483 -0.2873787222 -1.3079321206
H 4.5002878256 1.2970860898 1.6148876375
H 3.8967144794 -0.9923274446 1.8261993866
H 5.3833745093 1.7685027462 -1.0370887667
H 7.4609885552 0.4464846291 -0.4101598141
H 6.7983440096 0.8294559039 1.2089771767
H 6.9469149291 -1.8575522287 -0.0942940595
H 6.2260743508 -1.5112073843 1.5077891171
H 4.5177902068 -2.2717729141 -0.6010014017
O -2.4808634676 1.7906552433 -1.4727276413
C -0.8673265108 -1.4693838901 -2.0344457518
C -5.3089821058 -1.1032425043 -0.0226702336
C -6.2155081707 -0.6532090306 1.1899733013
C -6.1450735036 0.9150224694 1.0668738435
C -5.1117658562 1.0715019227 -0.1157940694
O -5.4903862261 -0.0302345541 -1.0307998683
H -3.5099897064 -1.4087863431 1.3150541448
H -3.5794900401 0.9492327406 1.5017245911
H -1.2176835875 -0.9276103369 -2.9355453863
H -5.5465032085 -2.0905430915 -0.4644707078
H -7.2445550463 -1.0246437679 1.0628943382
H -5.8255975699 -1.0206040827 2.1528748964
H -7.1209383704 1.3388240829 0.780257328
H -5.8044966964 1.4035423554 1.993752187
H -5.1286345649 2.0411304618 -0.6500927144
H -0.9907862201 -2.5580733733 -2.1971461654
H 0.1913554687 -1.2175722535 -1.8157273468
H -0.0440880122 -2.7495432801 1.8735185931
H 0.4530819694 -3.1763228479 0.1954662547
H -0.2493441073 -1.5487825475 0.5251710182
H 1.0302349654 3.5305498917 0.3379858059
H 0.1905426941 2.7682480639 1.7515975139
H -0.4476185975 2.3027968059 -1.0508509664
H 0.4670643311 0.832657747 -0.5106527127
$end

$rem
JOBTYPE                   OPT
METHOD                    B3LYP
DFT_D                     d3_op
BASIS                     STO-3G
GEOM_OPT_MAX_CYCLES       100
GEOM_OPT_TOL_GRADIENT     300
GEOM_OPT_TOL_DISPLACEMENT 1200
GEOM_OPT_TOL_ENERGY       100
SYMMETRY                  False
THRESH                    12
SCF_CONVERGENCE           8
MAX_SUB_FILE_NUM          128
MEM_STATIC                400
MEM_TOTAL                 4000
$end
--------------------------------------------------------------

   16   -1510.2933452623      3.80E-09 Convergence criterion met
 Total energy in the final basis set = -1510.29334526
   15   -1510.2879779934      4.83E-09 Convergence criterion met
 Total energy in the final basis set = -1510.28797799
   14   -1510.2917078004      7.54E-09 Convergence criterion met
 Total energy in the final basis set = -1510.29170780
   14   -1510.2499993727      5.74E-09 Convergence criterion met
 Total energy in the final basis set = -1510.24999937
   14   -1510.2916075639      9.09E-09 Convergence criterion met
 Total energy in the final basis set = -1510.29160756
   15   -1510.2894275200      2.69E-09 Convergence criterion met
 Total energy in the final basis set = -1510.28942752
   14   -1510.2908006397      2.32E-09 Convergence criterion met
 Total energy in the final basis set = -1510.29080064
   13   -1510.2935814871      9.42E-09 Convergence criterion met
   11   -1510.3002638134      9.76E-09 Convergence criterion met
 Total energy in the final basis set = -1510.30026381
   11   -1510.3002821629      4.78E-09 Convergence criterion met
 Total energy in the final basis set = -1510.30028216
   11   -1510.3002792023      3.33E-09 Convergence criterion met
 Total energy in the final basis set = -1510.30027920
   11   -1510.3002906417      3.99E-09 Convergence criterion met
 Total energy in the final basis set = -1510.30029064
   11   -1510.3002942473      3.26E-09 Convergence criterion met
 Total energy in the final basis set = -1510.30029425
   11   -1510.3002994780      3.88E-09 Convergence criterion met
 Total energy in the final basis set = -1510.30029948

             Standard Nuclear Orientation (Angstroms)
    I     Atom           X                Y                Z
 ----------------------------------------------------------------
    1      O       3.5884539177    -2.1108987472     2.1315680073
    2      C       3.1030008675    -1.5855259750     1.1090714819
    3      C       3.8521789639    -1.0739582833    -0.1749779345
    4      C       3.3996985190     0.3794679230    -0.6297582321
    5      C       2.3627088123     1.0219886524     0.3538656652
    6      O       1.1034494798     1.1903230603    -0.3311007482
    7      C       0.0776030328     1.7023274133     0.6140986813
    8      C      -0.8914493367     2.6696220815    -0.1492336510
    9      O      -1.9909042246     1.9112474825    -0.7971948230
   10      C      -3.1022407444     1.7967151917     0.1047029707
   11      C      -4.1963140887     0.8895729428    -0.5610327419
   12      C      -3.6924119441    -0.5786330373    -0.8983618114
   13      C      -2.1773593646    -0.8064224927    -0.5640392807
   14      O      -1.6444471894    -0.7694224893     0.5723540472
   15      O       1.7120883842    -1.3512969000     0.8836801254
   16      O      -1.5003627926    -1.0760233723    -1.7827861128
   17      O      -3.1661567802     2.3591147886     1.2184741272
   18      C      -0.0392736670    -1.2289428008    -1.5679518038
   19      C      -5.3569721517     0.5841984772     0.4712950261
   20      C      -6.5925475326    -0.0094934871    -0.3112414624
   21      C      -6.0848941257    -1.4679391633    -0.6199015122
   22      C      -4.6498391595    -1.4358589809     0.0393259647
   23      O      -4.8317694098    -0.5761585851     1.2293311793
   24      H      -4.5658361086     1.3953841866    -1.4719041105
   25      H      -3.8424393251    -0.8157843336    -1.9658324389
   26      H      -5.5744313077     1.4250467974     1.1580628951
   27      H      -7.4862355653    -0.0212873476     0.3326640262
   28      H      -6.8223596517     0.5636380408    -1.2239089595
   29      H      -6.7151756235    -2.2272367722    -0.1301983982
   30      H      -6.0428732277    -1.6856084096    -1.6990611384
   31      H      -4.2424614852    -2.4227600549     0.3328626666
   32      O       2.5673716941     1.4009569845     1.5267155361
   33      C       0.8797284899    -1.7233223279     2.0496429282
   34      C       5.3959593219    -0.8498211891     0.0891402431
   35      C       6.1294787595    -0.7579006535    -1.3049428395
   36      C       5.6757768853     0.6692909987    -1.7916918963
   37      C       4.7919487607     1.1436980151    -0.5701688768
   38      O       5.4593873900     0.5386849575     0.6041920965
   39      H       3.6788115831    -1.8051360097    -0.9863428575
   40      H       2.9675212951     0.3696970755    -1.6454300378
   41      H       1.1334569794    -1.1052908063     2.9344371429
   42      H       5.8311944668    -1.5557184412     0.8231577120
   43      H       7.2215178933    -0.8088026417    -1.1692550853
   44      H       5.8208876971    -1.5613297398    -1.9927727114
   45      H       6.5359615578     1.3435328072    -1.9287161535
   46      H       5.0998585656     0.6358219014    -2.7304957501
   47      H       4.7073944504     2.2405214535    -0.4445275613
   48      H       1.0039900203    -2.7932612032     2.3117782555
   49      H      -0.1617866549    -1.5177257064     1.7225574909
   50      H       0.3842468846    -1.4367732465    -2.5672733067
   51      H       0.1825681031    -2.0774644058    -0.8910652790
   52      H       0.4150974292    -0.3003303103    -1.1393284219
   53      H      -1.3201130410     3.3992196690     0.5708458014
   54      H      -0.3515020089     3.2025593393    -0.9580763374
   55      H       0.5924599637     2.2119258482     1.4560840500
   56      H      -0.5087886116     0.8351239768     0.9990502708
 ----------------------------------------------------------------

    9   -1510.3002998571      9.78E-09 Convergence criterion met
 Total energy in the final basis set = -1510.30029986
 Final energy is   -1510.30029985713
 **  OPTIMIZATION CONVERGED  **

                    Orbital Energies (a.u.)
 --------------------------------------------------------------

 Alpha MOs
 -- Occupied --
-18.937 -18.937 -18.935 -18.933 -18.889 -18.888 -18.882 -18.879
-18.877 -18.874 -10.104 -10.103 -10.103 -10.100 -10.073 -10.062
-10.062 -10.061 -10.059 -10.058 -10.050 -10.041 -10.041 -10.040
-10.039 -10.038 -10.022 -10.022 -10.021 -10.021  -1.019  -1.015
 -1.009  -1.006  -0.971  -0.970  -0.943  -0.938  -0.937  -0.936
 -0.766  -0.764  -0.729  -0.724  -0.712  -0.707  -0.698  -0.657
 -0.655  -0.618  -0.598  -0.581  -0.549  -0.545  -0.539  -0.537
 -0.512  -0.511  -0.486  -0.474  -0.459  -0.458  -0.455  -0.453
 -0.437  -0.432  -0.430  -0.418  -0.416  -0.409  -0.401  -0.398
 -0.391  -0.383  -0.372  -0.367  -0.364  -0.362  -0.355  -0.352
 -0.342  -0.341  -0.338  -0.332  -0.331  -0.327  -0.325  -0.312
 -0.311  -0.307  -0.306  -0.302  -0.292  -0.289  -0.285  -0.275
 -0.273  -0.263  -0.254  -0.245  -0.242  -0.235  -0.234  -0.186
 -0.178  -0.174  -0.171  -0.162  -0.159  -0.153  -0.151  -0.145
 -0.144

          Ground-State Mulliken Net Atomic Charges

     Atom                 Charge (a.u.)
  ----------------------------------------
      1 O                    -0.205709
      2 C                     0.213123
      3 C                    -0.078535
      4 C                    -0.078849
      5 C                     0.216448
      6 O                    -0.174877
      7 C                    -0.064089
      8 C                    -0.053570
      9 O                    -0.174683
     10 C                     0.210776
     11 C                    -0.078181
     12 C                    -0.079261
     13 C                     0.217688
     14 O                    -0.227668
     15 O                    -0.176489
     16 O                    -0.166192
     17 O                    -0.208370
     18 C                    -0.147942
     19 C                     0.024495
     20 C                    -0.144223
     21 C                    -0.143651
     22 C                     0.025498
     23 O                    -0.186530
     24 H                     0.085997
     25 H                     0.087145
     26 H                     0.090691
     27 H                     0.078762
     28 H                     0.073249
     29 H                     0.078368
     30 H                     0.073762
     31 H                     0.083091
     32 O                    -0.211495
     33 C                    -0.140095
     34 C                     0.023902
     35 C                    -0.143724
     36 C                    -0.144116
     37 C                     0.025822
     38 O                    -0.185538
     39 H                     0.083569
     40 H                     0.084720
     41 H                     0.089102
     42 H                     0.091171
     43 H                     0.078779
     44 H                     0.072790
     45 H                     0.078569
     46 H                     0.072936
     47 H                     0.083713
     48 H                     0.084241
     49 H                     0.112306
     50 H                     0.079185
     51 H                     0.083733
     52 H                     0.113758
     53 H                     0.099446
     54 H                     0.091895
     55 H                     0.100183
     56 H                     0.104875
  ----------------------------------------
  Sum of atomic charges =     0.000000

                    Cartesian Multipole Moments
 -----------------------------------------------------------------
    Charge (ESU x 10^10)
                -0.0000
    Dipole Moment (Debye)
         X      -1.3409      Y      -0.3952      Z      -4.6767
       Tot       4.8811
    Quadrupole Moments (Debye-Ang)
        XX    -153.0509     XY       0.1226     YY    -154.8366
        XZ      -6.1995     YZ      -0.8352     ZZ    -167.8062

 Total job time:  101.03s(wall), 4818.57s(cpu)
        *  Thank you very much for using Q-Chem.  Have a nice day.  *
