 Q-Chem 5.0, Q-Chem, Inc., Pleasanton, CA (2017)
 Q-Chem 5.0.1 for Intel X86 EM64T Linux

User input:
--------------------------------------------------------------
$molecule
0  1
O -3.3576254121 -2.5069383122 -1.5310655442
C -2.972325703 -1.6102385568 -0.7514859663
C -3.8310630569 -0.9170457758 0.3735917204
C -3.6711606122 0.6639812955 0.4496269268
C -2.4564218654 1.2256312672 -0.3674400051
O -1.3401160748 1.2933605976 0.5288455436
C -0.1235009459 1.7219703388 -0.1992819407
C 0.7707475105 2.6100328028 0.7419761669
O 1.989332333 1.8825442435 1.1771134562
C 2.9537497576 1.8221192855 0.1208286055
C 4.1354806178 0.9179615036 0.6251937595
C 3.766804128 -0.6159501422 0.7994999896
C 2.3088920232 -0.9940573695 0.3720876287
O 1.6808497569 -0.5707365451 -0.6298358908
O -1.643947294 -1.0721449603 -0.7522906004
O 1.7981741439 -1.9062838847 1.3361490622
O 2.8547163137 2.4198950975 -0.9709535563
C 0.4322155292 -2.3798858998 1.001715597
C 5.2951111337 0.8327647781 -0.4525179047
C 6.6040385082 0.3148628432 0.2605468186
C 6.2522084665 -1.2047890889 0.4705685578
C 4.8207025897 -1.2818079557 -0.1935480059
O 4.8910257734 -0.3102025834 -1.305293495
H 4.4957849756 1.3312355707 1.5847819659
H 3.9142573 -0.9574503382 1.8386756018
H 5.4058897021 1.7481204584 -1.0657100123
H 7.4763644602 0.4381513358 -0.4007639489
H 6.8006134136 0.8418939163 1.2078007603
H 6.9579412557 -1.8617746206 -0.0621677838
H 6.2318191689 -1.4954388007 1.5331588263
H 4.5285115694 -2.2822876305 -0.5680279615
O -2.4489441606 1.6225368293 -1.5532468085
C -0.8842461352 -1.5292346366 -1.9435197444
C -5.3573860458 -1.0349899321 -0.0292913739
C -6.2606544366 -0.5688774665 1.1795914778
C -6.1236933417 0.9965375068 1.0837194341
C -5.0866508804 1.1324226034 -0.0988230073
O -5.4970935691 0.0533850924 -1.0265739923
H -3.6032680522 -1.3914941002 1.3461932625
H -3.5324474856 0.9723244145 1.5009103216
H -1.2384288288 -1.0002949597 -2.8507087664
H -5.620483609 -2.0104108899 -0.4829108462
H -7.3023668292 -0.8952764018 1.0328687726
H -5.8991261891 -0.968208496 2.1408242556
H -7.0813104921 1.4665621778 0.8081047172
H -5.7601278474 1.4534699989 2.0179499554
H -5.0764904722 2.1081573575 -0.6219193369
H -0.9963326157 -2.6208170246 -2.0950577196
H 0.171706161 -1.2646726591 -1.7260220129
H 0.0145373886 -2.780296771 1.9437262183
H 0.4824025798 -3.1989335199 0.2550953793
H -0.2315046354 -1.580096844 0.6027004275
H 1.0510147286 3.5519230962 0.2245430755
H 0.217828619 2.850501791 1.6728257975
H -0.4267238857 2.2746674601 -1.1134237787
H 0.4604568336 0.8195708223 -0.5021746198
$end

$rem
JOBTYPE                   OPT
METHOD                    B3LYP
DFT_D                     d3_op
BASIS                     STO-3G
GEOM_OPT_MAX_CYCLES       100
GEOM_OPT_TOL_GRADIENT     300
GEOM_OPT_TOL_DISPLACEMENT 1200
GEOM_OPT_TOL_ENERGY       100
SYMMETRY                  False
THRESH                    12
SCF_CONVERGENCE           8
MAX_SUB_FILE_NUM          128
MEM_STATIC                400
MEM_TOTAL                 4000
$end
--------------------------------------------------------------

   16   -1510.2939280614      4.27E-09 Convergence criterion met
 Total energy in the final basis set = -1510.29392806
   15   -1510.2881589734      6.12E-09 Convergence criterion met
 Total energy in the final basis set = -1510.28815897
   14   -1510.2908021764      9.23E-09 Convergence criterion met
 Total energy in the final basis set = -1510.29080218
   14   -1510.2801297025      8.34E-09 Convergence criterion met
 Total energy in the final basis set = -1510.28012970
   14   -1510.2837609287      8.88E-09 Convergence criterion met
 Total energy in the final basis set = -1510.28376093
   14   -1510.2898947360      4.60E-09 Convergence criterion met
 Total energy in the final basis set = -1510.28989474
   15   -1510.2917623545      2.24E-09 Convergence criterion met
 Total energy in the final basis set = -1510.29176235
   14   -1510.2950301133      7.11E-09 Convergence criterion met
   12   -1510.3002869703      3.23E-09 Convergence criterion met
 Total energy in the final basis set = -1510.30028697
   11   -1510.3002727961      5.97E-09 Convergence criterion met
 Total energy in the final basis set = -1510.30027280
   11   -1510.3002927066      4.98E-09 Convergence criterion met
 Total energy in the final basis set = -1510.30029271
   11   -1510.3002837769      6.80E-09 Convergence criterion met
 Total energy in the final basis set = -1510.30028378
   10   -1510.3002936678      5.76E-09 Convergence criterion met
 Total energy in the final basis set = -1510.30029367
    9   -1510.3002949213      6.36E-09 Convergence criterion met
 Total energy in the final basis set = -1510.30029492

             Standard Nuclear Orientation (Angstroms)
    I     Atom           X                Y                Z
 ----------------------------------------------------------------
    1      O       3.5904361117    -2.1180297227     2.1165051788
    2      C       3.1036808690    -1.5902446068     1.0958824358
    3      C       3.8508827786    -1.0763998916    -0.1883859908
    4      C       3.3978657058     0.3780628483    -0.6393675438
    5      C       2.3642647250     1.0192295439     0.3487738306
    6      O       1.1030121056     1.1903885265    -0.3318466071
    7      C       0.0805568475     1.7009695318     0.6178569655
    8      C      -0.8874405444     2.6744432685    -0.1391352446
    9      O      -1.9920586101     1.9229459906    -0.7863397208
   10      C      -3.0971994741     1.7999970897     0.1220524608
   11      C      -4.1959033049     0.9000414386    -0.5458812641
   12      C      -3.6957519142    -0.5665227387    -0.8955789600
   13      C      -2.1804960252    -0.7993977206    -0.5659664196
   14      O      -1.6447280926    -0.7670835931     0.5692336691
   15      O       1.7125223355    -1.3548563078     0.8730656908
   16      O      -1.5067744413    -1.0663317311    -1.7870811028
   17      O      -3.1529085400     2.3506398336     1.2420873995
   18      C      -0.0456678054    -1.2233798733    -1.5753389933
   19      C      -5.3534483301     0.5892570035     0.4882823162
   20      C      -6.5930278357     0.0040451264    -0.2943103524
   21      C      -6.0894083670    -1.4529939227    -0.6159660808
   22      C      -4.6520572623    -1.4289106559     0.0384661474
   23      O      -4.8280463963    -0.5779589946     1.2356518033
   24      H      -4.5677614560     1.4130141940    -1.4517697631
   25      H      -3.8486376928    -0.7956557501    -1.9644075970
   26      H      -5.5667411763     1.4252715972     1.1822136300
   27      H      -7.4843797770    -0.0109185488     0.3527652639
   28      H      -6.8251386256     0.5846086616    -1.2017056504
   29      H      -6.7195253392    -2.2147780253    -0.1299337624
   30      H      -6.0516777279    -1.6623556850    -1.6969359107
   31      H      -4.2457906664    -2.4188839016     0.3230779557
   32      O       2.5729321189     1.3950898686     1.5219359514
   33      C       0.8817906840    -1.7284175419     2.0396529243
   34      C       5.3952776537    -0.8531865208     0.0731346572
   35      C       6.1259969996    -0.7595566797    -1.3223238542
   36      C       5.6713753520     0.6682118823    -1.8063639236
   37      C       4.7906596194     1.1414382400    -0.5821326652
   38      O       5.4604039951     0.5345712182     0.5899796617
   39      H       3.6758472632    -1.8059207882    -1.0008819138
   40      H       2.9627256145     0.3704615987    -1.6537798424
   41      H       1.1376527096    -1.1125269240     2.9253292897
   42      H       5.8317551971    -1.5602837439     0.8052507489
   43      H       7.2183065725    -0.8106243257    -1.1888652705
   44      H       5.8160222539    -1.5621082282    -2.0105532541
   45      H       6.5313404224     1.3424301398    -1.9448795666
   46      H       5.0930607050     0.6358392874    -2.7437342271
   47      H       4.7069889844     2.2381399615    -0.4548754644
   48      H       1.0052999381    -2.7990585309     2.2992870641
   49      H      -0.1600402605    -1.5210329709     1.7147603066
   50      H       0.3757635151    -1.4277993196    -2.5762430363
   51      H       0.1754086148    -2.0753541263    -0.9025215787
   52      H       0.4113924673    -0.2975942566    -1.1434543042
   53      H      -1.3102526175     3.4038435691     0.5845971227
   54      H      -0.3480461582     3.2076684398    -0.9481553145
   55      H       0.5987188163     2.2053707465     1.4609256640
   56      H      -0.5072329762     0.8335986597     1.0002226663
 ----------------------------------------------------------------

    9   -1510.3002949638      2.19E-09 Convergence criterion met
 Total energy in the final basis set = -1510.30029496
 Final energy is   -1510.30029496381
 **  OPTIMIZATION CONVERGED  **

                    Orbital Energies (a.u.)
 --------------------------------------------------------------

 Alpha MOs
 -- Occupied --
-18.937 -18.937 -18.935 -18.933 -18.889 -18.888 -18.882 -18.879
-18.877 -18.874 -10.104 -10.103 -10.103 -10.100 -10.073 -10.062
-10.062 -10.061 -10.059 -10.058 -10.050 -10.042 -10.041 -10.040
-10.039 -10.038 -10.022 -10.022 -10.021 -10.021  -1.019  -1.015
 -1.009  -1.006  -0.971  -0.970  -0.943  -0.938  -0.937  -0.936
 -0.766  -0.764  -0.729  -0.724  -0.712  -0.707  -0.698  -0.657
 -0.655  -0.618  -0.598  -0.581  -0.549  -0.545  -0.539  -0.537
 -0.512  -0.511  -0.486  -0.474  -0.459  -0.458  -0.455  -0.453
 -0.437  -0.432  -0.430  -0.418  -0.416  -0.409  -0.401  -0.398
 -0.391  -0.383  -0.372  -0.368  -0.364  -0.362  -0.355  -0.352
 -0.342  -0.341  -0.338  -0.332  -0.331  -0.327  -0.325  -0.312
 -0.311  -0.307  -0.306  -0.302  -0.292  -0.289  -0.285  -0.275
 -0.273  -0.263  -0.254  -0.245  -0.242  -0.235  -0.234  -0.186
 -0.178  -0.174  -0.171  -0.162  -0.159  -0.153  -0.151  -0.145
 -0.144

          Ground-State Mulliken Net Atomic Charges

     Atom                 Charge (a.u.)
  ----------------------------------------
      1 O                    -0.205694
      2 C                     0.213127
      3 C                    -0.078538
      4 C                    -0.078830
      5 C                     0.216428
      6 O                    -0.174890
      7 C                    -0.064169
      8 C                    -0.053461
      9 O                    -0.174755
     10 C                     0.210729
     11 C                    -0.078188
     12 C                    -0.079245
     13 C                     0.217649
     14 O                    -0.227606
     15 O                    -0.176503
     16 O                    -0.166162
     17 O                    -0.208343
     18 C                    -0.147903
     19 C                     0.024495
     20 C                    -0.144215
     21 C                    -0.143653
     22 C                     0.025504
     23 O                    -0.186499
     24 H                     0.085978
     25 H                     0.087157
     26 H                     0.090664
     27 H                     0.078756
     28 H                     0.073247
     29 H                     0.078377
     30 H                     0.073767
     31 H                     0.083069
     32 O                    -0.211502
     33 C                    -0.140068
     34 C                     0.023899
     35 C                    -0.143715
     36 C                    -0.144125
     37 C                     0.025819
     38 O                    -0.185520
     39 H                     0.083571
     40 H                     0.084718
     41 H                     0.089115
     42 H                     0.091169
     43 H                     0.078778
     44 H                     0.072789
     45 H                     0.078568
     46 H                     0.072936
     47 H                     0.083702
     48 H                     0.084247
     49 H                     0.112284
     50 H                     0.079216
     51 H                     0.083716
     52 H                     0.113778
     53 H                     0.099244
     54 H                     0.091941
     55 H                     0.100228
     56 H                     0.104915
  ----------------------------------------
  Sum of atomic charges =     0.000000

                    Cartesian Multipole Moments
 -----------------------------------------------------------------
    Charge (ESU x 10^10)
                -0.0000
    Dipole Moment (Debye)
         X      -1.3541      Y      -0.3748      Z      -4.6770
       Tot       4.8835
    Quadrupole Moments (Debye-Ang)
        XX    -153.0400     XY       0.0647     YY    -154.8064
        XZ      -6.2397     YZ      -0.7762     ZZ    -167.7867

 Total job time:  95.93s(wall), 4571.22s(cpu)
        *  Thank you very much for using Q-Chem.  Have a nice day.  *
