 Q-Chem 5.0, Q-Chem, Inc., Pleasanton, CA (2017)
 Q-Chem 5.0.1 for Intel X86 EM64T Linux

User input:
--------------------------------------------------------------
$molecule
0  1
O -3.94934 -3.66094 2.70899
C -3.26408 -4.56952 2.26188
C -3.36658 -6.02376 2.66595
C -2.05019 -6.77953 2.91047
C -0.78452 -5.95129 2.89714
O -0.25 -5.94091 1.64031
C 0.90087 -5.09747 1.52478
C 1.89858 -5.70136 0.54191
O 1.90644 -4.94113 -0.67664
C 2.55638 -3.75232 -0.61807
C 2.41692 -2.94246 -1.88509
C 1.00403 -2.40652 -2.15855
C 0.04454 -2.44436 -0.98609
O 0.32806 -2.16976 0.17096
O -2.06186 -4.06949 1.86742
O -1.24437 -2.41173 -1.42978
O 3.2193 -3.38153 0.34426
C -2.3981 -2.11771 -0.74705
C 3.22016 -1.6224 -1.87761
C 3.47889 -1.16776 -3.3137
C 2.08829 -0.73403 -3.72644
C 1.33976 -0.922 -2.40259
O 2.30971 -0.65648 -1.4192
H 2.80408 -3.57869 -2.71282
H 0.51785 -2.87811 -3.04239
H 4.18283 -1.69101 -1.32569
H 4.12956 -0.26548 -3.25805
H 3.95688 -1.92223 -3.97486
H 2.12526 0.3422 -4.0067
H 1.62767 -1.32679 -4.5462
H 0.43365 -0.27616 -2.37648
O -0.22304 -5.54238 3.9092
C -1.50154 -2.91428 2.44533
C -4.05548 -6.19524 4.03568
C -4.6248 -7.60797 4.16434
C -3.35453 -8.40387 4.35852
C -2.31794 -7.27684 4.35081
O -2.99127 -6.19884 4.95097
H -3.98227 -6.50915 1.87704
H -1.89845 -7.66277 2.24934
H -0.49414 -3.12001 2.8473
H -4.86091 -5.45265 4.22472
H -5.21783 -7.65423 5.10573
H -5.26086 -7.92619 3.31041
H -3.38549 -8.87322 5.36737
H -3.15417 -9.17953 3.58822
H -1.39174 -7.6198 4.86328
H -2.0656 -2.53346 3.32348
H -1.45395 -2.08499 1.72733
H -3.23018 -2.05088 -1.47731
H -2.30887 -1.1379 -0.23276
H -2.65936 -2.93369 -0.06468
H 2.92971 -5.73993 0.96556
H 1.62968 -6.75887 0.33243
H 1.4779 -5.06169 2.4765
H 0.64988 -4.07337 1.29074
$end

$opt
CONSTRAINT
tors           1           2           3           4    -136.079
tors           3           4           5           6     -92.282
tors           4           5           6           7    +175.796
tors           5           6           7           8    +145.404
tors           6           7           8           9    +107.630
tors           7           8           9          10     +75.820
tors           8           9          10          11    -174.467
tors           9          10          11          12     +68.439
tors          11          12          13          14     +40.650
ENDCONSTRAINT
$end

$rem
JOBTYPE                   OPT
METHOD                    B3LYP
DFT_D                     d3_op
BASIS                     STO-3G
GEOM_OPT_MAX_CYCLES       100
GEOM_OPT_TOL_GRADIENT     300
GEOM_OPT_TOL_DISPLACEMENT 1200
GEOM_OPT_TOL_ENERGY       100
SYMMETRY                  False
THRESH                    12
SCF_CONVERGENCE           8
MAX_SUB_FILE_NUM          128
MEM_STATIC                400
MEM_TOTAL                 4000
$end
--------------------------------------------------------------

   16   -1510.1228957083      2.24E-09 Convergence criterion met
 Total energy in the final basis set = -1510.12289571
   14   -1510.1959299621      6.41E-09 Convergence criterion met
 Total energy in the final basis set = -1510.19592996
   14   -1510.2294607480      9.52E-09 Convergence criterion met
 Total energy in the final basis set = -1510.22946075
   15   -1510.2589166842      1.71E-09 Convergence criterion met
 Total energy in the final basis set = -1510.25891668
   14   -1510.2696632361      3.60E-09 Convergence criterion met
 Total energy in the final basis set = -1510.26966324
   13   -1510.2781410837      7.62E-09 Convergence criterion met
 Total energy in the final basis set = -1510.27814108
   13   -1510.2830236356      4.95E-09 Convergence criterion met
 Total energy in the final basis set = -1510.28302364
   13   -1510.2861545440      6.11E-09 Convergence criterion met
   11   -1510.2939146602      4.10E-09 Convergence criterion met
 Total energy in the final basis set = -1510.29391466
    9   -1510.2939212593      6.89E-09 Convergence criterion met
 Total energy in the final basis set = -1510.29392126
   11   -1510.2939264720      1.67E-09 Convergence criterion met
 Total energy in the final basis set = -1510.29392647
    9   -1510.2939295154      7.20E-09 Convergence criterion met
 Total energy in the final basis set = -1510.29392952
    9   -1510.2939313057      4.07E-09 Convergence criterion met
 Total energy in the final basis set = -1510.29393131
    9   -1510.2939325794      4.96E-09 Convergence criterion met
 Total energy in the final basis set = -1510.29393258

             Standard Nuclear Orientation (Angstroms)
    I     Atom           X                Y                Z
 ----------------------------------------------------------------
    1      O      -3.3576254121    -2.5069383122    -1.5310655442
    2      C      -2.9723257030    -1.6102385568    -0.7514859663
    3      C      -3.8310630569    -0.9170457758     0.3735917204
    4      C      -3.6711606122     0.6639812955     0.4496269268
    5      C      -2.4564218654     1.2256312672    -0.3674400051
    6      O      -1.3401160748     1.2933605976     0.5288455436
    7      C      -0.1235009459     1.7219703388    -0.1992819407
    8      C       0.7707475105     2.6100328028     0.7419761669
    9      O       1.9893323330     1.8825442435     1.1771134562
   10      C       2.9537497576     1.8221192855     0.1208286055
   11      C       4.1354806178     0.9179615036     0.6251937595
   12      C       3.7668041280    -0.6159501422     0.7994999896
   13      C       2.3088920232    -0.9940573695     0.3720876287
   14      O       1.6808497569    -0.5707365451    -0.6298358908
   15      O      -1.6439472940    -1.0721449603    -0.7522906004
   16      O       1.7981741439    -1.9062838847     1.3361490622
   17      O       2.8547163137     2.4198950975    -0.9709535563
   18      C       0.4322155292    -2.3798858998     1.0017155970
   19      C       5.2951111337     0.8327647781    -0.4525179047
   20      C       6.6040385082     0.3148628432     0.2605468186
   21      C       6.2522084665    -1.2047890889     0.4705685578
   22      C       4.8207025897    -1.2818079557    -0.1935480059
   23      O       4.8910257734    -0.3102025834    -1.3052934950
   24      H       4.4957849756     1.3312355707     1.5847819659
   25      H       3.9142573000    -0.9574503382     1.8386756018
   26      H       5.4058897021     1.7481204584    -1.0657100123
   27      H       7.4763644602     0.4381513358    -0.4007639489
   28      H       6.8006134136     0.8418939163     1.2078007603
   29      H       6.9579412557    -1.8617746206    -0.0621677838
   30      H       6.2318191689    -1.4954388007     1.5331588263
   31      H       4.5285115694    -2.2822876305    -0.5680279615
   32      O      -2.4489441606     1.6225368293    -1.5532468085
   33      C      -0.8842461352    -1.5292346366    -1.9435197444
   34      C      -5.3573860458    -1.0349899321    -0.0292913739
   35      C      -6.2606544366    -0.5688774665     1.1795914778
   36      C      -6.1236933417     0.9965375068     1.0837194341
   37      C      -5.0866508804     1.1324226034    -0.0988230073
   38      O      -5.4970935691     0.0533850924    -1.0265739923
   39      H      -3.6032680522    -1.3914941002     1.3461932625
   40      H      -3.5324474856     0.9723244145     1.5009103216
   41      H      -1.2384288288    -1.0002949597    -2.8507087664
   42      H      -5.6204836090    -2.0104108899    -0.4829108462
   43      H      -7.3023668292    -0.8952764018     1.0328687726
   44      H      -5.8991261891    -0.9682084960     2.1408242556
   45      H      -7.0813104921     1.4665621778     0.8081047172
   46      H      -5.7601278474     1.4534699989     2.0179499554
   47      H      -5.0764904722     2.1081573575    -0.6219193369
   48      H      -0.9963326157    -2.6208170246    -2.0950577196
   49      H       0.1717061610    -1.2646726591    -1.7260220129
   50      H       0.0145373886    -2.7802967710     1.9437262183
   51      H       0.4824025798    -3.1989335199     0.2550953793
   52      H      -0.2315046354    -1.5800968440     0.6027004275
   53      H       1.0510147286     3.5519230962     0.2245430755
   54      H       0.2178286190     2.8505017910     1.6728257975
   55      H      -0.4267238857     2.2746674601    -1.1134237787
   56      H       0.4604568336     0.8195708223    -0.5021746198
 ----------------------------------------------------------------

    9   -1510.2939326241      4.19E-09 Convergence criterion met
 Total energy in the final basis set = -1510.29393262
 Final energy is   -1510.29393262409
 **  OPTIMIZATION CONVERGED  **

                    Orbital Energies (a.u.)
 --------------------------------------------------------------

 Alpha MOs
 -- Occupied --
-18.950 -18.940 -18.928 -18.918 -18.892 -18.891 -18.884 -18.881
-18.877 -18.862 -10.115 -10.103 -10.099 -10.092 -10.068 -10.066
-10.062 -10.060 -10.057 -10.056 -10.050 -10.047 -10.044 -10.040
-10.039 -10.033 -10.024 -10.022 -10.019 -10.018  -1.023  -1.016
 -1.010  -0.998  -0.974  -0.967  -0.949  -0.940  -0.937  -0.925
 -0.767  -0.761  -0.728  -0.722  -0.713  -0.704  -0.692  -0.670
 -0.656  -0.616  -0.598  -0.579  -0.548  -0.544  -0.539  -0.535
 -0.517  -0.507  -0.481  -0.478  -0.465  -0.457  -0.454  -0.450
 -0.435  -0.433  -0.424  -0.416  -0.414  -0.409  -0.407  -0.402
 -0.394  -0.382  -0.374  -0.367  -0.363  -0.358  -0.355  -0.348
 -0.346  -0.340  -0.334  -0.333  -0.329  -0.327  -0.325  -0.313
 -0.310  -0.307  -0.306  -0.305  -0.298  -0.285  -0.284  -0.275
 -0.271  -0.262  -0.250  -0.247  -0.238  -0.237  -0.232  -0.191
 -0.179  -0.176  -0.168  -0.161  -0.157  -0.153  -0.148  -0.144
 -0.142

          Ground-State Mulliken Net Atomic Charges

     Atom                 Charge (a.u.)
  ----------------------------------------
      1 O                    -0.206513
      2 C                     0.212868
      3 C                    -0.077509
      4 C                    -0.081189
      5 C                     0.214164
      6 O                    -0.179385
      7 C                    -0.069379
      8 C                    -0.051942
      9 O                    -0.178340
     10 C                     0.211332
     11 C                    -0.079027
     12 C                    -0.077878
     13 C                     0.222235
     14 O                    -0.217900
     15 O                    -0.173125
     16 O                    -0.163435
     17 O                    -0.207937
     18 C                    -0.140238
     19 C                     0.025011
     20 C                    -0.143934
     21 C                    -0.143708
     22 C                     0.025856
     23 O                    -0.186119
     24 H                     0.085714
     25 H                     0.089179
     26 H                     0.090936
     27 H                     0.079081
     28 H                     0.073818
     29 H                     0.078989
     30 H                     0.074300
     31 H                     0.082286
     32 O                    -0.220214
     33 C                    -0.141340
     34 C                     0.023649
     35 C                    -0.145041
     36 C                    -0.142959
     37 C                     0.024294
     38 O                    -0.188680
     39 H                     0.083537
     40 H                     0.083400
     41 H                     0.090835
     42 H                     0.090272
     43 H                     0.078236
     44 H                     0.072243
     45 H                     0.077940
     46 H                     0.072625
     47 H                     0.086878
     48 H                     0.087282
     49 H                     0.111507
     50 H                     0.088957
     51 H                     0.082370
     52 H                     0.111962
     53 H                     0.091226
     54 H                     0.092415
     55 H                     0.095964
     56 H                     0.104433
  ----------------------------------------
  Sum of atomic charges =     0.000000

                    Cartesian Multipole Moments
 -----------------------------------------------------------------
    Charge (ESU x 10^10)
                 0.0000
    Dipole Moment (Debye)
         X       1.6175      Y      -0.9621      Z       4.6630
       Tot       5.0285
    Quadrupole Moments (Debye-Ang)
        XX    -149.0960     XY      -3.9321     YY    -156.0641
        XZ      -5.2814     YZ       2.1063     ZZ    -167.2639

 Total job time:  75.98s(wall), 3619.89s(cpu)
        *  Thank you very much for using Q-Chem.  Have a nice day.  *
