 Q-Chem 5.0, Q-Chem, Inc., Pleasanton, CA (2017)
 Q-Chem 5.0.1 for Intel X86 EM64T Linux

User input:
--------------------------------------------------------------
$molecule
0  1
O -3.94934 -3.66094 2.70899
C -3.26408 -4.56952 2.26188
C -3.36658 -6.02376 2.66595
C -2.05019 -6.77953 2.91047
C -0.78452 -5.95129 2.89714
O -0.25 -5.94091 1.64031
C 0.94916 -5.16494 1.54476
C 1.90933 -5.80212 0.54566
O 1.93311 -5.03457 -0.66809
C 2.63152 -3.87352 -0.6102
C 2.50952 -3.05008 -1.87025
C 1.08587 -2.57784 -2.19963
C 0.07803 -2.68127 -1.07257
O 0.3047 -2.44362 0.10502
O -2.06414 -4.0612 1.87049
O -1.13363 -3.08648 -1.54523
O 3.27904 -3.51114 0.36578
C -2.26765 -3.49279 -0.90103
C 3.2601 -1.70359 -1.81509
C 3.54388 -1.21102 -3.23386
C 2.15248 -0.81144 -3.67609
C 1.36915 -1.07213 -2.38525
O 2.29474 -0.78989 -1.36386
H 2.94144 -3.66939 -2.68835
H 0.66286 -3.01671 -3.1319
H 4.20694 -1.74655 -1.23407
H 4.16613 -0.2914 -3.14762
H 4.05981 -1.94282 -3.89204
H 2.15804 0.27659 -3.9097
H 1.74239 -1.38319 -4.53651
H 0.43635 -0.46474 -2.37452
O -0.26682 -5.46312 3.89766
C -1.54623 -2.84014 2.33692
C -4.05229 -6.19553 4.03767
C -4.61903 -7.60914 4.17016
C -3.34713 -8.4037 4.3606
C -2.31261 -7.27485 4.35108
O -2.9864 -6.19705 4.95116
H -3.98359 -6.50989 1.87857
H -1.89762 -7.6633 2.25023
H -0.53624 -2.98297 2.7584
H -4.85817 -5.45387 4.22816
H -5.20721 -7.65413 5.11467
H -5.25899 -7.93008 3.32025
H -3.37496 -8.87589 5.36813
H -3.14711 -9.17704 3.58773
H -1.38304 -7.61399 4.86028
H -2.12704 -2.39271 3.17091
H -1.52471 -2.08094 1.53848
H -3.04782 -3.69321 -1.66348
H -2.65655 -2.69471 -0.24246
H -2.06843 -4.45748 -0.39993
H 2.94925 -5.8696 0.9469
H 1.60824 -6.85207 0.34155
H 1.53447 -5.32202 2.48103
H 0.8397 -4.08529 1.52769
$end

$opt
CONSTRAINT
tors           1           2           3           4    -136.079
tors           3           4           5           6     -92.282
tors           4           5           6           7    +179.512
tors           5           6           7           8    +145.404
tors           6           7           8           9    +105.950
tors           7           8           9          10     +75.820
tors           8           9          10          11    -174.467
tors           9          10          11          12     +62.353
tors          11          12          13          14     +38.792
ENDCONSTRAINT
$end

$rem
JOBTYPE                   OPT
METHOD                    B3LYP
DFT_D                     d3_op
BASIS                     STO-3G
GEOM_OPT_MAX_CYCLES       100
GEOM_OPT_TOL_GRADIENT     300
GEOM_OPT_TOL_DISPLACEMENT 1200
GEOM_OPT_TOL_ENERGY       100
SYMMETRY                  False
THRESH                    12
SCF_CONVERGENCE           8
MAX_SUB_FILE_NUM          128
MEM_STATIC                400
MEM_TOTAL                 4000
$end
--------------------------------------------------------------

   16   -1510.1156499004      2.08E-09 Convergence criterion met
 Total energy in the final basis set = -1510.11564990
   14   -1510.1862215064      5.94E-09 Convergence criterion met
 Total energy in the final basis set = -1510.18622151
   14   -1510.2306983017      7.83E-09 Convergence criterion met
 Total energy in the final basis set = -1510.23069830
   14   -1510.2568863812      5.20E-09 Convergence criterion met
 Total energy in the final basis set = -1510.25688638
   14   -1510.2713205638      4.45E-09 Convergence criterion met
 Total energy in the final basis set = -1510.27132056
   13   -1510.2793302435      3.85E-09 Convergence criterion met
 Total energy in the final basis set = -1510.27933024
   12   -1510.2842393962      9.54E-09 Convergence criterion met
 Total energy in the final basis set = -1510.28423940
   13   -1510.2870763238      5.28E-09 Convergence criterion met
   11   -1510.2939158375      6.43E-09 Convergence criterion met
 Total energy in the final basis set = -1510.29391584
   11   -1510.2939488802      5.92E-09 Convergence criterion met
 Total energy in the final basis set = -1510.29394888
   11   -1510.2939728271      4.33E-09 Convergence criterion met
 Total energy in the final basis set = -1510.29397283
    9   -1510.2939849792      8.34E-09 Convergence criterion met
 Total energy in the final basis set = -1510.29398498
    9   -1510.2939909234      4.75E-09 Convergence criterion met
 Total energy in the final basis set = -1510.29399092
    9   -1510.2939934203      6.96E-09 Convergence criterion met
 Total energy in the final basis set = -1510.29399342

             Standard Nuclear Orientation (Angstroms)
    I     Atom           X                Y                Z
 ----------------------------------------------------------------
    1      O       3.4402353732     2.4449504387    -1.5305632645
    2      C       3.0322591907     1.5661457563    -0.7424181488
    3      C       3.8708503454     0.8481074424     0.3821193842
    4      C       3.6530836749    -0.7253494353     0.4644378389
    5      C       2.4270007582    -1.2481325526    -0.3601014385
    6      O       1.2979469041    -1.2729339328     0.5224263156
    7      C       0.0947450428    -1.7490075528    -0.1992080662
    8      C      -0.8033393510    -2.5877582539     0.7818070899
    9      O      -2.0117966534    -1.8297234075     1.1922869060
   10      C      -2.9770107585    -1.8061774113     0.1347970794
   11      C      -4.1525158083    -0.8718922907     0.5941902237
   12      C      -3.7441717978     0.6392107568     0.8480184007
   13      C      -2.2795995397     1.0008246632     0.4236068483
   14      O      -1.6625645983     0.5906142543    -0.5902130824
   15      O       1.6875680444     1.0709083170    -0.7265359442
   16      O      -1.7508569154     1.8819221882     1.4067381005
   17      O      -2.8823697791    -2.4510251392    -0.9304754515
   18      C      -0.3774363375     2.3360643196     1.0777922218
   19      C      -5.2606113437    -0.7124914084    -0.5284121366
   20      C      -6.5932784823    -0.2271220338     0.1612462681
   21      C      -6.2243606993     1.2631389772     0.5072752428
   22      C      -4.7768811558     1.3760562947    -0.1174159097
   23      O      -4.8203981404     0.4792333979    -1.2924368889
   24      H      -4.5798569055    -1.3015714207     1.5190911471
   25      H      -3.8803969424     0.9352330793     1.9024795837
   26      H      -5.3503089099    -1.5890873452    -1.1991915807
   27      H      -7.4335028058    -0.2784833407    -0.5495136020
   28      H      -6.8464392509    -0.8233165739     1.0524548884
   29      H      -6.9103513490     1.9752961699     0.0219488079
   30      H      -6.2211772057     1.4584030470     1.5915906482
   31      H      -4.4731641851     2.3978305380    -0.4179435171
   32      O       2.4198961559    -1.6589685067    -1.5412358747
   33      C       0.9190593821     1.5540924607    -1.9008213032
   34      C       5.3999183599     0.9076268007    -0.0220359196
   35      C       6.2855899206     0.4161745434     1.1903187537
   36      C       6.0896309886    -1.1437187759     1.1054500498
   37      C       5.0507774330    -1.2488257859    -0.0782411141
   38      O       5.5005570163    -0.1914008133    -1.0121662559
   39      H       3.6615788484     1.3335620621     1.3534758002
   40      H       3.4974294598    -1.0249859780     1.5158172391
   41      H       1.2573907106     1.0395013996    -2.8222401100
   42      H       5.6985072120     1.8697914306    -0.4818693073
   43      H       7.3388295916     0.7020500190     1.0413911616
   44      H       5.9391061158     0.8352238248     2.1487052442
   45      H       7.0294868607    -1.6514257770     0.8356535805
   46      H       5.7067078448    -1.5797883729     2.0419279128
   47      H       5.0045833313    -2.2268236913    -0.5952053912
   48      H       1.0353627435     2.6476891309    -2.0348474670
   49      H      -0.1365393294     1.2930146404    -1.6755904950
   50      H       0.0492530902     2.7127353630     2.0255059638
   51      H      -0.4132439802     3.1679543914     0.3447345685
   52      H       0.2694908000     1.5301849586     0.6646584933
   53      H      -1.0970568591    -3.5467922305     0.3047733767
   54      H      -0.2482783089    -2.7961715657     1.7190527155
   55      H       0.4110682421    -2.3466936336    -1.0799291952
   56      H      -0.4913215544    -0.8662886875    -0.5513536143
 ----------------------------------------------------------------

    9   -1510.2939941867      2.16E-09 Convergence criterion met
 Total energy in the final basis set = -1510.29399419
 Final energy is   -1510.29399418668
 **  OPTIMIZATION CONVERGED  **

                    Orbital Energies (a.u.)
 --------------------------------------------------------------

 Alpha MOs
 -- Occupied --
-18.949 -18.939 -18.929 -18.918 -18.891 -18.889 -18.884 -18.881
-18.877 -18.862 -10.114 -10.102 -10.100 -10.092 -10.068 -10.065
-10.062 -10.060 -10.057 -10.056 -10.051 -10.048 -10.044 -10.040
-10.039 -10.033 -10.024 -10.022 -10.019 -10.018  -1.022  -1.015
 -1.010  -0.998  -0.974  -0.967  -0.948  -0.939  -0.937  -0.925
 -0.767  -0.761  -0.728  -0.722  -0.713  -0.704  -0.692  -0.669
 -0.656  -0.616  -0.598  -0.580  -0.548  -0.544  -0.539  -0.535
 -0.516  -0.507  -0.481  -0.478  -0.464  -0.457  -0.454  -0.450
 -0.435  -0.432  -0.423  -0.416  -0.414  -0.409  -0.407  -0.402
 -0.394  -0.382  -0.373  -0.368  -0.363  -0.358  -0.355  -0.348
 -0.346  -0.340  -0.334  -0.333  -0.329  -0.327  -0.325  -0.314
 -0.309  -0.307  -0.306  -0.304  -0.297  -0.285  -0.284  -0.274
 -0.271  -0.261  -0.250  -0.246  -0.238  -0.238  -0.232  -0.190
 -0.179  -0.177  -0.167  -0.161  -0.156  -0.154  -0.148  -0.144
 -0.142

          Ground-State Mulliken Net Atomic Charges

     Atom                 Charge (a.u.)
  ----------------------------------------
      1 O                    -0.206477
      2 C                     0.212902
      3 C                    -0.077526
      4 C                    -0.081178
      5 C                     0.213960
      6 O                    -0.179104
      7 C                    -0.068776
      8 C                    -0.051798
      9 O                    -0.177992
     10 C                     0.211509
     11 C                    -0.079206
     12 C                    -0.077293
     13 C                     0.222707
     14 O                    -0.218396
     15 O                    -0.172945
     16 O                    -0.163825
     17 O                    -0.208755
     18 C                    -0.139728
     19 C                     0.024576
     20 C                    -0.143487
     21 C                    -0.144076
     22 C                     0.025590
     23 O                    -0.186748
     24 H                     0.085281
     25 H                     0.089319
     26 H                     0.091571
     27 H                     0.079059
     28 H                     0.073751
     29 H                     0.078934
     30 H                     0.074236
     31 H                     0.082124
     32 O                    -0.220580
     33 C                    -0.140689
     34 C                     0.023661
     35 C                    -0.144986
     36 C                    -0.143007
     37 C                     0.024423
     38 O                    -0.188592
     39 H                     0.083484
     40 H                     0.083245
     41 H                     0.090694
     42 H                     0.090178
     43 H                     0.078253
     44 H                     0.072219
     45 H                     0.077919
     46 H                     0.072563
     47 H                     0.086964
     48 H                     0.086596
     49 H                     0.111352
     50 H                     0.088816
     51 H                     0.082200
     52 H                     0.112320
     53 H                     0.091381
     54 H                     0.092506
     55 H                     0.096040
     56 H                     0.104831
  ----------------------------------------
  Sum of atomic charges =     0.000000

                    Cartesian Multipole Moments
 -----------------------------------------------------------------
    Charge (ESU x 10^10)
                -0.0000
    Dipole Moment (Debye)
         X      -1.6389      Y       0.8731      Z       4.6824
       Tot       5.0371
    Quadrupole Moments (Debye-Ang)
        XX    -149.1160     XY      -3.7827     YY    -156.1248
        XZ       5.6640     YZ      -2.1395     ZZ    -167.0467

 Total job time:  76.84s(wall), 3661.75s(cpu)
        *  Thank you very much for using Q-Chem.  Have a nice day.  *
