 Q-Chem 5.0, Q-Chem, Inc., Pleasanton, CA (2017)
 Q-Chem 5.0.1 for Intel X86 EM64T Linux

User input:
--------------------------------------------------------------
$molecule
0  1
O 3.4402353732 2.4449504387 -1.5305632645
C 3.0322591907 1.5661457563 -0.7424181488
C 3.8708503454 0.8481074424 0.3821193842
C 3.6530836749 -0.7253494353 0.4644378389
C 2.4270007582 -1.2481325526 -0.3601014385
O 1.2979469041 -1.2729339328 0.5224263156
C 0.0947450428 -1.7490075528 -0.1992080662
C -0.803339351 -2.5877582539 0.7818070899
O -2.0117966534 -1.8297234075 1.192286906
C -2.9770107585 -1.8061774113 0.1347970794
C -4.1525158083 -0.8718922907 0.5941902237
C -3.7441717978 0.6392107568 0.8480184007
C -2.2795995397 1.0008246632 0.4236068483
O -1.6625645983 0.5906142543 -0.5902130824
O 1.6875680444 1.070908317 -0.7265359442
O -1.7508569154 1.8819221882 1.4067381005
O -2.8823697791 -2.4510251392 -0.9304754515
C -0.3774363375 2.3360643196 1.0777922218
C -5.2606113437 -0.7124914084 -0.5284121366
C -6.5932784823 -0.2271220338 0.1612462681
C -6.2243606993 1.2631389772 0.5072752428
C -4.7768811558 1.3760562947 -0.1174159097
O -4.8203981404 0.4792333979 -1.2924368889
H -4.5798569055 -1.3015714207 1.5190911471
H -3.8803969424 0.9352330793 1.9024795837
H -5.3503089099 -1.5890873452 -1.1991915807
H -7.4335028058 -0.2784833407 -0.549513602
H -6.8464392509 -0.8233165739 1.0524548884
H -6.910351349 1.9752961699 0.0219488079
H -6.2211772057 1.458403047 1.5915906482
H -4.4731641851 2.397830538 -0.4179435171
O 2.4198961559 -1.6589685067 -1.5412358747
C 0.9190593821 1.5540924607 -1.9008213032
C 5.3999183599 0.9076268007 -0.0220359196
C 6.2855899206 0.4161745434 1.1903187537
C 6.0896309886 -1.1437187759 1.1054500498
C 5.050777433 -1.2488257859 -0.0782411141
O 5.5005570163 -0.1914008133 -1.0121662559
H 3.6615788484 1.3335620621 1.3534758002
H 3.4974294598 -1.024985978 1.5158172391
H 1.2573907106 1.0395013996 -2.82224011
H 5.698507212 1.8697914306 -0.4818693073
H 7.3388295916 0.702050019 1.0413911616
H 5.9391061158 0.8352238248 2.1487052442
H 7.0294868607 -1.651425777 0.8356535805
H 5.7067078448 -1.5797883729 2.0419279128
H 5.0045833313 -2.2268236913 -0.5952053912
H 1.0353627435 2.6476891309 -2.034847467
H -0.1365393294 1.2930146404 -1.675590495
H 0.0492530902 2.712735363 2.0255059638
H -0.4132439802 3.1679543914 0.3447345685
H 0.2694908 1.5301849586 0.6646584933
H -1.0970568591 -3.5467922305 0.3047733767
H -0.2482783089 -2.7961715657 1.7190527155
H 0.4110682421 -2.3466936336 -1.0799291952
H -0.4913215544 -0.8662886875 -0.5513536143
$end

$rem
JOBTYPE                   OPT
METHOD                    B3LYP
DFT_D                     d3_op
BASIS                     STO-3G
GEOM_OPT_MAX_CYCLES       100
GEOM_OPT_TOL_GRADIENT     300
GEOM_OPT_TOL_DISPLACEMENT 1200
GEOM_OPT_TOL_ENERGY       100
SYMMETRY                  False
THRESH                    12
SCF_CONVERGENCE           8
MAX_SUB_FILE_NUM          128
MEM_STATIC                400
MEM_TOTAL                 4000
$end
--------------------------------------------------------------

   16   -1510.2939736089      4.21E-09 Convergence criterion met
 Total energy in the final basis set = -1510.29397361
   14   -1510.2890578648      6.87E-09 Convergence criterion met
 Total energy in the final basis set = -1510.28905786
   14   -1510.2904716824      8.14E-09 Convergence criterion met
 Total energy in the final basis set = -1510.29047168
   14   -1510.2821088877      4.84E-09 Convergence criterion met
 Total energy in the final basis set = -1510.28210889
   15   -1510.2837001282      5.75E-09 Convergence criterion met
 Total energy in the final basis set = -1510.28370013
   13   -1510.2905691943      7.50E-09 Convergence criterion met
 Total energy in the final basis set = -1510.29056919
   14   -1510.2925601647      5.88E-09 Convergence criterion met
 Total energy in the final basis set = -1510.29256016
   15   -1510.2925640526      2.94E-09 Convergence criterion met
   12   -1510.3002102754      2.16E-09 Convergence criterion met
 Total energy in the final basis set = -1510.30021028
   11   -1510.3002491450      8.44E-09 Convergence criterion met
 Total energy in the final basis set = -1510.30024915
   11   -1510.3002388032      5.11E-09 Convergence criterion met
 Total energy in the final basis set = -1510.30023880
   11   -1510.3002527032      3.75E-09 Convergence criterion met
 Total energy in the final basis set = -1510.30025270
    9   -1510.3002503118      8.26E-09 Convergence criterion met
 Total energy in the final basis set = -1510.30025031
    9   -1510.3002522163      4.90E-09 Convergence criterion met
 Total energy in the final basis set = -1510.30025222

             Standard Nuclear Orientation (Angstroms)
    I     Atom           X                Y                Z
 ----------------------------------------------------------------
    1      O       3.5883558136    -2.1597824925     2.0690126460
    2      C       3.1032972819    -1.6117105445     1.0582998823
    3      C       3.8537116863    -1.0648771706    -0.2102306403
    4      C       3.3954439760     0.3973266301    -0.6304865103
    5      C       2.3613580725     1.0125013867     0.3734032007
    6      O       1.1001003715     1.2020090947    -0.3024230244
    7      C       0.0765100400     1.6805966871     0.6627966321
    8      C      -0.8932767065     2.6767562265    -0.0615166687
    9      O      -1.9985360897     1.9449773309    -0.7302097549
   10      C      -3.1024312055     1.7938006472     0.1755335990
   11      C      -4.2007879388     0.9118146177    -0.5166816755
   12      C      -3.6986885600    -0.5429584475    -0.9100608876
   13      C      -2.1829445336    -0.7832064539    -0.5882257079
   14      O      -1.6468226789    -0.7812713722     0.5473435762
   15      O       1.7118969313    -1.3787137484     0.8343867879
   16      O      -1.5096795652    -1.0165051702    -1.8163108542
   17      O      -3.1572088797     2.3113226225     1.3113223162
   18      C      -0.0482249994    -1.1778147627    -1.6099508675
   19      C      -5.3555330725     0.5688060095     0.5102264063
   20      C      -6.5957653135     0.0040600099    -0.2862442100
   21      C      -6.0904652919    -1.4423144645    -0.6504931429
   22      C      -4.6513302418    -1.4341015007     0.0001378727
   23      O      -4.8261046012    -0.6187833829     1.2221376567
   24      H      -4.5752193666     1.4502163627    -1.4066194418
   25      H      -3.8521897150    -0.7411008476    -1.9850201023
   26      H      -5.5685576538     1.3838631493     1.2287120957
   27      H      -7.4857471007    -0.0308554956     0.3619582242
   28      H      -6.8311172271     0.6098552817    -1.1762161451
   29      H      -6.7176161702    -2.2185781924    -0.1839380396
   30      H      -6.0561324187    -1.6212444770    -1.7370655133
   31      H      -4.2422802284    -2.4310412116     0.2548608999
   32      O       2.5693371139     1.3549523416     1.5568874773
   33      C       0.8779900831    -1.7845760018     1.9879203889
   34      C       5.3962009428    -0.8407110404     0.0621478312
   35      C       6.1318341789    -0.7178523024    -1.3285889067
   36      C       5.6699964982     0.7153062273    -1.7889157942
   37      C       4.7859072611     1.1636323637    -0.5578129135
   38      O       5.4548744846     0.5375316699     0.6045846195
   39      H       3.6856812551    -1.7762688548    -1.0400640798
   40      H       2.9590935300     0.4098404519    -1.6442943601
   41      H       1.1309827233    -1.1934856667     2.8911371485
   42      H       5.8325875107    -1.5598085960     0.7825403215
   43      H       7.2239038107    -0.7640258021    -1.1912813498
   44      H       5.8302659182    -1.5101293195    -2.0323375986
   45      H       6.5263267470     1.3964179900    -1.9154586345
   46      H       5.0924000549     0.6955438703    -2.7270560271
   47      H       4.6988418330     2.2576269044    -0.4108899630
   48      H       1.0011976740    -2.8620007817     2.2180869953
   49      H      -0.1630471107    -1.5685717760     1.6659732177
   50      H       0.3726266999    -1.3529934940    -2.6166233023
   51      H       0.1743352732    -2.0485487591    -0.9620034895
   52      H       0.4083476883    -0.2641531605    -1.1523759725
   53      H      -1.3158503068     3.3822611556     0.6856813893
   54      H      -0.3558255855     3.2358377617    -0.8541702563
   55      H       0.5939653544     2.1580185777     1.5218104693
   56      H      -0.5101688313     0.8002629428     1.0163006311
 ----------------------------------------------------------------

    9   -1510.3002530865      3.51E-09 Convergence criterion met
 Total energy in the final basis set = -1510.30025309
 Final energy is   -1510.30025308648
 **  OPTIMIZATION CONVERGED  **

                    Orbital Energies (a.u.)
 --------------------------------------------------------------

 Alpha MOs
 -- Occupied --
-18.938 -18.937 -18.935 -18.932 -18.889 -18.888 -18.882 -18.879
-18.877 -18.874 -10.104 -10.103 -10.103 -10.100 -10.073 -10.062
-10.062 -10.060 -10.059 -10.058 -10.050 -10.042 -10.041 -10.040
-10.039 -10.038 -10.022 -10.022 -10.021 -10.021  -1.019  -1.015
 -1.009  -1.006  -0.971  -0.970  -0.943  -0.938  -0.937  -0.936
 -0.766  -0.764  -0.729  -0.724  -0.712  -0.707  -0.698  -0.657
 -0.655  -0.618  -0.598  -0.581  -0.549  -0.545  -0.539  -0.537
 -0.512  -0.511  -0.486  -0.474  -0.459  -0.458  -0.455  -0.453
 -0.437  -0.432  -0.430  -0.418  -0.416  -0.409  -0.401  -0.398
 -0.391  -0.383  -0.372  -0.368  -0.364  -0.362  -0.355  -0.352
 -0.342  -0.341  -0.338  -0.332  -0.331  -0.327  -0.325  -0.312
 -0.311  -0.307  -0.306  -0.302  -0.292  -0.289  -0.285  -0.275
 -0.273  -0.263  -0.254  -0.245  -0.242  -0.235  -0.234  -0.185
 -0.178  -0.174  -0.171  -0.162  -0.159  -0.153  -0.151  -0.145
 -0.144

          Ground-State Mulliken Net Atomic Charges

     Atom                 Charge (a.u.)
  ----------------------------------------
      1 O                    -0.205728
      2 C                     0.213089
      3 C                    -0.078581
      4 C                    -0.078759
      5 C                     0.216370
      6 O                    -0.174885
      7 C                    -0.064486
      8 C                    -0.053555
      9 O                    -0.174812
     10 C                     0.210708
     11 C                    -0.078174
     12 C                    -0.079226
     13 C                     0.217817
     14 O                    -0.227580
     15 O                    -0.176637
     16 O                    -0.166064
     17 O                    -0.208326
     18 C                    -0.147880
     19 C                     0.024454
     20 C                    -0.144204
     21 C                    -0.143642
     22 C                     0.025505
     23 O                    -0.186472
     24 H                     0.085998
     25 H                     0.087192
     26 H                     0.090702
     27 H                     0.078758
     28 H                     0.073243
     29 H                     0.078404
     30 H                     0.073773
     31 H                     0.083057
     32 O                    -0.211353
     33 C                    -0.140161
     34 C                     0.023904
     35 C                    -0.143660
     36 C                    -0.144174
     37 C                     0.025837
     38 O                    -0.185508
     39 H                     0.083547
     40 H                     0.084723
     41 H                     0.089114
     42 H                     0.091214
     43 H                     0.078771
     44 H                     0.072781
     45 H                     0.078567
     46 H                     0.072948
     47 H                     0.083654
     48 H                     0.084085
     49 H                     0.112278
     50 H                     0.079289
     51 H                     0.083762
     52 H                     0.113796
     53 H                     0.099300
     54 H                     0.091918
     55 H                     0.100259
     56 H                     0.105048
  ----------------------------------------
  Sum of atomic charges =    -0.000000

                    Cartesian Multipole Moments
 -----------------------------------------------------------------
    Charge (ESU x 10^10)
                -0.0000
    Dipole Moment (Debye)
         X      -1.3580      Y      -0.2681      Z      -4.6897
       Tot       4.8897
    Quadrupole Moments (Debye-Ang)
        XX    -152.9126     XY       0.1525     YY    -154.7801
        XZ      -6.2355     YZ      -0.4323     ZZ    -167.8775

 Total job time:  101.58s(wall), 4838.78s(cpu)
        *  Thank you very much for using Q-Chem.  Have a nice day.  *
