 Q-Chem 5.0, Q-Chem, Inc., Pleasanton, CA (2017)
 Q-Chem 5.0.1 for Intel X86 EM64T Linux

User input:
--------------------------------------------------------------
$molecule
0  1
O -3.94934 -3.66094 2.70899
C -3.26408 -4.56952 2.26188
C -3.36658 -6.02376 2.66595
C -2.05025 -6.77886 2.91287
C -0.78496 -5.95 2.90165
O -0.25801 -5.92468 1.64185
C 0.9376 -5.14314 1.54715
C 1.86505 -5.72768 0.48683
O 1.7594 -4.96871 -0.72795
C 2.47386 -3.81646 -0.75961
C 2.27577 -3.03627 -2.03739
C 0.84664 -2.52369 -2.26792
C -0.06696 -2.54756 -1.05901
O 0.27488 -2.31955 0.09239
O -2.06068 -4.06908 1.86899
O -1.3658 -2.40756 -1.45031
O 3.20067 -3.43324 0.15032
C -2.47259 -2.07696 -0.70896
C 3.0647 -1.71033 -2.10165
C 3.25739 -1.29554 -3.55995
C 1.84574 -0.88755 -3.92634
C 1.15434 -1.0437 -2.56776
O 2.16202 -0.74083 -1.63354
H 2.62495 -3.69557 -2.86394
H 0.33316 -3.03799 -3.11143
H 4.04993 -1.75345 -1.58849
H 3.89988 -0.38574 -3.55814
H 3.7154 -2.06461 -4.21844
H 1.85929 0.18028 -4.23895
H 1.35794 -1.50861 -4.70859
H 0.24345 -0.40598 -2.52242
O -0.2211 -5.54213 3.91308
C -1.50214 -2.9113 2.44417
C -4.05802 -6.19509 4.03434
C -4.62624 -7.6083 4.16279
C -3.35561 -8.40272 4.36046
C -2.32011 -7.27472 4.35337
O -2.99549 -6.19688 4.95149
H -3.98039 -6.50959 1.87586
H -1.8961 -7.66286 2.25338
H -0.51104 -3.12355 2.87839
H -4.86455 -5.45316 4.2213
H -5.22149 -7.65464 5.10278
H -5.25987 -7.92761 3.30746
H -3.38799 -8.87059 5.36995
H -3.15314 -9.17936 3.59172
H -1.39457 -7.61641 4.86789
H -2.0827 -2.50797 3.30099
H -1.42064 -2.09332 1.71756
H -3.33086 -1.94525 -1.39899
H -2.31048 -1.11837 -0.17333
H -2.74321 -2.8993 -0.03547
H 2.92801 -5.72739 0.8277
H 1.62549 -6.79828 0.31083
H 1.54699 -5.31692 2.46448
H 0.80784 -4.06151 1.49888
$end

$opt
CONSTRAINT
tors           1           2           3           4    -135.975
tors           3           4           5           6     -91.471
tors           4           5           6           7    +179.297
tors           5           6           7           8    +148.162
tors           6           7           8           9    +100.813
tors           7           8           9          10     +80.811
tors           8           9          10          11    -177.567
tors           9          10          11          12     +63.902
tors          11          12          13          14     +36.141
ENDCONSTRAINT
$end

$rem
JOBTYPE                   OPT
METHOD                    B3LYP
DFT_D                     d3_op
BASIS                     STO-3G
GEOM_OPT_MAX_CYCLES       100
GEOM_OPT_TOL_GRADIENT     300
GEOM_OPT_TOL_DISPLACEMENT 1200
GEOM_OPT_TOL_ENERGY       100
SYMMETRY                  False
THRESH                    12
SCF_CONVERGENCE           8
MAX_SUB_FILE_NUM          128
MEM_STATIC                400
MEM_TOTAL                 4000
$end
--------------------------------------------------------------

   16   -1510.1207152987      2.55E-09 Convergence criterion met
 Total energy in the final basis set = -1510.12071530
   14   -1510.1933998417      6.73E-09 Convergence criterion met
 Total energy in the final basis set = -1510.19339984
   14   -1510.2274773318      7.02E-09 Convergence criterion met
 Total energy in the final basis set = -1510.22747733
   15   -1510.2570121947      1.58E-09 Convergence criterion met
 Total energy in the final basis set = -1510.25701219
   14   -1510.2690242973      4.98E-09 Convergence criterion met
 Total energy in the final basis set = -1510.26902430
   14   -1510.2773596043      4.94E-09 Convergence criterion met
 Total energy in the final basis set = -1510.27735960
   13   -1510.2825188361      4.32E-09 Convergence criterion met
 Total energy in the final basis set = -1510.28251884
   13   -1510.2858161730      8.79E-09 Convergence criterion met
   11   -1510.2937496932      3.47E-09 Convergence criterion met
 Total energy in the final basis set = -1510.29374969
    9   -1510.2937546728      5.55E-09 Convergence criterion met
 Total energy in the final basis set = -1510.29375467
   10   -1510.2937616134      9.76E-09 Convergence criterion met
 Total energy in the final basis set = -1510.29376161
    9   -1510.2937639820      4.06E-09 Convergence criterion met
 Total energy in the final basis set = -1510.29376398
    9   -1510.2937664089      2.91E-09 Convergence criterion met
 Total energy in the final basis set = -1510.29376641
    9   -1510.2937751985      4.13E-09 Convergence criterion met
 Total energy in the final basis set = -1510.29377520

             Standard Nuclear Orientation (Angstroms)
    I     Atom           X                Y                Z
 ----------------------------------------------------------------
    1      O      -3.3497847686    -2.5158085546    -1.5128555164
    2      C      -2.9588318765    -1.6095422015    -0.7477854926
    3      C      -3.7925723636    -0.9257118568     0.4023287503
    4      C      -3.6527126447     0.6583975234     0.4572718460
    5      C      -2.4607252671     1.2244633731    -0.3904173138
    6      O      -1.3205646797     1.3003713546     0.4752864007
    7      C      -0.1497724338     1.8144139667    -0.2722927583
    8      C       0.7742696550     2.6399797091     0.6941391375
    9      O       1.9413308084     1.8340193413     1.1290146407
   10      C       2.9604345867     1.8350100673     0.1233222627
   11      C       4.1222403298     0.9132930163     0.6372270756
   12      C       3.7279424055    -0.6116469603     0.8178444216
   13      C       2.2850610635    -0.9856036551     0.3333075916
   14      O       1.6677316996    -0.5210918521    -0.6558232585
   15      O      -1.6429358951    -1.0414603633    -0.7917974451
   16      O       1.7789510477    -1.9635405213     1.2348231959
   17      O       2.9183856719     2.4986728694    -0.9337574306
   18      C       0.4301496031    -2.4442102478     0.8490469120
   19      C       5.2966079651     0.8061343740    -0.4225408461
   20      C       6.5919846088     0.2981474344     0.3207519372
   21      C       6.2226149690    -1.2115030277     0.5698044935
   22      C       4.8083883524    -1.3009233879    -0.1297942665
   23      O       4.9065567754    -0.3528750870    -1.2601185738
   24      H       4.4797391104     1.3254708200     1.5985530024
   25      H       3.8323011684    -0.9443299384     1.8650336352
   26      H       5.4180984092     1.7104918935    -1.0500669720
   27      H       7.4723610442     0.3935025564    -0.3345780372
   28      H       6.7841615460     0.8501446678     1.2546450289
   29      H       6.9382391295    -1.8910401800     0.0804302715
   30      H       6.1691775506    -1.4655186020     1.6404801629
   31      H       4.5243072660    -2.3091329995    -0.4895354951
   32      O      -2.4903997574     1.6339611104    -1.5717153330
   33      C      -0.9139210000    -1.4582205533    -2.0160564580
   34      C      -5.3277682131    -1.0678641680     0.0440972798
   35      C      -6.2048326202    -0.5928199809     1.2688352895
   36      C      -6.0919318438     0.9726040559     1.1433465948
   37      C      -5.0853090127     1.1016275953    -0.0660808052
   38      O      -5.5057951751     0.0031045645    -0.9661231886
   39      H      -3.5273183893    -1.3900171135     1.3702423559
   40      H      -3.4968535590     0.9805366005     1.5019867838
   41      H      -1.2882778345    -0.8934832114    -2.8932193046
   42      H      -5.5919348909    -2.0528965462    -0.3876180930
   43      H      -7.2455237230    -0.9351987232     1.1552440998
   44      H      -5.8126370344    -0.9706667944     2.2266675453
   45      H      -7.0622696257     1.4251368385     0.8833351125
   46      H      -5.7120698259     1.4499914275     2.0607450915
   47      H      -5.0986603623     2.0686761936    -0.6050185037
   48      H      -1.0343664576    -2.5430860697    -2.2044274313
   49      H       0.1476463239    -1.2043306789    -1.8149959030
   50      H       0.0115125250    -2.9223276200     1.7536721396
   51      H       0.5078686112    -3.2046326215     0.0450941903
   52      H      -0.2471998743    -1.6316683990     0.5005652798
   53      H       1.1187248514     3.5656831900     0.1866111956
   54      H       0.2222653949     2.9032002137     1.6192908886
   55      H      -0.5037733051     2.4299614879    -1.1263495889
   56      H       0.4377590531     0.9514253221    -0.6666912356
 ----------------------------------------------------------------

    9   -1510.2937751308      4.01E-09 Convergence criterion met
 Total energy in the final basis set = -1510.29377513
 Final energy is   -1510.29377513076
 **  OPTIMIZATION CONVERGED  **

                    Orbital Energies (a.u.)
 --------------------------------------------------------------

 Alpha MOs
 -- Occupied --
-18.947 -18.942 -18.928 -18.918 -18.891 -18.888 -18.884 -18.884
-18.876 -18.861 -10.112 -10.104 -10.099 -10.092 -10.068 -10.065
-10.060 -10.059 -10.057 -10.057 -10.052 -10.049 -10.043 -10.040
-10.039 -10.033 -10.024 -10.022 -10.020 -10.018  -1.021  -1.017
 -1.009  -0.998  -0.973  -0.968  -0.946  -0.941  -0.936  -0.925
 -0.766  -0.762  -0.728  -0.723  -0.712  -0.705  -0.692  -0.668
 -0.657  -0.615  -0.598  -0.579  -0.548  -0.544  -0.539  -0.535
 -0.516  -0.508  -0.482  -0.477  -0.464  -0.457  -0.453  -0.450
 -0.435  -0.432  -0.424  -0.415  -0.413  -0.410  -0.408  -0.401
 -0.394  -0.382  -0.373  -0.367  -0.362  -0.358  -0.354  -0.348
 -0.345  -0.341  -0.334  -0.332  -0.329  -0.328  -0.325  -0.313
 -0.309  -0.307  -0.306  -0.305  -0.298  -0.285  -0.284  -0.274
 -0.271  -0.260  -0.250  -0.247  -0.238  -0.237  -0.232  -0.189
 -0.178  -0.176  -0.166  -0.162  -0.157  -0.153  -0.147  -0.144
 -0.142

          Ground-State Mulliken Net Atomic Charges

     Atom                 Charge (a.u.)
  ----------------------------------------
      1 O                    -0.205427
      2 C                     0.213639
      3 C                    -0.077350
      4 C                    -0.081286
      5 C                     0.214073
      6 O                    -0.178662
      7 C                    -0.066357
      8 C                    -0.051600
      9 O                    -0.177898
     10 C                     0.212325
     11 C                    -0.079411
     12 C                    -0.077532
     13 C                     0.222010
     14 O                    -0.218449
     15 O                    -0.171770
     16 O                    -0.165238
     17 O                    -0.209963
     18 C                    -0.141094
     19 C                     0.024716
     20 C                    -0.143708
     21 C                    -0.143914
     22 C                     0.025557
     23 O                    -0.187165
     24 H                     0.085373
     25 H                     0.089071
     26 H                     0.091207
     27 H                     0.078947
     28 H                     0.073679
     29 H                     0.078779
     30 H                     0.074238
     31 H                     0.082126
     32 O                    -0.221850
     33 C                    -0.140199
     34 C                     0.023606
     35 C                    -0.145065
     36 C                    -0.142850
     37 C                     0.024185
     38 O                    -0.188874
     39 H                     0.084010
     40 H                     0.083481
     41 H                     0.091423
     42 H                     0.090113
     43 H                     0.078329
     44 H                     0.072405
     45 H                     0.077994
     46 H                     0.072679
     47 H                     0.087155
     48 H                     0.088788
     49 H                     0.111024
     50 H                     0.087648
     51 H                     0.081152
     52 H                     0.111527
     53 H                     0.092885
     54 H                     0.092081
     55 H                     0.094864
     56 H                     0.104572
  ----------------------------------------
  Sum of atomic charges =    -0.000000

                    Cartesian Multipole Moments
 -----------------------------------------------------------------
    Charge (ESU x 10^10)
                -0.0000
    Dipole Moment (Debye)
         X       1.4812      Y      -0.8368      Z       4.5420
       Tot       4.8501
    Quadrupole Moments (Debye-Ang)
        XX    -150.3132     XY      -3.9220     YY    -156.2307
        XZ      -4.9709     YZ       2.4347     ZZ    -166.4327

 Total job time:  75.87s(wall), 3616.59s(cpu)
        *  Thank you very much for using Q-Chem.  Have a nice day.  *
