 Q-Chem 5.0, Q-Chem, Inc., Pleasanton, CA (2017)
 Q-Chem 5.0.1 for Intel X86 EM64T Linux

User input:
--------------------------------------------------------------
$molecule
0  1
O -3.3497847686 -2.5158085546 -1.5128555164
C -2.9588318765 -1.6095422015 -0.7477854926
C -3.7925723636 -0.9257118568 0.4023287503
C -3.6527126447 0.6583975234 0.457271846
C -2.4607252671 1.2244633731 -0.3904173138
O -1.3205646797 1.3003713546 0.4752864007
C -0.1497724338 1.8144139667 -0.2722927583
C 0.774269655 2.6399797091 0.6941391375
O 1.9413308084 1.8340193413 1.1290146407
C 2.9604345867 1.8350100673 0.1233222627
C 4.1222403298 0.9132930163 0.6372270756
C 3.7279424055 -0.6116469603 0.8178444216
C 2.2850610635 -0.9856036551 0.3333075916
O 1.6677316996 -0.5210918521 -0.6558232585
O -1.6429358951 -1.0414603633 -0.7917974451
O 1.7789510477 -1.9635405213 1.2348231959
O 2.9183856719 2.4986728694 -0.9337574306
C 0.4301496031 -2.4442102478 0.849046912
C 5.2966079651 0.806134374 -0.4225408461
C 6.5919846088 0.2981474344 0.3207519372
C 6.222614969 -1.2115030277 0.5698044935
C 4.8083883524 -1.3009233879 -0.1297942665
O 4.9065567754 -0.352875087 -1.2601185738
H 4.4797391104 1.32547082 1.5985530024
H 3.8323011684 -0.9443299384 1.8650336352
H 5.4180984092 1.7104918935 -1.050066972
H 7.4723610442 0.3935025564 -0.3345780372
H 6.784161546 0.8501446678 1.2546450289
H 6.9382391295 -1.89104018 0.0804302715
H 6.1691775506 -1.465518602 1.6404801629
H 4.524307266 -2.3091329995 -0.4895354951
O -2.4903997574 1.6339611104 -1.571715333
C -0.913921 -1.4582205533 -2.016056458
C -5.3277682131 -1.067864168 0.0440972798
C -6.2048326202 -0.5928199809 1.2688352895
C -6.0919318438 0.9726040559 1.1433465948
C -5.0853090127 1.1016275953 -0.0660808052
O -5.5057951751 0.0031045645 -0.9661231886
H -3.5273183893 -1.3900171135 1.3702423559
H -3.496853559 0.9805366005 1.5019867838
H -1.2882778345 -0.8934832114 -2.8932193046
H -5.5919348909 -2.0528965462 -0.387618093
H -7.245523723 -0.9351987232 1.1552440998
H -5.8126370344 -0.9706667944 2.2266675453
H -7.0622696257 1.4251368385 0.8833351125
H -5.7120698259 1.4499914275 2.0607450915
H -5.0986603623 2.0686761936 -0.6050185037
H -1.0343664576 -2.5430860697 -2.2044274313
H 0.1476463239 -1.2043306789 -1.814995903
H 0.011512525 -2.92232762 1.7536721396
H 0.5078686112 -3.2046326215 0.0450941903
H -0.2471998743 -1.631668399 0.5005652798
H 1.1187248514 3.56568319 0.1866111956
H 0.2222653949 2.9032002137 1.6192908886
H -0.5037733051 2.4299614879 -1.1263495889
H 0.4377590531 0.9514253221 -0.6666912356
$end

$rem
JOBTYPE                   OPT
METHOD                    B3LYP
DFT_D                     d3_op
BASIS                     STO-3G
GEOM_OPT_MAX_CYCLES       100
GEOM_OPT_TOL_GRADIENT     300
GEOM_OPT_TOL_DISPLACEMENT 1200
GEOM_OPT_TOL_ENERGY       100
SYMMETRY                  False
THRESH                    12
SCF_CONVERGENCE           8
MAX_SUB_FILE_NUM          128
MEM_STATIC                400
MEM_TOTAL                 4000
$end
--------------------------------------------------------------

   16   -1510.2938147263      3.50E-09 Convergence criterion met
 Total energy in the final basis set = -1510.29381473
   14   -1510.2888223508      8.72E-09 Convergence criterion met
 Total energy in the final basis set = -1510.28882235
   14   -1510.2904651029      8.13E-09 Convergence criterion met
 Total energy in the final basis set = -1510.29046510
   14   -1510.2861486521      4.03E-09 Convergence criterion met
 Total energy in the final basis set = -1510.28614865
   14   -1510.2855992863      5.55E-09 Convergence criterion met
 Total energy in the final basis set = -1510.28559929
   13   -1510.2912303822      9.87E-09 Convergence criterion met
 Total energy in the final basis set = -1510.29123038
   15   -1510.2938292202      1.83E-09 Convergence criterion met
 Total energy in the final basis set = -1510.29382922
   14   -1510.2944488634      5.77E-09 Convergence criterion met
   11   -1510.3002853105      5.00E-09 Convergence criterion met
 Total energy in the final basis set = -1510.30028531
    9   -1510.3002899470      9.47E-09 Convergence criterion met
 Total energy in the final basis set = -1510.30028995
    9   -1510.3002870099      8.00E-09 Convergence criterion met
 Total energy in the final basis set = -1510.30028701
    9   -1510.3002917999      7.49E-09 Convergence criterion met
 Total energy in the final basis set = -1510.30029180
   10   -1510.3002935534      5.52E-09 Convergence criterion met
 Total energy in the final basis set = -1510.30029355
    9   -1510.3002956585      8.06E-09 Convergence criterion met
 Total energy in the final basis set = -1510.30029566

             Standard Nuclear Orientation (Angstroms)
    I     Atom           X                Y                Z
 ----------------------------------------------------------------
    1      O       3.5881675125    -2.1201195204     2.1200004439
    2      C       3.1026991005    -1.5905927928     1.0996614673
    3      C       3.8517169600    -1.0741130623    -0.1825016013
    4      C       3.3992692111     0.3811894287    -0.6314379265
    5      C       2.3637239372     1.0201661060     0.3560417066
    6      O       1.1037152043     1.1923029983    -0.3266296046
    7      C       0.0790936515     1.6998727006     0.6223416506
    8      C      -0.8890131888     2.6734061179    -0.1340674439
    9      O      -1.9894198872     1.9202467054    -0.7867101088
   10      C      -3.1019580921     1.8037216909     0.1134110576
   11      C      -4.1966603112     0.9005463295    -0.5567237792
   12      C      -3.6946643862    -0.5670618880    -0.8993926309
   13      C      -2.1797956579    -0.7984619376    -0.5668596505
   14      O      -1.6461363798    -0.7679795107     0.5693820663
   15      O       1.7117818298    -1.3551459928     0.8753907336
   16      O      -1.5038598121    -1.0629071783    -1.7873226856
   17      O      -3.1663173674     2.3617660336     1.2293757979
   18      C      -0.0430382150    -1.2197288483    -1.5737252601
   19      C      -5.3581765967     0.5928205440     0.4739122134
   20      C      -6.5940383918     0.0029025894    -0.3110202573
   21      C      -6.0879109790    -1.4551828183    -0.6238870921
   22      C      -4.6528763654    -1.4264671688     0.0355101353
   23      O      -4.8342378380    -0.5705105953     1.2282826792
   24      H      -4.5649906317     1.4103872039    -1.4658255243
   25      H      -3.8455260306    -0.8001220598    -1.9676576732
   26      H      -5.5750371880     1.4315962139     1.1633939953
   27      H      -7.4880467934    -0.0098300641     0.3324204131
   28      H      -6.8228132127     0.5790558756    -1.2220584645
   29      H      -6.7189964735    -2.2152110915    -0.1363577350
   30      H      -6.0461234934    -1.6697926351    -1.7036694859
   31      H      -4.2463455267    -2.4146483900     0.3259055694
   32      O       2.5700133923     1.3935646309     1.5304092222
   33      C       0.8794955000    -1.7315787097     2.0399649289
   34      C       5.3956519909    -0.8512105080     0.0819896321
   35      C       6.1287234727    -0.7547687654    -1.3120625019
   36      C       5.6747056503     0.6738691232    -1.7940528994
   37      C       4.7918977197     1.1445779243    -0.5703650834
   38      O       5.4597422016     0.5355226513     0.6016848372
   39      H       3.6780140185    -1.8020745557    -0.9966768938
   40      H       2.9659274266     0.3754281970    -1.6466337565
   41      H       1.1338163627    -1.1174707966     2.9273228198
   42      H       5.8309860119    -1.5596761909     0.8134604864
   43      H       7.2208190852    -0.8059493780    -1.1769010162
   44      H       5.8200075670    -1.5560128112    -2.0023868556
   45      H       6.5348122868     1.3484834920    -1.9297109507
   46      H       5.0980188097     0.6432877662    -2.7324825712
   47      H       4.7078898626     2.2410162259    -0.4410821069
   48      H       1.0031062846    -2.8027119072     2.2975051001
   49      H      -0.1619681600    -1.5239105885     1.7140589167
   50      H       0.3797124839    -1.4232768253    -2.5742481549
   51      H       0.1773804488    -2.0721825367    -0.9012946360
   52      H       0.4133278235    -0.2941922603    -1.1405932071
   53      H      -1.3174359811     3.3978863341     0.5913081243
   54      H      -0.3488190203     3.2117525140    -0.9391514097
   55      H       0.5953030019     2.2033718247     1.4671644425
   56      H      -0.5084292614     0.8311202794     1.0020587783
 ----------------------------------------------------------------

    9   -1510.3002958669      5.22E-09 Convergence criterion met
 Total energy in the final basis set = -1510.30029587
 Final energy is   -1510.30029586687
 **  OPTIMIZATION CONVERGED  **

                    Orbital Energies (a.u.)
 --------------------------------------------------------------

 Alpha MOs
 -- Occupied --
-18.937 -18.937 -18.935 -18.933 -18.889 -18.888 -18.882 -18.879
-18.877 -18.874 -10.104 -10.103 -10.103 -10.100 -10.073 -10.062
-10.062 -10.061 -10.059 -10.058 -10.050 -10.041 -10.041 -10.040
-10.039 -10.038 -10.022 -10.022 -10.021 -10.021  -1.019  -1.015
 -1.009  -1.006  -0.971  -0.970  -0.943  -0.938  -0.937  -0.936
 -0.766  -0.764  -0.729  -0.724  -0.712  -0.707  -0.698  -0.657
 -0.655  -0.618  -0.598  -0.581  -0.549  -0.545  -0.539  -0.537
 -0.512  -0.511  -0.486  -0.474  -0.459  -0.458  -0.455  -0.453
 -0.437  -0.432  -0.430  -0.418  -0.416  -0.409  -0.401  -0.398
 -0.391  -0.383  -0.372  -0.367  -0.364  -0.362  -0.355  -0.352
 -0.342  -0.341  -0.338  -0.332  -0.331  -0.327  -0.325  -0.312
 -0.311  -0.307  -0.306  -0.302  -0.292  -0.289  -0.285  -0.275
 -0.273  -0.263  -0.254  -0.245  -0.242  -0.235  -0.235  -0.186
 -0.178  -0.174  -0.171  -0.162  -0.159  -0.153  -0.151  -0.145
 -0.144

          Ground-State Mulliken Net Atomic Charges

     Atom                 Charge (a.u.)
  ----------------------------------------
      1 O                    -0.205700
      2 C                     0.213125
      3 C                    -0.078539
      4 C                    -0.078835
      5 C                     0.216436
      6 O                    -0.174869
      7 C                    -0.064172
      8 C                    -0.053625
      9 O                    -0.174691
     10 C                     0.210767
     11 C                    -0.078169
     12 C                    -0.079272
     13 C                     0.217709
     14 O                    -0.227673
     15 O                    -0.176505
     16 O                    -0.166170
     17 O                    -0.208383
     18 C                    -0.147933
     19 C                     0.024493
     20 C                    -0.144229
     21 C                    -0.143645
     22 C                     0.025499
     23 O                    -0.186535
     24 H                     0.086007
     25 H                     0.087147
     26 H                     0.090699
     27 H                     0.078765
     28 H                     0.073251
     29 H                     0.078370
     30 H                     0.073762
     31 H                     0.083094
     32 O                    -0.211490
     33 C                    -0.140077
     34 C                     0.023900
     35 C                    -0.143716
     36 C                    -0.144126
     37 C                     0.025822
     38 O                    -0.185521
     39 H                     0.083575
     40 H                     0.084728
     41 H                     0.089110
     42 H                     0.091169
     43 H                     0.078779
     44 H                     0.072790
     45 H                     0.078570
     46 H                     0.072943
     47 H                     0.083702
     48 H                     0.084244
     49 H                     0.112264
     50 H                     0.079190
     51 H                     0.083700
     52 H                     0.113783
     53 H                     0.099512
     54 H                     0.091875
     55 H                     0.100189
     56 H                     0.104902
  ----------------------------------------
  Sum of atomic charges =     0.000000

                    Cartesian Multipole Moments
 -----------------------------------------------------------------
    Charge (ESU x 10^10)
                -0.0000
    Dipole Moment (Debye)
         X      -1.3421      Y      -0.3797      Z      -4.6765
       Tot       4.8801
    Quadrupole Moments (Debye-Ang)
        XX    -153.0661     XY       0.1445     YY    -154.8422
        XZ      -6.1935     YZ      -0.7886     ZZ    -167.7927

 Total job time:  99.75s(wall), 4750.60s(cpu)
        *  Thank you very much for using Q-Chem.  Have a nice day.  *
