 Q-Chem 5.0, Q-Chem, Inc., Pleasanton, CA (2017)
 Q-Chem 5.0.1 for Intel X86 EM64T Linux

User input:
--------------------------------------------------------------
$molecule
0  1
O -3.3489247378 -2.5429048127 -1.4446237062
C -2.9755428114 -1.5859940611 -0.7337219043
C -3.8313703904 -0.8445711915 0.3610165809
C -3.6152970347 0.7283852232 0.4409319333
C -2.3902181417 1.2694831577 -0.3766456971
O -1.262760673 1.302676006 0.5089746
C -0.0630278139 1.7964480443 -0.2090440914
C 0.8349737365 2.5993769732 0.8024297517
O 2.0481362485 1.8410754043 1.1983138701
C 3.0025103319 1.8195415252 0.1293864164
C 4.1626716001 0.8482885335 0.5484995919
C 3.7078168024 -0.6311358618 0.8884183412
C 2.2263177423 -0.9500709676 0.4920638987
O 1.6396307014 -0.5891062488 -0.5578032018
O -1.6599928895 -1.0249086892 -0.7786745544
O 1.6493122217 -1.7265540805 1.5338700493
O 2.9048620405 2.4838848534 -0.9235774361
C 0.2608626195 -2.1477144843 1.2228213579
C 5.1998317112 0.5986887093 -0.6241964658
C 6.5546515649 0.1167766625 0.0232909084
C 6.161929265 -1.3361543857 0.4841903829
C 4.6852478243 -1.4490378807 -0.0683017234
O 4.6948056663 -0.6228942867 -1.2956158447
H 4.6643210316 1.2902815674 1.4294183331
H 3.8504735706 -0.8822471746 1.9534989393
H 5.2727564984 1.4350888196 -1.3464685335
H 7.3565944406 0.0966530806 -0.7319617666
H 6.8711199727 0.759449774 0.8602646696
H 6.8061822576 -2.0987510293 0.0187569433
H 6.2023577741 -1.4599217756 1.5783287048
H 4.346147628 -2.478760277 -0.2949273219
O -2.3878316592 1.6973481409 -1.5515860848
C -0.8700509604 -1.5784975642 -1.9062788671
C -5.3553955302 -0.9094495143 -0.0647609964
C -6.2586668135 -0.4261997698 1.1375497892
C -6.0616717416 1.1340419865 1.06469234
C -5.0128277784 1.2475908118 -0.1096514506
O -5.4496907826 0.192133879 -1.0519366532
H -3.6431335718 -1.3229570108 1.34034965
H -3.4681819006 1.0285355928 1.4934479118
H -1.1802791309 -1.1068754949 -2.8599749538
H -5.6429769729 -1.8727457048 -0.5295754356
H -7.309444888 -0.7113426868 0.9706633101
H -5.9267459243 -0.8514272376 2.0983590859
H -6.999181521 1.6440628372 0.791165759
H -5.6862043318 1.5634311514 2.0072240588
H -4.9673191344 2.2276170704 -0.6227654544
H -1.002917437 -2.6753493857 -1.9857031899
H 0.1827810296 -1.3194864232 -1.6661008088
H -0.2054436055 -2.3927002442 2.1947607903
H 0.27233785 -3.0590633752 0.5903654085
H -0.3362372645 -1.3666672717 0.7007801475
H 1.1231337717 3.5774431471 0.3615353944
H 0.2739921178 2.7727308135 1.743392712
H -0.380529736 2.423963012 -1.0681520305
H 0.5154670173 0.9206645809 -0.5895658592
$end

$rem
JOBTYPE                   OPT
METHOD                    B3LYP
DFT_D                     d3_op
BASIS                     STO-3G
GEOM_OPT_MAX_CYCLES       100
GEOM_OPT_TOL_GRADIENT     300
GEOM_OPT_TOL_DISPLACEMENT 1200
GEOM_OPT_TOL_ENERGY       100
SYMMETRY                  False
THRESH                    12
SCF_CONVERGENCE           8
MAX_SUB_FILE_NUM          128
MEM_STATIC                400
MEM_TOTAL                 4000
$end
--------------------------------------------------------------

   16   -1510.2939843553      3.74E-09 Convergence criterion met
 Total energy in the final basis set = -1510.29398436
   15   -1510.2891493291      4.07E-09 Convergence criterion met
 Total energy in the final basis set = -1510.28914933
   14   -1510.2884563884      8.87E-09 Convergence criterion met
 Total energy in the final basis set = -1510.28845639
   14   -1510.2635727509      9.38E-09 Convergence criterion met
 Total energy in the final basis set = -1510.26357275
   15   -1510.2750280096      3.98E-09 Convergence criterion met
 Total energy in the final basis set = -1510.27502801
   15   -1510.2833629411      2.75E-09 Convergence criterion met
 Total energy in the final basis set = -1510.28336294
   14   -1510.2886905482      8.40E-09 Convergence criterion met
 Total energy in the final basis set = -1510.28869055
   14   -1510.2918893500      4.77E-09 Convergence criterion met
   12   -1510.3001918700      4.14E-09 Convergence criterion met
 Total energy in the final basis set = -1510.30019187
   11   -1510.3001915491      8.20E-09 Convergence criterion met
 Total energy in the final basis set = -1510.30019155
   11   -1510.3001993216      4.61E-09 Convergence criterion met
 Total energy in the final basis set = -1510.30019932
   11   -1510.3001981067      1.71E-09 Convergence criterion met
 Total energy in the final basis set = -1510.30019811
   11   -1510.3002002002      1.27E-09 Convergence criterion met
 Total energy in the final basis set = -1510.30020020
    9   -1510.3002021999      7.39E-09 Convergence criterion met
 Total energy in the final basis set = -1510.30020220

             Standard Nuclear Orientation (Angstroms)
    I     Atom           X                Y                Z
 ----------------------------------------------------------------
    1      O      -3.5540807103    -2.2604162833    -1.9805055419
    2      C      -3.0758909857    -1.6599150924    -0.9962886398
    3      C      -3.8397644756    -1.0713111851     0.2446681354
    4      C      -3.4013822589     0.4102981540     0.6163104793
    5      C      -2.3559894212     1.0014625368    -0.3913281908
    6      O      -1.1091890116     1.2317093152     0.2986624453
    7      C      -0.0765881372     1.6921122254    -0.6662292458
    8      C       0.8991660336     2.6843108045     0.0562736600
    9      O       2.0069140780     1.9497412198     0.7180308088
   10      C       3.1111020215     1.8081390461    -0.1892635942
   11      C       4.2088818624     0.9155125638     0.4894379130
   12      C       3.6942303897    -0.5254823561     0.9153594839
   13      C       2.1724096567    -0.7533363981     0.6166980530
   14      O       1.6275334525    -0.7718078114    -0.5145027531
   15      O      -1.6882775348    -1.3958345635    -0.7898524528
   16      O       1.5069730426    -0.9545660575     1.8546690659
   17      O       3.1658548235     2.3392193285    -1.3188366665
   18      C       0.0424090922    -1.1089757787     1.6633522865
   19      C       5.3322095126     0.5406045095    -0.5611761698
   20      C       6.5848000894    -0.0271829463     0.2130254156
   21      C       6.0695485309    -1.4598951248     0.6152059354
   22      C       4.6152232352    -1.4439604060     0.0003667428
   23      O       4.7693842158    -0.6513458576    -1.2394507086
   24      H       4.6136107472     1.4596738278     1.3625650660
   25      H       3.8625527188    -0.7092264462     1.9906543042
   26      H       5.5357529955     1.3416556616    -1.2979686302
   27      H       7.4574933077    -0.0851688410    -0.4566452489
   28      H       6.8503152255     0.5907107428     1.0859547129
   29      H       6.6746222417    -2.2526470474     0.1472533585
   30      H       6.0598770252    -1.6193779370     1.7053119755
   31      H       4.1871497902    -2.4393889600    -0.2275690200
   32      O      -2.5490640224     1.3024886864    -1.5884624500
   33      C      -0.8588122004    -1.8415551471    -1.9321237474
   34      C      -5.3813243149    -0.8740375681    -0.0560899364
   35      C      -6.1383106561    -0.7044665334     1.3181805699
   36      C      -5.6974427012     0.7503489681     1.7279875723
   37      C      -4.7991780626     1.1589025850     0.4933902892
   38      O      -5.4450806887     0.4811441643    -0.6527623340
   39      H      -3.6760767662    -1.7496355429     1.1025732737
   40      H      -2.9833835020     0.4647231427     1.6363973160
   41      H      -1.1264298038    -1.2925926659    -2.8573988334
   42      H      -5.8000957959    -1.6251820372    -0.7540170866
   43      H      -7.2277730037    -0.7673936111     1.1671209184
   44      H      -5.8395367626    -1.4654320320     2.0568949629
   45      H      -6.5622565174     1.4270663195     1.8134699157
   46      H      -5.1349289473     0.7738118915     2.6750436192
   47      H      -4.7212030893     2.2471233081     0.3044952532
   48      H      -0.9724475546    -2.9290833122    -2.1148409814
   49      H       0.1814253183    -1.6004531465    -1.6267790721
   50      H      -0.3716754456    -1.2590968315     2.6768498579
   51      H      -0.1928823352    -1.9910339864     1.0353622694
   52      H      -0.4120509677    -0.2027472148     1.1890505935
   53      H       1.3196385800     3.3910056024    -0.6909229588
   54      H       0.3654219690     3.2421720907     0.8523636006
   55      H      -0.5837365552     2.1685919954    -1.5318101599
   56      H       0.5020406432     0.8030444054    -1.0111548412
 ----------------------------------------------------------------

    9   -1510.3002013314      5.96E-09 Convergence criterion met
 Total energy in the final basis set = -1510.30020133
 Final energy is   -1510.30020133144
 **  OPTIMIZATION CONVERGED  **

                    Orbital Energies (a.u.)
 --------------------------------------------------------------

 Alpha MOs
 -- Occupied --
-18.937 -18.937 -18.935 -18.933 -18.889 -18.888 -18.883 -18.878
-18.877 -18.873 -10.104 -10.103 -10.103 -10.100 -10.073 -10.062
-10.062 -10.061 -10.059 -10.058 -10.049 -10.041 -10.041 -10.040
-10.038 -10.038 -10.022 -10.022 -10.021 -10.020  -1.019  -1.015
 -1.009  -1.006  -0.971  -0.970  -0.943  -0.937  -0.936  -0.936
 -0.766  -0.764  -0.729  -0.724  -0.712  -0.707  -0.698  -0.657
 -0.655  -0.618  -0.598  -0.581  -0.548  -0.545  -0.539  -0.537
 -0.512  -0.511  -0.486  -0.474  -0.459  -0.458  -0.455  -0.453
 -0.437  -0.432  -0.429  -0.418  -0.415  -0.409  -0.401  -0.397
 -0.391  -0.383  -0.372  -0.368  -0.364  -0.362  -0.355  -0.351
 -0.342  -0.341  -0.338  -0.332  -0.331  -0.327  -0.324  -0.312
 -0.311  -0.307  -0.306  -0.302  -0.292  -0.289  -0.285  -0.275
 -0.273  -0.263  -0.254  -0.245  -0.242  -0.236  -0.234  -0.185
 -0.178  -0.174  -0.171  -0.162  -0.158  -0.153  -0.151  -0.145
 -0.144

          Ground-State Mulliken Net Atomic Charges

     Atom                 Charge (a.u.)
  ----------------------------------------
      1 O                    -0.206422
      2 C                     0.212944
      3 C                    -0.078732
      4 C                    -0.078910
      5 C                     0.216391
      6 O                    -0.174865
      7 C                    -0.064122
      8 C                    -0.053662
      9 O                    -0.174545
     10 C                     0.210982
     11 C                    -0.078177
     12 C                    -0.079240
     13 C                     0.218375
     14 O                    -0.228189
     15 O                    -0.176175
     16 O                    -0.166071
     17 O                    -0.208381
     18 C                    -0.148218
     19 C                     0.024316
     20 C                    -0.144170
     21 C                    -0.143706
     22 C                     0.025537
     23 O                    -0.186582
     24 H                     0.086029
     25 H                     0.087156
     26 H                     0.090954
     27 H                     0.078786
     28 H                     0.073258
     29 H                     0.078456
     30 H                     0.073805
     31 H                     0.083041
     32 O                    -0.211308
     33 C                    -0.140270
     34 C                     0.023994
     35 C                    -0.143704
     36 C                    -0.144218
     37 C                     0.025928
     38 O                    -0.185659
     39 H                     0.083438
     40 H                     0.084508
     41 H                     0.089164
     42 H                     0.091353
     43 H                     0.078728
     44 H                     0.072743
     45 H                     0.078548
     46 H                     0.072948
     47 H                     0.083616
     48 H                     0.084000
     49 H                     0.112811
     50 H                     0.079073
     51 H                     0.083939
     52 H                     0.113509
     53 H                     0.099507
     54 H                     0.092155
     55 H                     0.099768
     56 H                     0.105566
  ----------------------------------------
  Sum of atomic charges =    -0.000000

                    Cartesian Multipole Moments
 -----------------------------------------------------------------
    Charge (ESU x 10^10)
                -0.0000
    Dipole Moment (Debye)
         X       1.3856      Y      -0.1338      Z       4.6681
       Tot       4.8713
    Quadrupole Moments (Debye-Ang)
        XX    -152.3154     XY      -0.8125     YY    -154.9620
        XZ      -6.4199     YZ       0.1362     ZZ    -167.8951

 Total job time:  101.53s(wall), 4841.33s(cpu)
        *  Thank you very much for using Q-Chem.  Have a nice day.  *
