 Q-Chem 5.0, Q-Chem, Inc., Pleasanton, CA (2017)
 Q-Chem 5.0.1 for Intel X86 EM64T Linux

User input:
--------------------------------------------------------------
$molecule
0  1
O -3.94934 -3.66094 2.70899
C -3.26408 -4.56952 2.26188
C -3.36658 -6.02376 2.66595
C -2.05412 -6.81733 2.77342
C -0.77332 -6.02398 2.63834
O -0.36675 -6.01766 1.33447
C 0.83822 -5.27405 1.12394
C 1.65485 -5.90364 0.00016
O 1.56335 -5.09521 -1.18346
C 2.26955 -3.93779 -1.1551
C 1.9946 -3.05145 -2.34651
C 0.52158 -2.66121 -2.53677
C -0.38479 -2.90169 -1.34624
O -0.09319 -2.68692 -0.17859
O -2.09074 -4.06385 1.79752
O -1.57528 -3.44192 -1.72538
O 3.0025 -3.60489 -0.23047
C -2.60314 -3.92201 -0.96307
C 2.66204 -1.6639 -2.27433
C 2.79389 -1.08003 -3.6807
C 1.34787 -0.75057 -3.98579
C 0.692 -1.13224 -2.65465
O 1.68078 -0.84293 -1.69548
H 2.38532 -3.60117 -3.2322
H 0.05581 -3.08197 -3.45684
H 3.65456 -1.6739 -1.77377
H 3.36351 -0.12709 -3.59306
H 3.29629 -1.74163 -4.41882
H 1.26635 0.34663 -4.15297
H 0.9039 -1.29996 -4.84396
H -0.27339 -0.59149 -2.53381
O -0.28059 -5.34891 3.53776
C -1.58725 -2.81193 2.17625
C -3.89862 -6.18557 4.10715
C -4.49631 -7.58055 4.29271
C -3.23969 -8.42205 4.32959
C -2.17238 -7.32948 4.22239
O -2.74035 -6.23673 4.9006
H -4.08725 -6.4874 1.95675
H -2.00605 -7.6743 2.06361
H -0.51168 -2.88723 2.41865
H -4.65146 -5.41861 4.3916
H -4.9719 -7.61347 5.29913
H -5.24281 -7.87179 3.52274
H -3.17551 -8.91465 5.32555
H -3.15182 -9.18355 3.52479
H -1.20209 -7.70132 4.62057
H -2.05451 -2.41468 3.10306
H -1.76208 -2.06322 1.38034
H -3.42183 -4.24444 -1.63812
H -3.00461 -3.12153 -0.3114
H -2.26241 -4.82302 -0.41773
H 2.73263 -6.00677 0.27389
H 1.30024 -6.93758 -0.1998
H 1.5087 -5.5239 1.98194
H 0.79386 -4.1891 1.22117
$end

$opt
CONSTRAINT
tors           1           2           3           4    -142.041
tors           3           4           5           6     -92.282
tors           4           5           6           7    +179.512
tors           5           6           7           8    +147.183
tors           6           7           8           9    +105.950
tors           7           8           9          10     +73.899
tors           8           9          10          11    -172.597
tors           9          10          11          12     +57.443
tors          11          12          13          14     +40.774
ENDCONSTRAINT
$end

$rem
JOBTYPE                   OPT
METHOD                    B3LYP
DFT_D                     d3_op
BASIS                     STO-3G
GEOM_OPT_MAX_CYCLES       100
GEOM_OPT_TOL_GRADIENT     300
GEOM_OPT_TOL_DISPLACEMENT 1200
GEOM_OPT_TOL_ENERGY       100
SYMMETRY                  False
THRESH                    12
SCF_CONVERGENCE           8
MAX_SUB_FILE_NUM          128
MEM_STATIC                400
MEM_TOTAL                 4000
$end
--------------------------------------------------------------

   16   -1510.1169748900      2.23E-09 Convergence criterion met
 Total energy in the final basis set = -1510.11697489
   14   -1510.1867029304      4.27E-09 Convergence criterion met
 Total energy in the final basis set = -1510.18670293
   14   -1510.2315974425      6.99E-09 Convergence criterion met
 Total energy in the final basis set = -1510.23159744
   13   -1510.2568396065      9.28E-09 Convergence criterion met
 Total energy in the final basis set = -1510.25683961
   13   -1510.2707247977      8.42E-09 Convergence criterion met
 Total energy in the final basis set = -1510.27072480
   13   -1510.2787877717      4.22E-09 Convergence criterion met
 Total energy in the final basis set = -1510.27878777
   13   -1510.2835100153      4.69E-09 Convergence criterion met
 Total energy in the final basis set = -1510.28351002
   13   -1510.2866435917      5.99E-09 Convergence criterion met
   12   -1510.2938165707      6.78E-09 Convergence criterion met
 Total energy in the final basis set = -1510.29381657
   11   -1510.2939079874      9.16E-09 Convergence criterion met
 Total energy in the final basis set = -1510.29390799
   12   -1510.2939532119      2.47E-09 Convergence criterion met
 Total energy in the final basis set = -1510.29395321
   11   -1510.2939651736      4.34E-09 Convergence criterion met
 Total energy in the final basis set = -1510.29396517
    9   -1510.2939683185      8.33E-09 Convergence criterion met
 Total energy in the final basis set = -1510.29396832
    9   -1510.2939705307      3.95E-09 Convergence criterion met
 Total energy in the final basis set = -1510.29397053

             Standard Nuclear Orientation (Angstroms)
    I     Atom           X                Y                Z
 ----------------------------------------------------------------
    1      O      -3.3489247378    -2.5429048127    -1.4446237062
    2      C      -2.9755428114    -1.5859940611    -0.7337219043
    3      C      -3.8313703904    -0.8445711915     0.3610165809
    4      C      -3.6152970347     0.7283852232     0.4409319333
    5      C      -2.3902181417     1.2694831577    -0.3766456971
    6      O      -1.2627606730     1.3026760060     0.5089746000
    7      C      -0.0630278139     1.7964480443    -0.2090440914
    8      C       0.8349737365     2.5993769732     0.8024297517
    9      O       2.0481362485     1.8410754043     1.1983138701
   10      C       3.0025103319     1.8195415252     0.1293864164
   11      C       4.1626716001     0.8482885335     0.5484995919
   12      C       3.7078168024    -0.6311358618     0.8884183412
   13      C       2.2263177423    -0.9500709676     0.4920638987
   14      O       1.6396307014    -0.5891062488    -0.5578032018
   15      O      -1.6599928895    -1.0249086892    -0.7786745544
   16      O       1.6493122217    -1.7265540805     1.5338700493
   17      O       2.9048620405     2.4838848534    -0.9235774361
   18      C       0.2608626195    -2.1477144843     1.2228213579
   19      C       5.1998317112     0.5986887093    -0.6241964658
   20      C       6.5546515649     0.1167766625     0.0232909084
   21      C       6.1619292650    -1.3361543857     0.4841903829
   22      C       4.6852478243    -1.4490378807    -0.0683017234
   23      O       4.6948056663    -0.6228942867    -1.2956158447
   24      H       4.6643210316     1.2902815674     1.4294183331
   25      H       3.8504735706    -0.8822471746     1.9534989393
   26      H       5.2727564984     1.4350888196    -1.3464685335
   27      H       7.3565944406     0.0966530806    -0.7319617666
   28      H       6.8711199727     0.7594497740     0.8602646696
   29      H       6.8061822576    -2.0987510293     0.0187569433
   30      H       6.2023577741    -1.4599217756     1.5783287048
   31      H       4.3461476280    -2.4787602770    -0.2949273219
   32      O      -2.3878316592     1.6973481409    -1.5515860848
   33      C      -0.8700509604    -1.5784975642    -1.9062788671
   34      C      -5.3553955302    -0.9094495143    -0.0647609964
   35      C      -6.2586668135    -0.4261997698     1.1375497892
   36      C      -6.0616717416     1.1340419865     1.0646923400
   37      C      -5.0128277784     1.2475908118    -0.1096514506
   38      O      -5.4496907826     0.1921338790    -1.0519366532
   39      H      -3.6431335718    -1.3229570108     1.3403496500
   40      H      -3.4681819006     1.0285355928     1.4934479118
   41      H      -1.1802791309    -1.1068754949    -2.8599749538
   42      H      -5.6429769729    -1.8727457048    -0.5295754356
   43      H      -7.3094448880    -0.7113426868     0.9706633101
   44      H      -5.9267459243    -0.8514272376     2.0983590859
   45      H      -6.9991815210     1.6440628372     0.7911657590
   46      H      -5.6862043318     1.5634311514     2.0072240588
   47      H      -4.9673191344     2.2276170704    -0.6227654544
   48      H      -1.0029174370    -2.6753493857    -1.9857031899
   49      H       0.1827810296    -1.3194864232    -1.6661008088
   50      H      -0.2054436055    -2.3927002442     2.1947607903
   51      H       0.2723378500    -3.0590633752     0.5903654085
   52      H      -0.3362372645    -1.3666672717     0.7007801475
   53      H       1.1231337717     3.5774431471     0.3615353944
   54      H       0.2739921178     2.7727308135     1.7433927120
   55      H      -0.3805297360     2.4239630120    -1.0681520305
   56      H       0.5154670173     0.9206645809    -0.5895658592
 ----------------------------------------------------------------

    8   -1510.2939707911      6.81E-09 Convergence criterion met
 Total energy in the final basis set = -1510.29397079
 Final energy is   -1510.29397079108
 **  OPTIMIZATION CONVERGED  **

                    Orbital Energies (a.u.)
 --------------------------------------------------------------

 Alpha MOs
 -- Occupied --
-18.948 -18.941 -18.930 -18.918 -18.891 -18.887 -18.884 -18.881
-18.878 -18.861 -10.113 -10.103 -10.101 -10.092 -10.069 -10.065
-10.060 -10.060 -10.057 -10.056 -10.050 -10.049 -10.044 -10.040
-10.039 -10.033 -10.024 -10.022 -10.019 -10.018  -1.022  -1.016
 -1.011  -0.998  -0.974  -0.968  -0.947  -0.940  -0.938  -0.925
 -0.767  -0.761  -0.728  -0.722  -0.712  -0.705  -0.692  -0.668
 -0.656  -0.616  -0.598  -0.580  -0.548  -0.543  -0.539  -0.535
 -0.516  -0.508  -0.482  -0.478  -0.465  -0.458  -0.454  -0.449
 -0.435  -0.432  -0.423  -0.416  -0.413  -0.408  -0.407  -0.402
 -0.394  -0.382  -0.373  -0.369  -0.363  -0.358  -0.356  -0.347
 -0.346  -0.340  -0.334  -0.332  -0.329  -0.327  -0.325  -0.314
 -0.310  -0.307  -0.306  -0.304  -0.298  -0.286  -0.285  -0.275
 -0.270  -0.260  -0.251  -0.244  -0.239  -0.237  -0.232  -0.188
 -0.179  -0.177  -0.166  -0.161  -0.156  -0.154  -0.147  -0.143
 -0.142

          Ground-State Mulliken Net Atomic Charges

     Atom                 Charge (a.u.)
  ----------------------------------------
      1 O                    -0.208071
      2 C                     0.213254
      3 C                    -0.077789
      4 C                    -0.081372
      5 C                     0.214813
      6 O                    -0.179846
      7 C                    -0.067945
      8 C                    -0.051654
      9 O                    -0.177663
     10 C                     0.211387
     11 C                    -0.079121
     12 C                    -0.077078
     13 C                     0.223225
     14 O                    -0.219659
     15 O                    -0.171788
     16 O                    -0.163649
     17 O                    -0.208455
     18 C                    -0.140877
     19 C                     0.024321
     20 C                    -0.143114
     21 C                    -0.144293
     22 C                     0.025466
     23 O                    -0.186818
     24 H                     0.085114
     25 H                     0.089400
     26 H                     0.091978
     27 H                     0.079060
     28 H                     0.073671
     29 H                     0.078957
     30 H                     0.074228
     31 H                     0.081966
     32 O                    -0.220353
     33 C                    -0.141366
     34 C                     0.023717
     35 C                    -0.144904
     36 C                    -0.143185
     37 C                     0.024562
     38 O                    -0.188841
     39 H                     0.083291
     40 H                     0.082846
     41 H                     0.089961
     42 H                     0.090176
     43 H                     0.078294
     44 H                     0.072210
     45 H                     0.077920
     46 H                     0.072520
     47 H                     0.087008
     48 H                     0.087942
     49 H                     0.112876
     50 H                     0.088028
     51 H                     0.081332
     52 H                     0.113525
     53 H                     0.090793
     54 H                     0.092950
     55 H                     0.096284
     56 H                     0.104766
  ----------------------------------------
  Sum of atomic charges =    -0.000000

                    Cartesian Multipole Moments
 -----------------------------------------------------------------
    Charge (ESU x 10^10)
                 0.0000
    Dipole Moment (Debye)
         X       1.6229      Y      -0.7630      Z       4.6163
       Tot       4.9524
    Quadrupole Moments (Debye-Ang)
        XX    -148.3113     XY      -3.8067     YY    -157.1268
        XZ      -5.7346     YZ       1.9355     ZZ    -166.8441

 Total job time:  105.55s(wall), 5031.80s(cpu)
        *  Thank you very much for using Q-Chem.  Have a nice day.  *
