 Q-Chem 5.0, Q-Chem, Inc., Pleasanton, CA (2017)
 Q-Chem 5.0.1 for Intel X86 EM64T Linux

User input:
--------------------------------------------------------------
$molecule
0  1
O -3.94934 -3.66094 2.70899
C -3.26408 -4.56952 2.26188
C -3.36658 -6.02376 2.66595
C -2.05019 -6.77953 2.91047
C -0.78452 -5.95129 2.89714
O -0.25 -5.94091 1.64031
C 0.94916 -5.16494 1.54476
C 1.91394 -5.8082 0.55402
O 1.94252 -5.04869 -0.66467
C 2.62661 -3.87915 -0.60696
C 2.47247 -3.04509 -1.85646
C 1.0547 -2.51106 -2.10746
C 0.10533 -2.577 -0.92803
O 0.40229 -2.3441 0.23478
O -2.0435 -4.06755 1.92945
O -1.17926 -2.43558 -1.35842
O 3.30897 -3.53083 0.35011
C -2.30415 -2.14301 -0.63116
C 3.26976 -1.72188 -1.83691
C 3.51343 -1.24605 -3.26871
C 2.11658 -0.81534 -3.66441
C 1.38033 -1.0224 -2.33645
O 2.35825 -0.76614 -1.35806
H 2.84945 -3.6673 -2.69944
H 0.564 -2.98528 -2.98733
H 4.23725 -1.79348 -1.29396
H 4.15876 -0.34044 -3.20525
H 3.99102 -1.98758 -3.94464
H 2.14545 0.26381 -3.93405
H 1.65169 -1.4024 -4.48589
H 0.47188 -0.38099 -2.29389
O -0.24437 -5.50177 3.904
C -1.57291 -2.88098 2.51216
C -4.05903 -6.19727 4.03284
C -4.62307 -7.61236 4.16058
C -3.35041 -8.40262 4.36297
C -2.31773 -7.27224 4.35252
O -2.99623 -6.1955 4.94972
H -3.97568 -6.50914 1.87197
H -1.89759 -7.66609 2.25399
H -1.60157 -2.97371 3.6199
H -4.86744 -5.45713 4.21866
H -5.22201 -7.66141 5.09803
H -5.25178 -7.93299 3.3021
H -3.38181 -8.86477 5.37515
H -3.14603 -9.18345 3.599
H -1.39058 -7.60987 4.86691
H -2.1923 -2.00923 2.21513
H -0.53094 -2.67215 2.27594
H -3.13708 -1.94525 -1.33626
H -2.14464 -1.23338 -0.01559
H -2.60733 -3.01481 -0.04147
H 2.95273 -5.87319 0.95873
H 1.61333 -6.85935 0.35528
H 1.53417 -5.32362 2.48061
H 0.84725 -4.09067 1.54042
$end

$opt
CONSTRAINT
tors           1           2           3           4    -136.079
tors           3           4           5           6     -92.282
tors           4           5           6           7    +179.512
tors           5           6           7           8    +144.951
tors           6           7           8           9    +105.950
tors           7           8           9          10     +75.062
tors           8           9          10          11    -172.583
tors           9          10          11          12     +66.203
tors          11          12          13          14     +39.440
ENDCONSTRAINT
$end

$rem
JOBTYPE                   OPT
METHOD                    B3LYP
DFT_D                     d3_op
BASIS                     STO-3G
GEOM_OPT_MAX_CYCLES       100
GEOM_OPT_TOL_GRADIENT     300
GEOM_OPT_TOL_DISPLACEMENT 1200
GEOM_OPT_TOL_ENERGY       100
SYMMETRY                  False
THRESH                    12
SCF_CONVERGENCE           8
MAX_SUB_FILE_NUM          128
MEM_STATIC                400
MEM_TOTAL                 4000
$end
--------------------------------------------------------------

   16   -1510.1140162776      2.04E-09 Convergence criterion met
 Total energy in the final basis set = -1510.11401628
   14   -1510.1886883257      4.11E-09 Convergence criterion met
 Total energy in the final basis set = -1510.18868833
   14   -1510.2202710261      9.05E-09 Convergence criterion met
 Total energy in the final basis set = -1510.22027103
    2   -1510.2202710262      4.79E-09 Convergence criterion met
 Total energy in the final basis set = -1510.22027103
   14   -1510.2547642067      9.99E-09 Convergence criterion met
 Total energy in the final basis set = -1510.25476421
   14   -1510.2673954751      4.46E-09 Convergence criterion met
 Total energy in the final basis set = -1510.26739548
   14   -1510.2761944480      3.57E-09 Convergence criterion met
 Total energy in the final basis set = -1510.27619445
   13   -1510.2822557801      7.78E-09 Convergence criterion met
   11   -1510.2934173602      8.95E-09 Convergence criterion met
 Total energy in the final basis set = -1510.29341736
   11   -1510.2934926242      6.99E-09 Convergence criterion met
 Total energy in the final basis set = -1510.29349262
   11   -1510.2935335473      5.87E-09 Convergence criterion met
 Total energy in the final basis set = -1510.29353355
   11   -1510.2935622170      4.55E-09 Convergence criterion met
 Total energy in the final basis set = -1510.29356222
   11   -1510.2935753626      2.94E-09 Convergence criterion met
 Total energy in the final basis set = -1510.29357536
    9   -1510.2935796916      7.66E-09 Convergence criterion met
 Total energy in the final basis set = -1510.29357969

             Standard Nuclear Orientation (Angstroms)
    I     Atom           X                Y                Z
 ----------------------------------------------------------------
    1      O      -3.3947111100    -2.5553771856    -1.4596026168
    2      C      -2.9956941160    -1.6435826787    -0.7051728355
    3      C      -3.8392785065    -0.9070051479     0.4040847551
    4      C      -3.6523320099     0.6728807519     0.4322692875
    5      C      -2.4324223187     1.1850992783    -0.4094041923
    6      O      -1.3081399533     1.2596853233     0.4765713934
    7      C      -0.1098404014     1.7280652427    -0.2572963426
    8      C       0.7717028220     2.6268884335     0.6840908546
    9      O       1.9959634805     1.9183275591     1.1352621743
   10      C       2.9627361171     1.8461799966     0.0816739234
   11      C       4.1312544747     0.9231064315     0.5819225421
   12      C       3.7428380831    -0.5985357356     0.8071198624
   13      C       2.2873238520    -0.9862959840     0.3793355737
   14      O       1.6592178349    -0.5864007563    -0.6317323831
   15      O      -1.6626283371    -1.1171095044    -0.7290237370
   16      O       1.7811723098    -1.8831241932     1.3604591227
   17      O       2.8717328064     2.4420840242    -1.0120192328
   18      C       0.4161564607    -2.3678571123     1.0404135890
   19      C       5.2744349603     0.7907905587    -0.5097305640
   20      C       6.5914764423     0.2999283569     0.2059052536
   21      C       6.2295975761    -1.2028694063     0.5016576236
   22      C       4.7962373937    -1.3088131547    -0.1553873757
   23      O       4.8602534616    -0.3868006608    -1.3090398088
   24      H       4.5199627245     1.3506934776     1.5242902816
   25      H       3.8780916742    -0.9052090760     1.8587224541
   26      H       5.3769822368     1.6799118629    -1.1617976548
   27      H       7.4518961711     0.3793740352    -0.4774430835
   28      H       6.8113245399     0.8737601572     1.1203121115
   29      H       6.9312709624    -1.8950713333     0.0098935772
   30      H       6.2062085496    -1.4295532386     1.5795657629
   31      H       4.5033583034    -2.3251602995    -0.4838760898
   32      O      -2.4294494371     1.5582685967    -1.6029860254
   33      C      -0.9139652797    -1.6018593761    -1.9157504081
   34      C      -5.3688692601    -1.0112400383     0.0095447293
   35      C      -6.2602614884    -0.4974227863     1.2079187015
   36      C      -6.0940516268     1.0622096406     1.0711561236
   37      C      -5.0627289137     1.1487440012    -0.1214751767
   38      O      -5.4957926059     0.0513787592    -1.0166577694
   39      H      -3.6156062577    -1.3571177099     1.3890803137
   40      H      -3.5007771732     1.0105485449     1.4726545064
   41      H      -1.2760002194    -1.0938343930    -2.8317678422
   42      H      -5.6495687200    -1.9941740340    -0.4165519521
   43      H      -7.3081554743    -0.8080164836     1.0711346352
   44      H      -5.9040038503    -0.8784746816     2.1784937594
   45      H      -7.0444270818     1.5440342099     0.7910176408
   46      H      -5.7142762585     1.5347884171     1.9910453471
   47      H      -5.0407560534     2.1095225249    -0.6711959631
   48      H      -1.0260361765    -2.6968295310    -2.0410948243
   49      H       0.1434167617    -1.3310556080    -1.7132306187
   50      H      -0.0003043128    -2.7426049651     1.9935177683
   51      H       0.4673039903    -3.2078002495     0.3174630541
   52      H      -0.2494808175    -1.5806059288     0.6199417146
   53      H       1.0460131940     3.5676194566     0.1610749650
   54      H       0.2105529913     2.8705850822     1.6091980829
   55      H      -0.4358457936     2.2830911933    -1.1621342977
   56      H       0.4914403891     0.8423220822    -0.5755549004
 ----------------------------------------------------------------

    9   -1510.2935806638      5.91E-09 Convergence criterion met
 Total energy in the final basis set = -1510.29358066
 Final energy is   -1510.29358066376
 **  OPTIMIZATION CONVERGED  **

                    Orbital Energies (a.u.)
 --------------------------------------------------------------

 Alpha MOs
 -- Occupied --
-18.949 -18.941 -18.929 -18.918 -18.891 -18.890 -18.884 -18.882
-18.877 -18.861 -10.115 -10.103 -10.100 -10.092 -10.068 -10.065
-10.061 -10.060 -10.057 -10.057 -10.051 -10.046 -10.044 -10.040
-10.039 -10.033 -10.024 -10.022 -10.020 -10.018  -1.022  -1.016
 -1.010  -0.998  -0.974  -0.968  -0.948  -0.940  -0.937  -0.925
 -0.767  -0.761  -0.728  -0.722  -0.713  -0.705  -0.692  -0.669
 -0.657  -0.616  -0.598  -0.579  -0.548  -0.544  -0.539  -0.535
 -0.517  -0.507  -0.482  -0.477  -0.464  -0.457  -0.454  -0.450
 -0.435  -0.432  -0.424  -0.416  -0.414  -0.409  -0.407  -0.402
 -0.394  -0.382  -0.374  -0.366  -0.363  -0.358  -0.355  -0.348
 -0.346  -0.341  -0.334  -0.333  -0.329  -0.327  -0.325  -0.313
 -0.310  -0.307  -0.306  -0.305  -0.298  -0.285  -0.284  -0.274
 -0.271  -0.261  -0.250  -0.246  -0.238  -0.237  -0.232  -0.190
 -0.179  -0.177  -0.168  -0.161  -0.156  -0.153  -0.148  -0.144
 -0.142

          Ground-State Mulliken Net Atomic Charges

     Atom                 Charge (a.u.)
  ----------------------------------------
      1 O                    -0.205967
      2 C                     0.213244
      3 C                    -0.077559
      4 C                    -0.081214
      5 C                     0.214189
      6 O                    -0.179435
      7 C                    -0.069977
      8 C                    -0.052000
      9 O                    -0.177952
     10 C                     0.211278
     11 C                    -0.079212
     12 C                    -0.077615
     13 C                     0.222359
     14 O                    -0.217980
     15 O                    -0.172413
     16 O                    -0.163986
     17 O                    -0.208047
     18 C                    -0.140724
     19 C                     0.024788
     20 C                    -0.143737
     21 C                    -0.143920
     22 C                     0.025764
     23 O                    -0.186518
     24 H                     0.085462
     25 H                     0.089337
     26 H                     0.091211
     27 H                     0.079066
     28 H                     0.073790
     29 H                     0.078914
     30 H                     0.074244
     31 H                     0.082198
     32 O                    -0.221132
     33 C                    -0.140550
     34 C                     0.023665
     35 C                    -0.145011
     36 C                    -0.142959
     37 C                     0.024327
     38 O                    -0.188708
     39 H                     0.083666
     40 H                     0.083415
     41 H                     0.091245
     42 H                     0.090201
     43 H                     0.078301
     44 H                     0.072300
     45 H                     0.077952
     46 H                     0.072603
     47 H                     0.087010
     48 H                     0.087469
     49 H                     0.111388
     50 H                     0.088472
     51 H                     0.081832
     52 H                     0.112568
     53 H                     0.091182
     54 H                     0.092319
     55 H                     0.095642
     56 H                     0.105213
  ----------------------------------------
  Sum of atomic charges =     0.000000

                    Cartesian Multipole Moments
 -----------------------------------------------------------------
    Charge (ESU x 10^10)
                -0.0000
    Dipole Moment (Debye)
         X       1.5639      Y      -0.8218      Z       4.6473
       Tot       4.9718
    Quadrupole Moments (Debye-Ang)
        XX    -149.2927     XY      -4.2001     YY    -156.0650
        XZ      -5.3123     YZ       1.9108     ZZ    -167.2331

 Total job time:  62.32s(wall), 2968.19s(cpu)
        *  Thank you very much for using Q-Chem.  Have a nice day.  *
