 Q-Chem 5.0, Q-Chem, Inc., Pleasanton, CA (2017)
 Q-Chem 5.0.1 for Intel X86 EM64T Linux

User input:
--------------------------------------------------------------
$molecule
0  1
O -3.39471111 -2.5553771856 -1.4596026168
C -2.995694116 -1.6435826787 -0.7051728355
C -3.8392785065 -0.9070051479 0.4040847551
C -3.6523320099 0.6728807519 0.4322692875
C -2.4324223187 1.1850992783 -0.4094041923
O -1.3081399533 1.2596853233 0.4765713934
C -0.1098404014 1.7280652427 -0.2572963426
C 0.771702822 2.6268884335 0.6840908546
O 1.9959634805 1.9183275591 1.1352621743
C 2.9627361171 1.8461799966 0.0816739234
C 4.1312544747 0.9231064315 0.5819225421
C 3.7428380831 -0.5985357356 0.8071198624
C 2.287323852 -0.986295984 0.3793355737
O 1.6592178349 -0.5864007563 -0.6317323831
O -1.6626283371 -1.1171095044 -0.729023737
O 1.7811723098 -1.8831241932 1.3604591227
O 2.8717328064 2.4420840242 -1.0120192328
C 0.4161564607 -2.3678571123 1.040413589
C 5.2744349603 0.7907905587 -0.509730564
C 6.5914764423 0.2999283569 0.2059052536
C 6.2295975761 -1.2028694063 0.5016576236
C 4.7962373937 -1.3088131547 -0.1553873757
O 4.8602534616 -0.3868006608 -1.3090398088
H 4.5199627245 1.3506934776 1.5242902816
H 3.8780916742 -0.905209076 1.8587224541
H 5.3769822368 1.6799118629 -1.1617976548
H 7.4518961711 0.3793740352 -0.4774430835
H 6.8113245399 0.8737601572 1.1203121115
H 6.9312709624 -1.8950713333 0.0098935772
H 6.2062085496 -1.4295532386 1.5795657629
H 4.5033583034 -2.3251602995 -0.4838760898
O -2.4294494371 1.5582685967 -1.6029860254
C -0.9139652797 -1.6018593761 -1.9157504081
C -5.3688692601 -1.0112400383 0.0095447293
C -6.2602614884 -0.4974227863 1.2079187015
C -6.0940516268 1.0622096406 1.0711561236
C -5.0627289137 1.1487440012 -0.1214751767
O -5.4957926059 0.0513787592 -1.0166577694
H -3.6156062577 -1.3571177099 1.3890803137
H -3.5007771732 1.0105485449 1.4726545064
H -1.2760002194 -1.093834393 -2.8317678422
H -5.64956872 -1.994174034 -0.4165519521
H -7.3081554743 -0.8080164836 1.0711346352
H -5.9040038503 -0.8784746816 2.1784937594
H -7.0444270818 1.5440342099 0.7910176408
H -5.7142762585 1.5347884171 1.9910453471
H -5.0407560534 2.1095225249 -0.6711959631
H -1.0260361765 -2.696829531 -2.0410948243
H 0.1434167617 -1.331055608 -1.7132306187
H -0.0003043128 -2.7426049651 1.9935177683
H 0.4673039903 -3.2078002495 0.3174630541
H -0.2494808175 -1.5806059288 0.6199417146
H 1.046013194 3.5676194566 0.161074965
H 0.2105529913 2.8705850822 1.6091980829
H -0.4358457936 2.2830911933 -1.1621342977
H 0.4914403891 0.8423220822 -0.5755549004
$end

$rem
JOBTYPE                   OPT
METHOD                    B3LYP
DFT_D                     d3_op
BASIS                     STO-3G
GEOM_OPT_MAX_CYCLES       100
GEOM_OPT_TOL_GRADIENT     300
GEOM_OPT_TOL_DISPLACEMENT 1200
GEOM_OPT_TOL_ENERGY       100
SYMMETRY                  False
THRESH                    12
SCF_CONVERGENCE           8
MAX_SUB_FILE_NUM          128
MEM_STATIC                400
MEM_TOTAL                 4000
$end
--------------------------------------------------------------

   16   -1510.2935247038      4.11E-09 Convergence criterion met
 Total energy in the final basis set = -1510.29352470
   15   -1510.2874330885      5.47E-09 Convergence criterion met
 Total energy in the final basis set = -1510.28743309
   14   -1510.2904584954      8.79E-09 Convergence criterion met
 Total energy in the final basis set = -1510.29045850
   15   -1510.2781806987      5.01E-09 Convergence criterion met
 Total energy in the final basis set = -1510.27818070
   14   -1510.2820802606      4.99E-09 Convergence criterion met
 Total energy in the final basis set = -1510.28208026
   14   -1510.2883892504      2.82E-09 Convergence criterion met
 Total energy in the final basis set = -1510.28838925
   15   -1510.2911465060      2.14E-09 Convergence criterion met
 Total energy in the final basis set = -1510.29114651
   14   -1510.2944106212      5.91E-09 Convergence criterion met
   13   -1510.3002410763      3.80E-09 Convergence criterion met
 Total energy in the final basis set = -1510.30024108
   12   -1510.3002035184      5.03E-09 Convergence criterion met
 Total energy in the final basis set = -1510.30020352
   11   -1510.3002618818      6.31E-09 Convergence criterion met
 Total energy in the final basis set = -1510.30026188
   11   -1510.3002615381      4.29E-09 Convergence criterion met
 Total energy in the final basis set = -1510.30026154
   10   -1510.3002660419      9.18E-09 Convergence criterion met
 Total energy in the final basis set = -1510.30026604
    9   -1510.3002673515      7.50E-09 Convergence criterion met
 Total energy in the final basis set = -1510.30026735

             Standard Nuclear Orientation (Angstroms)
    I     Atom           X                Y                Z
 ----------------------------------------------------------------
    1      O       3.5920021746    -2.1362391502     2.0902167811
    2      C       3.1060176310    -1.5964219222     1.0755294195
    3      C       3.8548917555    -1.0618469065    -0.1991840751
    4      C       3.3968965758     0.3966886902    -0.6320389216
    5      C       2.3619240060     1.0209474183     0.3653575875
    6      O       1.1008441504     1.2021608124    -0.3130371204
    7      C       0.0764074056     1.6912398451     0.6459084411
    8      C      -0.8942608306     2.6768482015    -0.0915626007
    9      O      -1.9979614351     1.9353555408    -0.7518936553
   10      C      -3.1006812915     1.7894920170     0.1561408986
   11      C      -4.1976416842     0.8998129439    -0.5283396531
   12      C      -3.6931237835    -0.5577606158    -0.9078731995
   13      C      -2.1773099335    -0.7924058956    -0.5821676827
   14      O      -1.6420657915    -0.7768678870     0.5537014389
   15      O       1.7144679144    -1.3644378106     0.8514238900
   16      O      -1.5023648384    -1.0372448073    -1.8070849316
   17      O      -3.1554749394     2.3158774409     1.2878150105
   18      C      -0.0408467477    -1.1934614861    -1.5972902956
   19      C      -5.3527472743     0.5646736013     0.5007895414
   20      C      -6.5916078516    -0.0086685971    -0.2916927459
   21      C      -6.0840912504    -1.4575105008    -0.6428061267
   22      C      -4.6456893244    -1.4418390830     0.0094136165
   23      O      -4.8226403207    -0.6158048204     1.2238495099
   24      H      -4.5721561078     1.4295180779    -1.4234459783
   25      H      -3.8451773350    -0.7659421434    -1.9811229585
   26      H      -5.5674637377     1.3858975260     1.2117100019
   27      H      -7.4820556955    -0.0391056310     0.3560948198
   28      H      -6.8269518402     0.5890141405    -1.1871156651
   29      H      -6.7108766110    -2.2305551395    -0.1704468554
   30      H      -6.0480658196    -1.6456690484    -1.7277495087
   31      H      -4.2358299586    -2.4360131831     0.2734739112
   32      O       2.5693222106     1.3766429879     1.5450329491
   33      C       0.8816649991    -1.7604668920     2.0091322396
   34      C       5.3977634978    -0.8359208825     0.0691557165
   35      C       6.1316178148    -0.7238877979    -1.3234051924
   36      C       5.6708129562     0.7064697430    -1.7935199839
   37      C       4.7872476195     1.1637348732    -0.5653222510
   38      O       5.4571240453     0.5463373748     0.6012094631
   39      H       3.6853025783    -1.7808689730    -1.0221034745
   40      H       2.9612903892     0.4004328664    -1.6462558108
   41      H       1.1350114196    -1.1609406005     2.9066732957
   42      H       5.8349812853    -1.5495669538     0.7944454628
   43      H       7.2238187696    -0.7703999435    -1.1873164782
   44      H       5.8280879425    -1.5208453439    -2.0209789799
   45      H       6.5276882584     1.3860157552    -1.9247712413
   46      H       5.0931352724     0.6807769392    -2.7314806937
   47      H       4.7000565792     2.2587592356    -0.4263986417
   48      H       1.0057502931    -2.8356526321     2.2490346998
   49      H      -0.1597272310    -1.5479973391     1.6860369738
   50      H       0.3815682692    -1.3787272239    -2.6014955639
   51      H       0.1825572007    -2.0566886050    -0.9396886574
   52      H       0.4133681142    -0.2740277731    -1.1490025514
   53      H      -1.3176447182     3.3916833081     0.6462418785
   54      H      -0.3569267727     3.2262588636    -0.8910476184
   55      H       0.5927423089     2.1799051096     1.4992866875
   56      H      -0.5092144333     0.8145223754     1.0099172004
 ----------------------------------------------------------------

    9   -1510.3002666930      5.50E-09 Convergence criterion met
 Total energy in the final basis set = -1510.30026669
 Final energy is   -1510.30026669303
 **  OPTIMIZATION CONVERGED  **

                    Orbital Energies (a.u.)
 --------------------------------------------------------------

 Alpha MOs
 -- Occupied --
-18.938 -18.937 -18.935 -18.933 -18.889 -18.888 -18.882 -18.879
-18.877 -18.874 -10.104 -10.103 -10.103 -10.100 -10.073 -10.062
-10.062 -10.060 -10.059 -10.058 -10.050 -10.042 -10.041 -10.040
-10.039 -10.038 -10.022 -10.022 -10.021 -10.021  -1.019  -1.015
 -1.009  -1.006  -0.971  -0.970  -0.943  -0.938  -0.937  -0.936
 -0.766  -0.764  -0.729  -0.724  -0.712  -0.707  -0.698  -0.657
 -0.655  -0.618  -0.598  -0.581  -0.549  -0.545  -0.539  -0.537
 -0.512  -0.511  -0.486  -0.474  -0.459  -0.458  -0.455  -0.453
 -0.437  -0.432  -0.430  -0.418  -0.416  -0.409  -0.401  -0.398
 -0.391  -0.383  -0.372  -0.368  -0.364  -0.362  -0.355  -0.352
 -0.342  -0.341  -0.338  -0.332  -0.331  -0.327  -0.325  -0.312
 -0.311  -0.307  -0.306  -0.302  -0.292  -0.289  -0.285  -0.275
 -0.273  -0.263  -0.254  -0.245  -0.242  -0.235  -0.234  -0.185
 -0.178  -0.174  -0.171  -0.162  -0.159  -0.153  -0.151  -0.145
 -0.144

          Ground-State Mulliken Net Atomic Charges

     Atom                 Charge (a.u.)
  ----------------------------------------
      1 O                    -0.205719
      2 C                     0.213108
      3 C                    -0.078567
      4 C                    -0.078790
      5 C                     0.216394
      6 O                    -0.174900
      7 C                    -0.064340
      8 C                    -0.053455
      9 O                    -0.174823
     10 C                     0.210707
     11 C                    -0.078185
     12 C                    -0.079226
     13 C                     0.217746
     14 O                    -0.227573
     15 O                    -0.176585
     16 O                    -0.166091
     17 O                    -0.208322
     18 C                    -0.147890
     19 C                     0.024469
     20 C                    -0.144203
     21 C                    -0.143648
     22 C                     0.025507
     23 O                    -0.186465
     24 H                     0.085979
     25 H                     0.087184
     26 H                     0.090675
     27 H                     0.078754
     28 H                     0.073243
     29 H                     0.078398
     30 H                     0.073773
     31 H                     0.083046
     32 O                    -0.211399
     33 C                    -0.140137
     34 C                     0.023900
     35 C                    -0.143681
     36 C                    -0.144155
     37 C                     0.025829
     38 O                    -0.185511
     39 H                     0.083554
     40 H                     0.084711
     41 H                     0.089106
     42 H                     0.091193
     43 H                     0.078772
     44 H                     0.072782
     45 H                     0.078566
     46 H                     0.072941
     47 H                     0.083669
     48 H                     0.084120
     49 H                     0.112321
     50 H                     0.079248
     51 H                     0.083759
     52 H                     0.113794
     53 H                     0.099187
     54 H                     0.091957
     55 H                     0.100251
     56 H                     0.105020
  ----------------------------------------
  Sum of atomic charges =    -0.000000

                    Cartesian Multipole Moments
 -----------------------------------------------------------------
    Charge (ESU x 10^10)
                -0.0000
    Dipole Moment (Debye)
         X      -1.3567      Y      -0.3078      Z      -4.6873
       Tot       4.8894
    Quadrupole Moments (Debye-Ang)
        XX    -152.9591     XY       0.0939     YY    -154.7673
        XZ      -6.2411     YZ      -0.5655     ZZ    -167.8609

 Total job time:  92.82s(wall), 4426.65s(cpu)
        *  Thank you very much for using Q-Chem.  Have a nice day.  *
