 Q-Chem 5.0, Q-Chem, Inc., Pleasanton, CA (2017)
 Q-Chem 5.0.1 for Intel X86 EM64T Linux

User input:
--------------------------------------------------------------
$molecule
0  1
O -3.94934 -3.66094 2.70899
C -3.26408 -4.56952 2.26188
C -3.36658 -6.02376 2.66595
C -2.1637 -6.92746 2.34928
C -0.92277 -6.23941 1.8251
O -0.57237 -6.77162 0.61705
C -1.31617 -7.94825 0.28302
C -1.23199 -8.21534 -1.21622
O -0.70497 -9.53079 -1.45015
C -0.20839 -9.74742 -2.69338
C -1.12874 -10.57508 -3.55858
C -2.62163 -10.44833 -3.22166
C -3.00276 -9.27648 -2.33951
O -3.59047 -9.35574 -1.27045
O -2.53148 -4.28286 1.15171
O -3.27536 -8.14426 -3.06698
O 0.62717 -9.00052 -3.18515
C -4.07744 -7.09693 -2.65019
C -1.14048 -10.24029 -5.0662
C -1.57007 -11.47571 -5.85625
C -3.03431 -11.56221 -5.47338
C -3.17988 -10.27398 -4.65358
O -2.24836 -9.39234 -5.23569
H -0.77521 -11.62297 -3.43119
H -3.0225 -11.36332 -2.73152
H -0.16862 -9.86262 -5.45065
H -1.50029 -11.20717 -6.93504
H -0.97734 -12.39759 -5.67275
H -3.64278 -11.51502 -6.40364
H -3.31761 -12.45541 -4.8755
H -4.2396 -9.93566 -4.6488
O -0.33759 -5.29369 2.33447
C -2.39555 -3.02662 0.59752
C -3.39089 -6.08759 4.21041
C -3.92038 -7.44345 4.68863
C -2.69262 -8.29554 4.48904
C -1.75582 -7.27916 3.82153
O -2.03166 -6.11004 4.5484
H -4.33161 -6.39457 2.25437
H -2.58756 -7.9257 2.12011
H -1.93317 -2.33377 1.33273
H -3.99375 -5.27407 4.67073
H -4.15623 -7.41609 5.7759
H -4.81797 -7.76099 4.11505
H -2.25788 -8.52625 5.48856
H -2.85449 -9.24882 3.94133
H -0.71146 -7.65948 3.90717
H -3.38679 -2.63609 0.28302
H -1.73819 -3.09245 -0.29354
H -4.1035 -6.32247 -3.44365
H -3.68124 -6.64046 -1.71892
H -5.11221 -7.45914 -2.47235
H -1.49002 -7.46302 -1.98545
H -0.26671 -7.67878 -1.36696
H -2.40891 -7.75192 0.18659
H -0.9991 -8.83366 0.88432
$end

$opt
CONSTRAINT
tors           1           2           3           4    -161.053
tors           3           4           5           6    -123.158
tors           4           5           6           7      -9.474
tors           5           6           7           8    +161.053
tors           6           7           8           9    +123.158
tors           7           8           9          10    -161.053
tors           8           9          10          11    -104.211
tors           9          10          11          12     +28.421
tors          11          12          13          14    -123.158
ENDCONSTRAINT
$end

$rem
JOBTYPE                   OPT
METHOD                    B3LYP
DFT_D                     d3_op
BASIS                     STO-3G
GEOM_OPT_MAX_CYCLES       100
GEOM_OPT_TOL_GRADIENT     300
GEOM_OPT_TOL_DISPLACEMENT 1200
GEOM_OPT_TOL_ENERGY       100
SYMMETRY                  False
THRESH                    12
SCF_CONVERGENCE           8
MAX_SUB_FILE_NUM          128
MEM_STATIC                400
MEM_TOTAL                 4000
$end
--------------------------------------------------------------

   16   -1509.9511035369      3.31E-09 Convergence criterion met
 Total energy in the final basis set = -1509.95110354
   14   -1510.0401051779      6.59E-09 Convergence criterion met
 Total energy in the final basis set = -1510.04010518
   14   -1510.0983191161      2.80E-09 Convergence criterion met
 Total energy in the final basis set = -1510.09831912
   14   -1510.1366774166      2.93E-09 Convergence criterion met
 Total energy in the final basis set = -1510.13667742
   14   -1510.1632732815      3.12E-09 Convergence criterion met
 Total energy in the final basis set = -1510.16327328
   13   -1510.1831851588      7.77E-09 Convergence criterion met
 Total energy in the final basis set = -1510.18318516
   13   -1510.1979178697      6.08E-09 Convergence criterion met
 Total energy in the final basis set = -1510.19791787
   13   -1510.2095095596      4.10E-09 Convergence criterion met
   11   -1510.2347110232      4.57E-09 Convergence criterion met
 Total energy in the final basis set = -1510.23471102
   11   -1510.2347691281      4.89E-09 Convergence criterion met
 Total energy in the final basis set = -1510.23476913
   11   -1510.2347942654      5.19E-09 Convergence criterion met
 Total energy in the final basis set = -1510.23479427
   11   -1510.2348091688      3.18E-09 Convergence criterion met
 Total energy in the final basis set = -1510.23480917
   10   -1510.2348145516      6.66E-09 Convergence criterion met
 Total energy in the final basis set = -1510.23481455
    9   -1510.2348163457      5.46E-09 Convergence criterion met
 Total energy in the final basis set = -1510.23481635

             Standard Nuclear Orientation (Angstroms)
    I     Atom           X                Y                Z
 ----------------------------------------------------------------
    1      O      -4.9063563020    -2.5887618966     0.3310890340
    2      C      -4.0870088890    -1.6536104502     0.2105276745
    3      C      -4.2600018160    -0.1756778104     0.7050184004
    4      C      -3.3074564387     0.8975360315     0.0349213387
    5      C      -2.6845993683     0.3912077553    -1.3358121729
    6      O      -1.2582500844     0.3409915350    -1.5405436412
    7      C      -0.4023190693     0.9750013258    -0.5172179470
    8      C       1.0371827576     0.3704068992    -0.7025607951
    9      O       1.9827532800     1.4970215142    -0.9314150091
   10      C       3.1772651049     0.9402648203    -1.5378479145
   11      C       4.4650831197     0.7729609125    -0.6177605454
   12      C       4.4396228750     0.5396701172     0.9587672230
   13      C       3.1255212924     0.4088981828     1.7984688606
   14      O       2.8160027545     1.1253753205     2.7750225781
   15      O      -2.7437185277    -1.8217901404    -0.2590883943
   16      O       2.4251013393    -0.8165245632     1.4911965954
   17      O       3.2228232979     0.6567154617    -2.7543952341
   18      C       1.3811020636    -1.0673300321     2.5167916781
   19      C       5.2796559539    -0.5078728158    -1.0999506008
   20      C       6.8062573669    -0.3046044073    -0.7607474611
   21      C       6.7957872282    -0.5071952699     0.7992076385
   22      C       5.2688611693    -0.8245212152     1.0538523611
   23      O       4.8511503472    -1.5636109879    -0.1552533796
   24      H       5.0681341097     1.6829311527    -0.8050274322
   25      H       4.9930442186     1.3652216004     1.4411446698
   26      H       5.0540375949    -0.7957088719    -2.1455774312
   27      H       7.4156551146    -1.0726064380    -1.2632457599
   28      H       7.1724718089     0.6901671311    -1.0609717529
   29      H       7.4216235704    -1.3613174617     1.1029438297
   30      H       7.1285441433     0.3877569717     1.3486756151
   31      H       5.0593494785    -1.4206006391     1.9633132751
   32      O      -3.3937501400     0.0386508931    -2.3036939774
   33      C      -2.5336104744    -3.1970773387    -0.7626491470
   34      C      -5.6968196137     0.4439165567     0.4278869403
   35      C      -5.9392374903     1.5687319579     1.5068973231
   36      C      -4.9256979490     2.6686509727     1.0144581308
   37      C      -4.3824702988     2.0172724315    -0.3212063269
   38      O      -5.5242583970     1.2183020801    -0.8215913818
   39      H      -4.0746981860    -0.1988728177     1.7962247329
   40      H      -2.5553491250     1.2671422934     0.7460467886
   41      H      -3.1757601186    -3.4070483452    -1.6420880507
   42      H      -6.5032884468    -0.3075581108     0.3205396663
   43      H      -6.9790968227     1.9294247103     1.4555501112
   44      H      -5.7336839277     1.2231536512     2.5325927437
   45      H      -5.4323737963     3.6231055765     0.8016483829
   46      H      -4.1172885830     2.8535904615     1.7399643031
   47      H      -4.0513034444     2.7389926381    -1.0931337686
   48      H      -2.7448601922    -3.9531903461     0.0210147461
   49      H      -1.4706235447    -3.2525152168    -1.0611662134
   50      H       0.8732541212    -1.9991420717     2.2074625506
   51      H       0.6443895216    -0.2401245721     2.5662052040
   52      H       1.8300708173    -1.2013425445     3.5212738858
   53      H       1.3813035805    -0.2360816427     0.1654843015
   54      H       0.9948310758    -0.2900496849    -1.5982014300
   55      H      -0.7571447275     0.7682312412     0.5126642820
   56      H      -0.3618637200     2.0788448755    -0.6612658746
 ----------------------------------------------------------------

    9   -1510.2348160861      4.24E-09 Convergence criterion met
 Total energy in the final basis set = -1510.23481609
 Final energy is   -1510.23481608607
 **  OPTIMIZATION CONVERGED  **

                    Orbital Energies (a.u.)
 --------------------------------------------------------------

 Alpha MOs
 -- Occupied --
-18.956 -18.940 -18.920 -18.902 -18.900 -18.896 -18.894 -18.888
-18.879 -18.858 -10.115 -10.111 -10.103 -10.092 -10.080 -10.071
-10.069 -10.066 -10.063 -10.060 -10.059 -10.052 -10.049 -10.043
-10.040 -10.036 -10.027 -10.025 -10.022 -10.020  -1.028  -1.015
 -1.008  -0.993  -0.978  -0.970  -0.953  -0.940  -0.936  -0.923
 -0.768  -0.764  -0.728  -0.723  -0.713  -0.705  -0.699  -0.675
 -0.663  -0.610  -0.601  -0.584  -0.550  -0.547  -0.544  -0.539
 -0.524  -0.512  -0.492  -0.484  -0.472  -0.464  -0.456  -0.443
 -0.438  -0.435  -0.432  -0.422  -0.418  -0.412  -0.411  -0.405
 -0.394  -0.386  -0.384  -0.377  -0.367  -0.361  -0.354  -0.353
 -0.350  -0.346  -0.338  -0.331  -0.331  -0.330  -0.317  -0.314
 -0.313  -0.308  -0.307  -0.301  -0.298  -0.290  -0.289  -0.279
 -0.275  -0.267  -0.253  -0.246  -0.240  -0.236  -0.231  -0.200
 -0.180  -0.172  -0.161  -0.160  -0.158  -0.154  -0.150  -0.146
 -0.131

          Ground-State Mulliken Net Atomic Charges

     Atom                 Charge (a.u.)
  ----------------------------------------
      1 O                    -0.210360
      2 C                     0.213310
      3 C                    -0.079145
      4 C                    -0.083724
      5 C                     0.213404
      6 O                    -0.172049
      7 C                    -0.046317
      8 C                    -0.068560
      9 O                    -0.198939
     10 C                     0.221687
     11 C                    -0.082096
     12 C                    -0.080952
     13 C                     0.211477
     14 O                    -0.204772
     15 O                    -0.170231
     16 O                    -0.164496
     17 O                    -0.182960
     18 C                    -0.128843
     19 C                     0.023123
     20 C                    -0.143824
     21 C                    -0.144355
     22 C                     0.027101
     23 O                    -0.187738
     24 H                     0.085417
     25 H                     0.087608
     26 H                     0.092574
     27 H                     0.079796
     28 H                     0.074938
     29 H                     0.079244
     30 H                     0.074497
     31 H                     0.082524
     32 O                    -0.206668
     33 C                    -0.126878
     34 C                     0.025590
     35 C                    -0.142677
     36 C                    -0.145588
     37 C                     0.026176
     38 O                    -0.182535
     39 H                     0.081724
     40 H                     0.075757
     41 H                     0.095213
     42 H                     0.090315
     43 H                     0.078971
     44 H                     0.072372
     45 H                     0.078715
     46 H                     0.071097
     47 H                     0.083484
     48 H                     0.089226
     49 H                     0.093767
     50 H                     0.095460
     51 H                     0.089706
     52 H                     0.091774
     53 H                     0.099486
     54 H                     0.086923
     55 H                     0.074605
     56 H                     0.086643
  ----------------------------------------
  Sum of atomic charges =    -0.000000

                    Cartesian Multipole Moments
 -----------------------------------------------------------------
    Charge (ESU x 10^10)
                -0.0000
    Dipole Moment (Debye)
         X       3.2704      Y       0.4214      Z       4.8087
       Tot       5.8306
    Quadrupole Moments (Debye-Ang)
        XX    -156.3673     XY      -4.7019     YY    -158.2619
        XZ      -9.1663     YZ      -0.9217     ZZ    -169.6579

 Total job time:  69.90s(wall), 3328.78s(cpu)
        *  Thank you very much for using Q-Chem.  Have a nice day.  *
