 Q-Chem 5.0, Q-Chem, Inc., Pleasanton, CA (2017)
 Q-Chem 5.0.1 for Intel X86 EM64T Linux

User input:
--------------------------------------------------------------
$molecule
0  1
O -4.906356302 -2.5887618966 0.331089034
C -4.087008889 -1.6536104502 0.2105276745
C -4.260001816 -0.1756778104 0.7050184004
C -3.3074564387 0.8975360315 0.0349213387
C -2.6845993683 0.3912077553 -1.3358121729
O -1.2582500844 0.340991535 -1.5405436412
C -0.4023190693 0.9750013258 -0.517217947
C 1.0371827576 0.3704068992 -0.7025607951
O 1.98275328 1.4970215142 -0.9314150091
C 3.1772651049 0.9402648203 -1.5378479145
C 4.4650831197 0.7729609125 -0.6177605454
C 4.439622875 0.5396701172 0.958767223
C 3.1255212924 0.4088981828 1.7984688606
O 2.8160027545 1.1253753205 2.7750225781
O -2.7437185277 -1.8217901404 -0.2590883943
O 2.4251013393 -0.8165245632 1.4911965954
O 3.2228232979 0.6567154617 -2.7543952341
C 1.3811020636 -1.0673300321 2.5167916781
C 5.2796559539 -0.5078728158 -1.0999506008
C 6.8062573669 -0.3046044073 -0.7607474611
C 6.7957872282 -0.5071952699 0.7992076385
C 5.2688611693 -0.8245212152 1.0538523611
O 4.8511503472 -1.5636109879 -0.1552533796
H 5.0681341097 1.6829311527 -0.8050274322
H 4.9930442186 1.3652216004 1.4411446698
H 5.0540375949 -0.7957088719 -2.1455774312
H 7.4156551146 -1.072606438 -1.2632457599
H 7.1724718089 0.6901671311 -1.0609717529
H 7.4216235704 -1.3613174617 1.1029438297
H 7.1285441433 0.3877569717 1.3486756151
H 5.0593494785 -1.4206006391 1.9633132751
O -3.39375014 0.0386508931 -2.3036939774
C -2.5336104744 -3.1970773387 -0.762649147
C -5.6968196137 0.4439165567 0.4278869403
C -5.9392374903 1.5687319579 1.5068973231
C -4.925697949 2.6686509727 1.0144581308
C -4.3824702988 2.0172724315 -0.3212063269
O -5.524258397 1.2183020801 -0.8215913818
H -4.074698186 -0.1988728177 1.7962247329
H -2.555349125 1.2671422934 0.7460467886
H -3.1757601186 -3.4070483452 -1.6420880507
H -6.5032884468 -0.3075581108 0.3205396663
H -6.9790968227 1.9294247103 1.4555501112
H -5.7336839277 1.2231536512 2.5325927437
H -5.4323737963 3.6231055765 0.8016483829
H -4.117288583 2.8535904615 1.7399643031
H -4.0513034444 2.7389926381 -1.0931337686
H -2.7448601922 -3.9531903461 0.0210147461
H -1.4706235447 -3.2525152168 -1.0611662134
H 0.8732541212 -1.9991420717 2.2074625506
H 0.6443895216 -0.2401245721 2.566205204
H 1.8300708173 -1.2013425445 3.5212738858
H 1.3813035805 -0.2360816427 0.1654843015
H 0.9948310758 -0.2900496849 -1.59820143
H -0.7571447275 0.7682312412 0.512664282
H -0.36186372 2.0788448755 -0.6612658746
$end

$rem
JOBTYPE                   OPT
METHOD                    B3LYP
DFT_D                     d3_op
BASIS                     STO-3G
GEOM_OPT_MAX_CYCLES       100
GEOM_OPT_TOL_GRADIENT     300
GEOM_OPT_TOL_DISPLACEMENT 1200
GEOM_OPT_TOL_ENERGY       100
SYMMETRY                  False
THRESH                    12
SCF_CONVERGENCE           8
MAX_SUB_FILE_NUM          128
MEM_STATIC                400
MEM_TOTAL                 4000
$end
--------------------------------------------------------------

   16   -1510.2346266999      6.42E-09 Convergence criterion met
 Total energy in the final basis set = -1510.23462670
   14   -1510.2381941107      2.67E-09 Convergence criterion met
 Total energy in the final basis set = -1510.23819411
   13   -1510.2452480698      7.60E-09 Convergence criterion met
 Total energy in the final basis set = -1510.24524807
   14   -1510.2526824683      2.75E-09 Convergence criterion met
 Total energy in the final basis set = -1510.25268247
   14   -1510.2586080063      4.72E-09 Convergence criterion met
 Total energy in the final basis set = -1510.25860801
   14   -1510.2637848160      5.61E-09 Convergence criterion met
 Total energy in the final basis set = -1510.26378482
   14   -1510.2673492758      4.56E-09 Convergence criterion met
 Total energy in the final basis set = -1510.26734928
   13   -1510.2698046855      6.80E-09 Convergence criterion met
   11   -1510.2823389285      8.25E-09 Convergence criterion met
 Total energy in the final basis set = -1510.28233893
   11   -1510.2823453587      5.99E-09 Convergence criterion met
 Total energy in the final basis set = -1510.28234536
   11   -1510.2823449752      6.92E-09 Convergence criterion met
 Total energy in the final basis set = -1510.28234498
   11   -1510.2823539589      6.07E-09 Convergence criterion met
 Total energy in the final basis set = -1510.28235396
    9   -1510.2823549944      8.07E-09 Convergence criterion met
 Total energy in the final basis set = -1510.28235499
   10   -1510.2823572341      7.79E-09 Convergence criterion met
 Total energy in the final basis set = -1510.28235723

             Standard Nuclear Orientation (Angstroms)
    I     Atom           X                Y                Z
 ----------------------------------------------------------------
    1      O       4.7674314943    -0.5381791232     1.4274890958
    2      C       3.7603941448    -1.0175554269     0.8679970653
    3      C       3.0396802353    -0.5066683690    -0.4275654630
    4      C       2.2160017851     0.8372459373    -0.2093493058
    5      C       2.1194800322     1.3316047246     1.2858529969
    6      O       1.2566614728     0.6249552790     2.1961732228
    7      C       0.6243060605    -0.6052499903     1.6637150544
    8      C      -0.7069794066    -0.8255514376     2.4514794445
    9      O      -1.7219375408     0.0982905812     1.8850692566
   10      C      -2.7951518669    -0.6328996921     1.2803927605
   11      C      -3.6949974582     0.4103713213     0.5337901040
   12      C      -3.0208715884     1.0072469244    -0.7779830584
   13      C      -1.6422958231     0.3664888674    -1.1552451253
   14      O      -0.5611476063     0.9670537497    -1.3664710253
   15      O       3.0715898071    -2.1915678951     1.3519193710
   16      O      -1.8200284923    -1.0443827819    -1.2854194587
   17      O      -2.9516189406    -1.8697388684     1.3689313651
   18      C      -0.5806198330    -1.7110415168    -1.7481073470
   19      C      -5.0086473062    -0.2441388446    -0.0632827454
   20      C      -6.0414821580     0.9092815776    -0.3647349824
   21      C      -5.3852222742     1.5740474019    -1.6329691659
   22      C      -4.1321167888     0.6372874228    -1.8582668703
   23      O      -4.5981004036    -0.6937833974    -1.4144162767
   24      H      -3.9284770953     1.2265984390     1.2412955085
   25      H      -2.8684461974     2.0974622126    -0.6927109042
   26      H      -5.3934955045    -1.0989042526     0.5256972648
   27      H      -7.0306576436     0.4855947501    -0.6003712007
   28      H      -6.1485044889     1.6104923961     0.4783085552
   29      H      -6.0561218625     1.5325630372    -2.5055795814
   30      H      -5.0930453474     2.6224171448    -1.4614806270
   31      H      -3.7600695616     0.5915705001    -2.9003533137
   32      O       2.7069589684     2.3395650381     1.7352729040
   33      C       3.7283100648    -2.6921983377     2.5827494241
   34      C       4.1103626017    -0.0159106218    -1.4936244643
   35      C       3.3685705352     0.2253021367    -2.8702768754
   36      C       2.6545414383     1.6017331620    -2.5976869888
   37      C       3.0579435888     1.8511731840    -1.0928433060
   38      O       4.4468165288     1.3433290249    -1.0213755458
   39      H       2.4026324318    -1.3191043363    -0.8183724444
   40      H       1.1914503648     0.7538368132    -0.6309061017
   41      H       3.7162588227    -1.9301206874     3.3885143818
   42      H       5.0202929922    -0.6444733002    -1.5490247080
   43      H       4.0959151980     0.2981955522    -3.6940963512
   44      H       2.6558488340    -0.5833195378    -3.0987444962
   45      H       3.0558791424     2.3979071257    -3.2446068087
   46      H       1.5613258420     1.5504393933    -2.7269167688
   47      H       3.0119140880     2.9000187392    -0.7415546901
   48      H       4.7800069422    -2.9851481586     2.3897011432
   49      H       3.1481784340    -3.5782962731     2.8996172402
   50      H      -0.8769791719    -2.4765887178    -2.4899472307
   51      H      -0.0761395500    -2.2098919527    -0.8961202905
   52      H       0.1126489555    -0.9781442276    -2.2069432336
   53      H      -1.0728961225    -1.8698980671     2.3375744517
   54      H      -0.5693976124    -0.5857426863     3.5261826495
   55      H       1.3303729642    -1.4652193085     1.7673832392
   56      H       0.3633090543    -0.5074490431     0.5945364383
 ----------------------------------------------------------------

    9   -1510.2823581494      7.49E-09 Convergence criterion met
 Total energy in the final basis set = -1510.28235815
 Final energy is   -1510.28235814940
 **  OPTIMIZATION CONVERGED  **

                    Orbital Energies (a.u.)
 --------------------------------------------------------------

 Alpha MOs
 -- Occupied --
-18.956 -18.943 -18.934 -18.920 -18.896 -18.896 -18.887 -18.884
-18.883 -18.863 -10.120 -10.106 -10.103 -10.089 -10.078 -10.071
-10.070 -10.069 -10.065 -10.063 -10.059 -10.050 -10.050 -10.046
-10.040 -10.027 -10.025 -10.023 -10.018 -10.013  -1.031  -1.018
 -1.017  -0.995  -0.977  -0.966  -0.955  -0.943  -0.943  -0.925
 -0.772  -0.760  -0.733  -0.719  -0.718  -0.704  -0.700  -0.677
 -0.667  -0.616  -0.597  -0.589  -0.552  -0.547  -0.543  -0.536
 -0.522  -0.508  -0.493  -0.484  -0.470  -0.466  -0.456  -0.451
 -0.440  -0.433  -0.427  -0.426  -0.425  -0.420  -0.411  -0.407
 -0.393  -0.388  -0.383  -0.372  -0.369  -0.364  -0.360  -0.354
 -0.351  -0.347  -0.339  -0.334  -0.333  -0.327  -0.317  -0.314
 -0.311  -0.310  -0.305  -0.302  -0.296  -0.292  -0.285  -0.280
 -0.273  -0.264  -0.260  -0.251  -0.241  -0.236  -0.229  -0.194
 -0.189  -0.181  -0.176  -0.163  -0.161  -0.155  -0.151  -0.140
 -0.137

          Ground-State Mulliken Net Atomic Charges

     Atom                 Charge (a.u.)
  ----------------------------------------
      1 O                    -0.196649
      2 C                     0.205555
      3 C                    -0.082035
      4 C                    -0.097490
      5 C                     0.203924
      6 O                    -0.175286
      7 C                    -0.064469
      8 C                    -0.055392
      9 O                    -0.175816
     10 C                     0.210333
     11 C                    -0.077495
     12 C                    -0.076757
     13 C                     0.213915
     14 O                    -0.219422
     15 O                    -0.174987
     16 O                    -0.159306
     17 O                    -0.209507
     18 C                    -0.134133
     19 C                     0.025392
     20 C                    -0.143528
     21 C                    -0.143993
     22 C                     0.026620
     23 O                    -0.183885
     24 H                     0.088936
     25 H                     0.089566
     26 H                     0.090625
     27 H                     0.079553
     28 H                     0.074860
     29 H                     0.079476
     30 H                     0.075140
     31 H                     0.082621
     32 O                    -0.201094
     33 C                    -0.130383
     34 C                     0.026628
     35 C                    -0.144560
     36 C                    -0.145564
     37 C                     0.026434
     38 O                    -0.185155
     39 H                     0.078170
     40 H                     0.099964
     41 H                     0.094023
     42 H                     0.082281
     43 H                     0.077428
     44 H                     0.067919
     45 H                     0.076475
     46 H                     0.078999
     47 H                     0.091553
     48 H                     0.091835
     49 H                     0.090535
     50 H                     0.096468
     51 H                     0.087734
     52 H                     0.094838
     53 H                     0.099416
     54 H                     0.093209
     55 H                     0.098347
     56 H                     0.078132
  ----------------------------------------
  Sum of atomic charges =    -0.000000

                    Cartesian Multipole Moments
 -----------------------------------------------------------------
    Charge (ESU x 10^10)
                -0.0000
    Dipole Moment (Debye)
         X      -3.2236      Y      -2.3124      Z      -2.1276
       Tot       4.5017
    Quadrupole Moments (Debye-Ang)
        XX    -168.5633     XY     -24.5179     YY    -162.7135
        XZ      -5.8760     YZ      -8.3518     ZZ    -155.8482

 Total job time:  128.14s(wall), 6111.02s(cpu)
        *  Thank you very much for using Q-Chem.  Have a nice day.  *
