 Q-Chem 5.0, Q-Chem, Inc., Pleasanton, CA (2017)
 Q-Chem 5.0.1 for Intel X86 EM64T Linux

User input:
--------------------------------------------------------------
$molecule
0  1
O -4.5641075597 2.354866992 -0.2118701752
C -3.4569828719 1.8280121213 -0.449719486
C -3.1559979385 0.2989688109 -0.6454422359
C -1.7916120126 -0.2028277701 -0.031695245
C -1.2100035904 0.7986596456 1.0239877415
O 0.1886472159 0.5486723752 1.222438509
C 0.6974143732 1.514415677 2.2248577726
C 2.2425697592 1.3560212568 2.5477809592
O 3.0648045598 0.2158572315 2.0688040369
C 2.317345571 -1.0067256795 1.8701549168
C 1.9654817515 -1.4451383019 0.3815009209
C 1.7512734076 -0.5252804439 -0.8991550305
C 2.3181238001 0.9477824942 -0.9218561124
O 2.2330671908 1.8452786824 -0.0597628386
O -2.2844852397 2.5596235082 -0.8415506433
O 2.937784141 1.182598156 -2.1960136756
O 2.0203854584 -1.7579806644 2.8255510641
C 3.433398302 2.5752053934 -2.2651801014
C 3.0226494403 -2.5147929396 -0.1836808264
C 2.2029566364 -3.6118791663 -0.9650229696
C 1.7208393843 -2.7722088344 -2.2046946536
C 2.5012731349 -1.4125259166 -1.9861140875
O 3.7344189199 -1.8050781735 -1.2653586663
H 1.0114061171 -1.984506689 0.5290290625
H 0.6745153422 -0.4498116297 -1.1226679617
H 3.7372139389 -2.9027227831 0.5681447761
H 2.8643603667 -4.4380878996 -1.2723548656
H 1.3718678328 -4.0228374727 -0.3704085591
H 2.0161008559 -3.240790974 -3.1564506053
H 0.629404012 -2.6192616269 -2.2122929047
H 2.7521222027 -0.8551725286 -2.9074592735
O -1.8599892024 1.6574297675 1.6607714737
C -2.521854287 4.0114490475 -0.6894762036
C -4.1959525757 -0.674933949 0.0497237632
C -4.1621264306 -2.0406338207 -0.739533785
C -2.7478255951 -2.5905076803 -0.3157304888
C -2.2943773545 -1.5019482091 0.7389167395
O -3.561504964 -1.0290189358 1.3422962981
H -3.1500120548 0.1253276017 -1.7381174749
H -1.0427038623 -0.4314838466 -0.8056969755
H -2.6605932975 4.2857288764 0.3764673657
H -5.1966752996 -0.2293491937 0.2125933495
H -4.9697312629 -2.7046801615 -0.3921265834
H -4.2598778738 -1.9018828052 -1.8281225701
H -2.8208796547 -3.5818136829 0.1588564863
H -2.0459390918 -2.6569570739 -1.1628834017
H -1.600337344 -1.8651416766 1.5224170065
H -3.4138092794 4.3432857518 -1.2590716383
H -1.6194461611 4.5132032221 -1.0847085781
H 3.9025397258 2.6804500079 -3.2606653726
H 4.1850685982 2.7801061171 -1.4760049389
H 2.6079615646 3.3092814417 -2.1635405751
H 2.7689373042 2.2481723891 2.1541303719
H 2.3218204988 1.386007044 3.6607841166
H 0.1173942263 1.3881681028 3.1653913216
H 0.5230899363 2.5505690206 1.8655408308
$end

$rem
JOBTYPE                   OPT
METHOD                    B3LYP
DFT_D                     d3_op
BASIS                     STO-3G
GEOM_OPT_MAX_CYCLES       100
GEOM_OPT_TOL_GRADIENT     300
GEOM_OPT_TOL_DISPLACEMENT 1200
GEOM_OPT_TOL_ENERGY       100
SYMMETRY                  False
THRESH                    12
SCF_CONVERGENCE           8
MAX_SUB_FILE_NUM          128
MEM_STATIC                400
MEM_TOTAL                 4000
$end
--------------------------------------------------------------

   16   -1510.2376912252      5.42E-09 Convergence criterion met
 Total energy in the final basis set = -1510.23769123
   14   -1510.2427543169      6.77E-09 Convergence criterion met
 Total energy in the final basis set = -1510.24275432
   14   -1510.2531815909      3.55E-09 Convergence criterion met
 Total energy in the final basis set = -1510.25318159
   13   -1510.2602483851      9.14E-09 Convergence criterion met
 Total energy in the final basis set = -1510.26024839
   13   -1510.2654331483      5.20E-09 Convergence criterion met
 Total energy in the final basis set = -1510.26543315
   13   -1510.2690782303      2.85E-09 Convergence criterion met
 Total energy in the final basis set = -1510.26907823
   13   -1510.2722652843      5.22E-09 Convergence criterion met
 Total energy in the final basis set = -1510.27226528
   13   -1510.2748777693      7.37E-09 Convergence criterion met
   12   -1510.3001186925      3.06E-09 Convergence criterion met
 Total energy in the final basis set = -1510.30011869
   11   -1510.3001281836      7.40E-09 Convergence criterion met
 Total energy in the final basis set = -1510.30012818
   11   -1510.3001365275      2.46E-09 Convergence criterion met
 Total energy in the final basis set = -1510.30013653
    9   -1510.3001393347      8.37E-09 Convergence criterion met
 Total energy in the final basis set = -1510.30013933
    9   -1510.3001404233      4.25E-09 Convergence criterion met
 Total energy in the final basis set = -1510.30014042
    9   -1510.3001418771      4.87E-09 Convergence criterion met
 Total energy in the final basis set = -1510.30014188

             Standard Nuclear Orientation (Angstroms)
    I     Atom           X                Y                Z
 ----------------------------------------------------------------
    1      O      -5.1411643688     1.2710975608     0.9674040854
    2      C      -4.2573575011     1.4749030388     0.1095432171
    3      C      -3.5083211977     0.4127771541    -0.7715179831
    4      C      -1.9873275414     0.2336921477    -0.3773762756
    5      C      -1.4724900202     1.2117632196     0.7183318171
    6      O      -0.1016759581     1.5220398659     0.3924105621
    7      C       0.5581317332     2.2934259982     1.4665044023
    8      C       1.4552012339     1.3243011449     2.3198108811
    9      O       2.2478281679     0.4327086906     1.4333891697
   10      C       1.5468177872    -0.7956108670     1.2302734690
   11      C       2.3861924666    -1.7729570071     0.3392868392
   12      C       2.3087997213    -1.5507540471    -1.2383708357
   13      C       1.4592236119    -0.3205760715    -1.7095239904
   14      O       0.2894119205    -0.3632281127    -2.1642807927
   15      O      -3.7808375363     2.7767134058    -0.2644307347
   16      O       2.2353946098     0.8647726449    -1.6124753440
   17      O       0.4510647832    -1.0682880835     1.7772071602
   18      C       1.4211042398     2.0372660419    -2.0231356432
   19      C       3.9539706138    -1.6498479997     0.5790823834
   20      C       4.6285228872    -2.9890354246     0.0822659743
   21      C       4.5392903213    -2.8091855609    -1.4784809138
   22      C       3.8520409443    -1.3904050173    -1.5847080622
   23      O       4.3888515821    -0.6509630156    -0.4207758401
   24      H       2.0240771725    -2.7881743166     0.5822566929
   25      H       1.8708787680    -2.4439258729    -1.7190769704
   26      H       4.2359170449    -1.3248667446     1.5989931033
   27      H       5.6746104803    -3.0411003725     0.4237555460
   28      H       4.0938038779    -3.8830935596     0.4405502102
   29      H       5.5384659763    -2.7873450077    -1.9416041749
   30      H       3.9415911214    -3.5970561431    -1.9641486253
   31      H       4.0533414834    -0.8364463399    -2.5217232808
   32      O      -2.0597531841     1.6630014913     1.7242646719
   33      C      -4.3857416047     3.8002537541     0.6162324551
   34      C      -4.0587177095    -1.0457435826    -0.4934882228
   35      C      -3.4886511722    -2.0152170260    -1.6061641596
   36      C      -2.0037393890    -2.2036505251    -1.1200033922
   37      C      -1.9869390758    -1.2743639833     0.1536933531
   38      O      -3.3338086456    -1.4460678863     0.7350449745
   39      H      -3.6059024615     0.7034986548    -1.8332894541
   40      H      -1.3060533570     0.3108740442    -1.2472657345
   41      H      -4.0880316945     3.6439506207     1.6735677906
   42      H      -5.1525916377    -1.0930119773    -0.3281888868
   43      H      -4.0399984190    -2.9689332819    -1.6064901247
   44      H      -3.5539295493    -1.5695271872    -2.6116604284
   45      H      -1.8023206926    -3.2490631602    -0.8366854812
   46      H      -1.2501428879    -1.8727634592    -1.8560976231
   47      H      -1.1813113984    -1.4800517341     0.8929126541
   48      H      -5.4933319588     3.7918792904     0.5566945403
   49      H      -4.0033090983     4.7756613442     0.2632325697
   50      H       2.1000708951     2.9073594487    -1.9745007896
   51      H       0.5771854073     2.1547872247    -1.3083555159
   52      H       1.0314822245     1.9195360295    -3.0540768827
   53      H       2.1824306540     1.9049089174     2.9223535213
   54      H       0.8100872008     0.7066607597     2.9801749809
   55      H      -0.2097701244     2.7684312484     2.1153171900
   56      H       1.1819555234     3.0668072233     0.9753850791
 ----------------------------------------------------------------

    8   -1510.3001415767      8.09E-09 Convergence criterion met
 Total energy in the final basis set = -1510.30014158
 Final energy is   -1510.30014157672
 **  OPTIMIZATION CONVERGED  **

                    Orbital Energies (a.u.)
 --------------------------------------------------------------

 Alpha MOs
 -- Occupied --
-18.947 -18.942 -18.936 -18.918 -18.893 -18.886 -18.881 -18.879
-18.871 -18.862 -10.111 -10.106 -10.100 -10.086 -10.077 -10.075
-10.065 -10.064 -10.054 -10.053 -10.046 -10.044 -10.044 -10.034
-10.025 -10.024 -10.023 -10.018 -10.005  -9.998  -1.026  -1.015
 -1.012  -0.996  -0.974  -0.954  -0.947  -0.939  -0.938  -0.922
 -0.768  -0.750  -0.730  -0.720  -0.709  -0.703  -0.687  -0.660
 -0.651  -0.620  -0.600  -0.575  -0.550  -0.542  -0.533  -0.525
 -0.518  -0.500  -0.493  -0.475  -0.469  -0.450  -0.447  -0.441
 -0.437  -0.430  -0.418  -0.416  -0.412  -0.411  -0.403  -0.401
 -0.394  -0.381  -0.374  -0.367  -0.361  -0.356  -0.354  -0.348
 -0.344  -0.341  -0.336  -0.334  -0.328  -0.322  -0.314  -0.311
 -0.309  -0.306  -0.294  -0.293  -0.289  -0.287  -0.278  -0.272
 -0.260  -0.259  -0.250  -0.248  -0.242  -0.238  -0.217  -0.194
 -0.180  -0.172  -0.166  -0.164  -0.158  -0.156  -0.148  -0.139
 -0.129

          Ground-State Mulliken Net Atomic Charges

     Atom                 Charge (a.u.)
  ----------------------------------------
      1 O                    -0.210038
      2 C                     0.212715
      3 C                    -0.079968
      4 C                    -0.091106
      5 C                     0.216424
      6 O                    -0.180080
      7 C                    -0.053789
      8 C                    -0.053639
      9 O                    -0.160236
     10 C                     0.212947
     11 C                    -0.078500
     12 C                    -0.078223
     13 C                     0.212898
     14 O                    -0.220736
     15 O                    -0.177370
     16 O                    -0.158799
     17 O                    -0.216427
     18 C                    -0.139085
     19 C                     0.027012
     20 C                    -0.143918
     21 C                    -0.144481
     22 C                     0.027153
     23 O                    -0.182309
     24 H                     0.087074
     25 H                     0.085704
     26 H                     0.085890
     27 H                     0.078812
     28 H                     0.074252
     29 H                     0.078740
     30 H                     0.074055
     31 H                     0.086225
     32 O                    -0.209448
     33 C                    -0.129143
     34 C                     0.025317
     35 C                    -0.144980
     36 C                    -0.150817
     37 C                     0.012867
     38 O                    -0.190503
     39 H                     0.083006
     40 H                     0.103279
     41 H                     0.091906
     42 H                     0.084707
     43 H                     0.073620
     44 H                     0.070624
     45 H                     0.069431
     46 H                     0.085845
     47 H                     0.099715
     48 H                     0.087056
     49 H                     0.085262
     50 H                     0.086726
     51 H                     0.107705
     52 H                     0.084929
     53 H                     0.091314
     54 H                     0.100492
     55 H                     0.101646
     56 H                     0.088248
  ----------------------------------------
  Sum of atomic charges =    -0.000000

                    Cartesian Multipole Moments
 -----------------------------------------------------------------
    Charge (ESU x 10^10)
                -0.0000
    Dipole Moment (Debye)
         X       3.6251      Y       0.3866      Z      -1.6887
       Tot       4.0178
    Quadrupole Moments (Debye-Ang)
        XX    -169.7415     XY      -8.8010     YY    -145.9359
        XZ      10.0097     YZ       4.3605     ZZ    -157.5609

 Total job time:  139.33s(wall), 6647.95s(cpu)
        *  Thank you very much for using Q-Chem.  Have a nice day.  *
