 Q-Chem 5.0, Q-Chem, Inc., Pleasanton, CA (2017)
 Q-Chem 5.0.1 for Intel X86 EM64T Linux

User input:
--------------------------------------------------------------
$molecule
0  1
O -3.94934 -3.66094 2.70899
C -3.26408 -4.56952 2.26188
C -3.36658 -6.02376 2.66595
C -2.05424 -6.81773 2.77194
C -0.77335 -6.02476 2.63554
O 0.26082 -6.86278 2.32957
C 1.51219 -6.18303 2.18374
C 2.61533 -7.17983 1.84373
O 2.12354 -8.52169 1.98674
C 1.13125 -8.68518 2.89656
C -0.22787 -8.85558 2.26063
C -0.3947 -8.1705 0.8964
C 0.88675 -7.73477 0.21469
O 1.79932 -7.11993 0.74737
O -2.54719 -4.32918 1.13113
O 0.97741 -7.89655 -1.13666
O 1.31008 -8.54473 4.1005
C 2.05569 -7.50718 -1.90423
C -0.34485 -10.35145 1.82956
C -1.80666 -10.77453 1.7017
C -2.21191 -9.97708 0.48934
C -0.84109 -9.42652 0.07601
O 0.07281 -10.39664 0.49914
H -0.92992 -8.9072 3.09779
H -1.17236 -7.43852 0.58254
H 0.18264 -11.05474 2.51341
H -1.79133 -11.85494 1.42823
H -2.45642 -10.66069 2.58719
H -2.61768 -10.68523 -0.26723
H -2.94273 -9.15998 0.65704
H -0.87287 -9.26317 -1.02331
O -0.615 -4.90264 3.10644
C -2.41132 -3.09046 0.54052
C -3.94761 -6.12341 4.08491
C -4.46262 -7.53782 4.35433
C -3.15984 -8.24206 4.62336
C -2.161 -7.12761 4.31167
O -2.79887 -6.00855 4.87444
H -4.05656 -6.4715 1.91318
H -2.31565 -7.72959 2.23774
H -1.92996 -2.38162 1.2477
H -4.75834 -5.38906 4.28368
H -5.08341 -7.5757 5.2771
H -5.04277 -7.92865 3.4902
H -3.08644 -8.43006 5.71919
H -3.03046 -9.20327 4.10023
H -1.18283 -7.38069 4.77954
H -3.4053 -2.70022 0.23406
H -1.77166 -3.18613 -0.36067
H 1.85902 -7.76479 -2.96501
H 2.97274 -8.03818 -1.57031
H 2.2067 -6.40949 -1.82382
H 3.71534 -7.00486 1.48866
H 3.18673 -7.10644 2.80618
H 1.7467 -5.72946 3.18155
H 1.44789 -5.20995 1.5861
$end

$opt
CONSTRAINT
tors           1           2           3           4    -142.105
tors           3           4           5           6    -161.053
tors           4           5           6           7    -180.000
tors           5           6           7           8    -180.000
tors           6           7           8           9      -9.474
tors           7           8           9          10     -28.421
tors           8           9          10          11    +104.211
tors           9          10          11          12     -28.421
tors          11          12          13          14     -47.368
ENDCONSTRAINT
$end

$rem
JOBTYPE                   OPT
METHOD                    B3LYP
DFT_D                     d3_op
BASIS                     STO-3G
GEOM_OPT_MAX_CYCLES       100
GEOM_OPT_TOL_GRADIENT     300
GEOM_OPT_TOL_DISPLACEMENT 1200
GEOM_OPT_TOL_ENERGY       100
SYMMETRY                  False
THRESH                    12
SCF_CONVERGENCE           8
MAX_SUB_FILE_NUM          128
MEM_STATIC                400
MEM_TOTAL                 4000
$end
--------------------------------------------------------------

   18   -1509.6164646362      6.56E-09 Convergence criterion met
 Total energy in the final basis set = -1509.61646464
   14   -1509.7507654096      7.92E-09 Convergence criterion met
 Total energy in the final basis set = -1509.75076541
   14   -1509.8641085600      8.58E-09 Convergence criterion met
 Total energy in the final basis set = -1509.86410856
   14   -1509.9479803401      7.22E-09 Convergence criterion met
 Total energy in the final basis set = -1509.94798034
   14   -1510.0104560233      1.90E-09 Convergence criterion met
 Total energy in the final basis set = -1510.01045602
   14   -1510.0577842970      6.98E-09 Convergence criterion met
 Total energy in the final basis set = -1510.05778430
   14   -1510.0944248740      6.61E-09 Convergence criterion met
 Total energy in the final basis set = -1510.09442487
   14   -1510.1235494823      4.78E-09 Convergence criterion met
   11   -1510.2379314325      5.55E-09 Convergence criterion met
 Total energy in the final basis set = -1510.23793143
   10   -1510.2379380995      9.63E-09 Convergence criterion met
 Total energy in the final basis set = -1510.23793810
    9   -1510.2379405301      7.71E-09 Convergence criterion met
 Total energy in the final basis set = -1510.23794053
    9   -1510.2379430036      7.75E-09 Convergence criterion met
 Total energy in the final basis set = -1510.23794300
    9   -1510.2379502487      9.65E-09 Convergence criterion met
 Total energy in the final basis set = -1510.23795025
    9   -1510.2379514361      8.11E-09 Convergence criterion met
 Total energy in the final basis set = -1510.23795144

             Standard Nuclear Orientation (Angstroms)
    I     Atom           X                Y                Z
 ----------------------------------------------------------------
    1      O      -4.5641075597     2.3548669920    -0.2118701752
    2      C      -3.4569828719     1.8280121213    -0.4497194860
    3      C      -3.1559979385     0.2989688109    -0.6454422359
    4      C      -1.7916120126    -0.2028277701    -0.0316952450
    5      C      -1.2100035904     0.7986596456     1.0239877415
    6      O       0.1886472159     0.5486723752     1.2224385090
    7      C       0.6974143732     1.5144156770     2.2248577726
    8      C       2.2425697592     1.3560212568     2.5477809592
    9      O       3.0648045598     0.2158572315     2.0688040369
   10      C       2.3173455710    -1.0067256795     1.8701549168
   11      C       1.9654817515    -1.4451383019     0.3815009209
   12      C       1.7512734076    -0.5252804439    -0.8991550305
   13      C       2.3181238001     0.9477824942    -0.9218561124
   14      O       2.2330671908     1.8452786824    -0.0597628386
   15      O      -2.2844852397     2.5596235082    -0.8415506433
   16      O       2.9377841410     1.1825981560    -2.1960136756
   17      O       2.0203854584    -1.7579806644     2.8255510641
   18      C       3.4333983020     2.5752053934    -2.2651801014
   19      C       3.0226494403    -2.5147929396    -0.1836808264
   20      C       2.2029566364    -3.6118791663    -0.9650229696
   21      C       1.7208393843    -2.7722088344    -2.2046946536
   22      C       2.5012731349    -1.4125259166    -1.9861140875
   23      O       3.7344189199    -1.8050781735    -1.2653586663
   24      H       1.0114061171    -1.9845066890     0.5290290625
   25      H       0.6745153422    -0.4498116297    -1.1226679617
   26      H       3.7372139389    -2.9027227831     0.5681447761
   27      H       2.8643603667    -4.4380878996    -1.2723548656
   28      H       1.3718678328    -4.0228374727    -0.3704085591
   29      H       2.0161008559    -3.2407909740    -3.1564506053
   30      H       0.6294040120    -2.6192616269    -2.2122929047
   31      H       2.7521222027    -0.8551725286    -2.9074592735
   32      O      -1.8599892024     1.6574297675     1.6607714737
   33      C      -2.5218542870     4.0114490475    -0.6894762036
   34      C      -4.1959525757    -0.6749339490     0.0497237632
   35      C      -4.1621264306    -2.0406338207    -0.7395337850
   36      C      -2.7478255951    -2.5905076803    -0.3157304888
   37      C      -2.2943773545    -1.5019482091     0.7389167395
   38      O      -3.5615049640    -1.0290189358     1.3422962981
   39      H      -3.1500120548     0.1253276017    -1.7381174749
   40      H      -1.0427038623    -0.4314838466    -0.8056969755
   41      H      -2.6605932975     4.2857288764     0.3764673657
   42      H      -5.1966752996    -0.2293491937     0.2125933495
   43      H      -4.9697312629    -2.7046801615    -0.3921265834
   44      H      -4.2598778738    -1.9018828052    -1.8281225701
   45      H      -2.8208796547    -3.5818136829     0.1588564863
   46      H      -2.0459390918    -2.6569570739    -1.1628834017
   47      H      -1.6003373440    -1.8651416766     1.5224170065
   48      H      -3.4138092794     4.3432857518    -1.2590716383
   49      H      -1.6194461611     4.5132032221    -1.0847085781
   50      H       3.9025397258     2.6804500079    -3.2606653726
   51      H       4.1850685982     2.7801061171    -1.4760049389
   52      H       2.6079615646     3.3092814417    -2.1635405751
   53      H       2.7689373042     2.2481723891     2.1541303719
   54      H       2.3218204988     1.3860070440     3.6607841166
   55      H       0.1173942263     1.3881681028     3.1653913216
   56      H       0.5230899363     2.5505690206     1.8655408308
 ----------------------------------------------------------------

    9   -1510.2379521434      3.29E-09 Convergence criterion met
 Total energy in the final basis set = -1510.23795214
 Final energy is   -1510.23795214338
 **  OPTIMIZATION CONVERGED  **

                    Orbital Energies (a.u.)
 --------------------------------------------------------------

 Alpha MOs
 -- Occupied --
-18.941 -18.936 -18.928 -18.901 -18.893 -18.892 -18.888 -18.881
-18.878 -18.873 -10.108 -10.105 -10.103 -10.099 -10.073 -10.069
-10.067 -10.066 -10.061 -10.061 -10.059 -10.057 -10.045 -10.042
-10.040 -10.034 -10.026 -10.024 -10.022 -10.020  -1.020  -1.014
 -1.006  -1.001  -0.974  -0.971  -0.944  -0.936  -0.933  -0.928
 -0.769  -0.761  -0.729  -0.722  -0.714  -0.706  -0.699  -0.663
 -0.661  -0.617  -0.600  -0.582  -0.550  -0.543  -0.541  -0.539
 -0.517  -0.510  -0.485  -0.477  -0.464  -0.460  -0.455  -0.447
 -0.437  -0.434  -0.432  -0.416  -0.414  -0.410  -0.409  -0.402
 -0.390  -0.378  -0.375  -0.369  -0.364  -0.360  -0.352  -0.350
 -0.346  -0.342  -0.340  -0.337  -0.330  -0.328  -0.321  -0.317
 -0.310  -0.309  -0.304  -0.302  -0.296  -0.293  -0.286  -0.278
 -0.271  -0.263  -0.256  -0.252  -0.238  -0.233  -0.228  -0.185
 -0.180  -0.171  -0.161  -0.160  -0.152  -0.151  -0.149  -0.147
 -0.144

          Ground-State Mulliken Net Atomic Charges

     Atom                 Charge (a.u.)
  ----------------------------------------
      1 O                    -0.212635
      2 C                     0.216667
      3 C                    -0.079425
      4 C                    -0.076806
      5 C                     0.215597
      6 O                    -0.172874
      7 C                    -0.045615
      8 C                    -0.040595
      9 O                    -0.190852
     10 C                     0.224760
     11 C                    -0.077539
     12 C                    -0.071940
     13 C                     0.215930
     14 O                    -0.215254
     15 O                    -0.176861
     16 O                    -0.171024
     17 O                    -0.190022
     18 C                    -0.127387
     19 C                     0.024161
     20 C                    -0.142304
     21 C                    -0.146078
     22 C                     0.021138
     23 O                    -0.189940
     24 H                     0.081384
     25 H                     0.081522
     26 H                     0.083276
     27 H                     0.077937
     28 H                     0.073813
     29 H                     0.077836
     30 H                     0.067998
     31 H                     0.094951
     32 O                    -0.207759
     33 C                    -0.128589
     34 C                     0.024432
     35 C                    -0.142472
     36 C                    -0.144774
     37 C                     0.023596
     38 O                    -0.187596
     39 H                     0.083152
     40 H                     0.079618
     41 H                     0.091618
     42 H                     0.092634
     43 H                     0.079585
     44 H                     0.073535
     45 H                     0.079519
     46 H                     0.070400
     47 H                     0.084313
     48 H                     0.089070
     49 H                     0.087359
     50 H                     0.090622
     51 H                     0.091284
     52 H                     0.087103
     53 H                     0.097245
     54 H                     0.075771
     55 H                     0.086035
     56 H                     0.094480
  ----------------------------------------
  Sum of atomic charges =     0.000000

                    Cartesian Multipole Moments
 -----------------------------------------------------------------
    Charge (ESU x 10^10)
                 0.0000
    Dipole Moment (Debye)
         X       0.0830      Y       0.0940      Z      -3.3102
       Tot       3.3126
    Quadrupole Moments (Debye-Ang)
        XX    -177.0218     XY      10.8728     YY    -149.6554
        XZ       4.3629     YZ       1.5561     ZZ    -161.4069

 Total job time:  118.51s(wall), 5654.72s(cpu)
        *  Thank you very much for using Q-Chem.  Have a nice day.  *
