 Q-Chem 5.0, Q-Chem, Inc., Pleasanton, CA (2017)
 Q-Chem 5.0.1 for Intel X86 EM64T Linux

User input:
--------------------------------------------------------------
$molecule
0  1
O -4.8551822603 0.9750907961 -0.0663206089
C -3.7128368091 1.3616925593 -0.3979603329
C -2.6802289972 0.5687811241 -1.2820502853
C -1.253070677 0.2952932907 -0.6379901586
C -0.8427679938 1.1231770259 0.6357426023
O -0.7077791961 2.5185140063 0.239293908
C 0.6395738211 3.0139543573 0.5650573439
C 1.2835473843 2.7505442319 1.9895316701
O 2.0377093988 1.5780197321 2.4800338886
C 2.2636156787 0.281089436 1.9097640509
C 3.1041947674 -0.0287435776 0.5900736761
C 3.1395259365 -1.5936859983 0.2589113251
C 2.1879331706 -2.6512788193 0.944800504
O 2.4511038424 -3.8756777657 0.9430104304
O -3.1884673416 2.6492615494 -0.0703522539
O 0.9052952275 -2.1525332444 1.3522549162
O 2.1636450279 -0.6403015338 2.757881689
C 0.1459307665 -3.2402525568 2.0199097028
C 2.7003036039 0.5478863363 -0.8311971844
C 3.971630086 0.485342897 -1.7698470112
C 4.0256347785 -1.0485939357 -2.1078616476
C 2.7804536368 -1.5765898599 -1.296523013
O 1.7978216956 -0.4753033391 -1.4003060999
H 4.130768301 0.3054646065 0.8374692457
H 4.1601315288 -1.9877737766 0.4106082694
H 2.2054911514 1.5311050596 -0.8241041116
H 3.8093997824 1.093319913 -2.6742079137
H 4.8808372834 0.8440377078 -1.2620723753
H 3.8893698354 -1.2318093861 -3.1855807126
H 4.9634018502 -1.5263499145 -1.782916811
H 2.3426082048 -2.5224765258 -1.6703795802
O -0.5972191174 0.6842521057 1.7766132916
C -4.1560313778 3.3920618558 0.7694997368
C -3.1967691743 -0.9264722019 -1.4302184898
C -2.3845732479 -1.6435827929 -2.5789109584
C -1.0181283687 -1.9257091541 -1.8536063037
C -1.2790216004 -1.2691262338 -0.4425207458
O -2.706755411 -1.5708613645 -0.1862921346
H -2.5801742112 1.0846940885 -2.2544948394
H -0.4788507811 0.5523957032 -1.3859761029
H -4.3754550387 2.8520302779 1.7130527941
H -4.2995944606 -1.005520115 -1.4941421184
H -2.8860903051 -2.5768815939 -2.8802565261
H -2.2729297643 -1.0022209606 -3.4680010063
H -0.837251682 -3.0069400176 -1.7428007849
H -0.1509289513 -1.4701113779 -2.3580601453
H -0.5943701308 -1.614809855 0.3598157796
H -5.1118534455 3.5684333511 0.2346741563
H -3.6754396832 4.3605695881 0.999560597
H -0.7544660498 -2.7592672425 2.4439591749
H 0.7402813031 -3.7066882039 2.8295991557
H -0.1575277649 -4.0261912012 1.298013664
H 1.996267605 3.5968348787 2.1234436449
H 0.4680058203 2.8982860856 2.7334702451
H 0.5423492674 4.1196011554 0.5115627525
H 1.3491044007 2.7257532769 -0.2385665809
$end

$rem
JOBTYPE                   OPT
METHOD                    B3LYP
DFT_D                     d3_op
BASIS                     STO-3G
GEOM_OPT_MAX_CYCLES       100
GEOM_OPT_TOL_GRADIENT     300
GEOM_OPT_TOL_DISPLACEMENT 1200
GEOM_OPT_TOL_ENERGY       100
SYMMETRY                  False
THRESH                    12
SCF_CONVERGENCE           8
MAX_SUB_FILE_NUM          128
MEM_STATIC                400
MEM_TOTAL                 4000
$end
--------------------------------------------------------------

   16   -1510.2105183497      5.84E-09 Convergence criterion met
 Total energy in the final basis set = -1510.21051835
   15   -1510.2006600826      3.83E-09 Convergence criterion met
 Total energy in the final basis set = -1510.20066008
   15   -1510.2135628996      3.72E-09 Convergence criterion met
 Total energy in the final basis set = -1510.21356290
   15   -1510.2134690949      5.86E-09 Convergence criterion met
 Total energy in the final basis set = -1510.21346909
   15   -1510.2226785104      4.09E-09 Convergence criterion met
 Total energy in the final basis set = -1510.22267851
   14   -1510.2254005585      3.44E-09 Convergence criterion met
 Total energy in the final basis set = -1510.22540056
   13   -1510.2308793103      9.60E-09 Convergence criterion met
 Total energy in the final basis set = -1510.23087931
   14   -1510.2372218687      4.01E-09 Convergence criterion met
   12   -1510.2970338025      2.98E-09 Convergence criterion met
 Total energy in the final basis set = -1510.29703380
   11   -1510.2970711111      9.02E-09 Convergence criterion met
 Total energy in the final basis set = -1510.29707111
   12   -1510.2970964881      4.44E-09 Convergence criterion met
 Total energy in the final basis set = -1510.29709649
   11   -1510.2971073674      5.97E-09 Convergence criterion met
 Total energy in the final basis set = -1510.29710737
   11   -1510.2971122619      2.63E-09 Convergence criterion met
 Total energy in the final basis set = -1510.29711226
    9   -1510.2971111304      4.33E-09 Convergence criterion met
 Total energy in the final basis set = -1510.29711113

             Standard Nuclear Orientation (Angstroms)
    I     Atom           X                Y                Z
 ----------------------------------------------------------------
    1      O      -2.8151498147    -1.1254414979     2.1914333144
    2      C      -2.9004452880    -0.5455922288     1.0858351295
    3      C      -3.2977828025    -1.2219394794    -0.2749027652
    4      C      -2.4725873501    -0.7658452416    -1.5518632801
    5      C      -1.4452734362     0.4063070563    -1.3545460258
    6      O      -2.0538306043     1.6125357496    -1.8451733475
    7      C      -1.0613495666     2.7059346123    -1.9565053848
    8      C      -0.4339799866     3.2065028086    -0.5933227732
    9      O       1.0161540329     2.9047025492    -0.5932912847
   10      C       1.3939977514     2.0307638917     0.4707072167
   11      C       2.9126407516     1.6846859451     0.2948883327
   12      C       3.3775980339     0.3945989541     1.0890728895
   13      C       2.2179954642    -0.3759773087     1.8239369430
   14      O       2.0542399925    -0.4689029016     3.0609072152
   15      O      -2.6808316578     0.8471879244     0.8829640754
   16      O       1.4194292238    -1.0253321631     0.8387839074
   17      O       0.6499699273     1.6733593209     1.4117976035
   18      C       0.3007319676    -1.7588267988     1.4734078376
   19      C       3.2904580757     1.2871755114    -1.1967534273
   20      C       4.8536454513     1.4440746800    -1.3572137105
   21      C       5.3625997529     0.1976365963    -0.5412157504
   22      C       3.9944855854    -0.4617722998    -0.0994078368
   23      O       3.0877168465    -0.1765755919    -1.2351239741
   24      H       3.4900622954     2.5721674664     0.6152330757
   25      H       4.1384411740     0.6523559531     1.8463827532
   26      H       2.6721919237     1.7914897932    -1.9638605505
   27      H       5.1400346310     1.3757605367    -2.4188495745
   28      H       5.2212275687     2.4004896193    -0.9521226190
   29      H       5.9377841557    -0.4942606765    -1.1767681081
   30      H       5.9835196442     0.4815095739     0.3234160839
   31      H       4.0378252319    -1.5505197935     0.0954851449
   32      O      -0.2623304374     0.3244623043    -0.9619995975
   33      C      -2.2270951765     1.4858993413     2.1474245899
   34      C      -2.9444370229    -2.7641463760    -0.2184263021
   35      C      -3.6644693998    -3.5079327218    -1.4079796191
   36      C      -2.7676816413    -3.0788492407    -2.6296038585
   37      C      -1.7304700135    -2.1230250776    -1.9245650683
   38      O      -1.5153858784    -2.7850974300    -0.6155361031
   39      H      -4.3794179391    -1.0579689550    -0.4378006089
   40      H      -3.1648327657    -0.4582537261    -2.3553294126
   41      H      -1.1237354839     1.6280579797     2.0877144593
   42      H      -3.0726348592    -3.2083068365     0.7879633399
   43      H      -3.6431168998    -4.5982224048    -1.2530716570
   44      H      -4.7125338625    -3.1867066354    -1.5179251926
   45      H      -2.2495703038    -3.9449525023    -3.0715297052
   46      H      -3.3390679091    -2.5670606787    -3.4204030564
   47      H      -0.7634713071    -1.9896554775    -2.4473454155
   48      H      -2.4822685289     0.8366214445     3.0071600225
   49      H      -2.7418581104     2.4611659840     2.2295214371
   50      H      -0.3484584588    -2.1237988400     0.6409643503
   51      H      -0.2816197639    -1.0984890455     2.1461994453
   52      H       0.6747674985    -2.6169707281     2.0684156528
   53      H      -0.5461318341     4.3079376456    -0.5106257227
   54      H      -0.9316900071     2.7253596828     0.2713909349
   55      H      -1.6185420853     3.5327333228    -2.4402668446
   56      H      -0.2212278183     2.4035424422    -2.6213016664
 ----------------------------------------------------------------

    9   -1510.2971118897      2.83E-09 Convergence criterion met
 Total energy in the final basis set = -1510.29711189
 Final energy is   -1510.29711188967
 **  OPTIMIZATION CONVERGED  **

                    Orbital Energies (a.u.)
 --------------------------------------------------------------

 Alpha MOs
 -- Occupied --
-18.937 -18.934 -18.931 -18.903 -18.902 -18.884 -18.879 -18.875
-18.874 -18.841 -10.108 -10.100 -10.099 -10.075 -10.073 -10.072
-10.065 -10.064 -10.052 -10.049 -10.042 -10.041 -10.039 -10.033
-10.025 -10.024 -10.022 -10.014 -10.014 -10.012  -1.018  -1.011
 -1.005  -0.980  -0.979  -0.960  -0.943  -0.935  -0.934  -0.905
 -0.767  -0.754  -0.728  -0.719  -0.711  -0.704  -0.692  -0.655
 -0.628  -0.618  -0.595  -0.578  -0.547  -0.541  -0.537  -0.529
 -0.512  -0.505  -0.480  -0.470  -0.459  -0.454  -0.452  -0.443
 -0.436  -0.428  -0.425  -0.414  -0.413  -0.398  -0.393  -0.388
 -0.378  -0.375  -0.373  -0.368  -0.357  -0.352  -0.344  -0.341
 -0.337  -0.333  -0.330  -0.328  -0.322  -0.318  -0.314  -0.314
 -0.308  -0.307  -0.297  -0.295  -0.290  -0.286  -0.274  -0.274
 -0.262  -0.257  -0.249  -0.245  -0.239  -0.225  -0.218  -0.184
 -0.174  -0.170  -0.160  -0.158  -0.153  -0.149  -0.143  -0.133
 -0.123

          Ground-State Mulliken Net Atomic Charges

     Atom                 Charge (a.u.)
  ----------------------------------------
      1 O                    -0.213533
      2 C                     0.213242
      3 C                    -0.078058
      4 C                    -0.080044
      5 C                     0.213129
      6 O                    -0.171858
      7 C                    -0.049216
      8 C                    -0.054100
      9 O                    -0.173127
     10 C                     0.234017
     11 C                    -0.076414
     12 C                    -0.080151
     13 C                     0.209161
     14 O                    -0.223649
     15 O                    -0.172855
     16 O                    -0.166889
     17 O                    -0.211717
     18 C                    -0.146436
     19 C                     0.026417
     20 C                    -0.144045
     21 C                    -0.145023
     22 C                     0.027231
     23 O                    -0.183434
     24 H                     0.083543
     25 H                     0.080191
     26 H                     0.086600
     27 H                     0.075683
     28 H                     0.071256
     29 H                     0.075887
     30 H                     0.072351
     31 H                     0.084247
     32 O                    -0.205503
     33 C                    -0.153042
     34 C                     0.025286
     35 C                    -0.143950
     36 C                    -0.142967
     37 C                     0.027354
     38 O                    -0.183575
     39 H                     0.086296
     40 H                     0.086031
     41 H                     0.114101
     42 H                     0.094710
     43 H                     0.080263
     44 H                     0.074725
     45 H                     0.080269
     46 H                     0.074825
     47 H                     0.092424
     48 H                     0.097873
     49 H                     0.079739
     50 H                     0.109641
     51 H                     0.080826
     52 H                     0.071938
     53 H                     0.084846
     54 H                     0.106325
     55 H                     0.088862
     56 H                     0.090298
  ----------------------------------------
  Sum of atomic charges =     0.000000

                    Cartesian Multipole Moments
 -----------------------------------------------------------------
    Charge (ESU x 10^10)
                 0.0000
    Dipole Moment (Debye)
         X      -1.3918      Y       2.0161      Z      -3.4072
       Tot       4.1965
    Quadrupole Moments (Debye-Ang)
        XX    -143.7046     XY       6.1663     YY    -148.9687
        XZ       2.7331     YZ       3.4375     ZZ    -165.7168

 Total job time:  190.69s(wall), 9104.34s(cpu)
        *  Thank you very much for using Q-Chem.  Have a nice day.  *
