 Q-Chem 5.0, Q-Chem, Inc., Pleasanton, CA (2017)
 Q-Chem 5.0.1 for Intel X86 EM64T Linux

User input:
--------------------------------------------------------------
$molecule
0  1
O -3.94934 -3.66094 2.70899
C -3.26408 -4.56952 2.26188
C -3.36658 -6.02376 2.66595
C -2.09215 -6.69516 3.20345
C -0.90361 -5.79095 3.44399
O -0.44901 -5.29598 2.25497
C 0.9304 -5.59196 2.01231
C 1.76223 -5.27217 3.25001
O 1.74745 -6.38994 4.15182
C 0.87273 -7.37853 3.84084
C 1.22547 -8.09446 2.55878
C 0.2638 -9.22429 2.16262
C -1.06952 -9.24009 2.88283
O -1.82048 -10.20144 2.96298
O -2.48869 -4.30457 1.17805
O -1.02611 -8.90488 4.18275
O 0.87397 -8.04976 4.86193
C -1.11033 -9.76297 5.30481
C 1.9329 -8.02035 1.14745
C 2.66924 -9.31407 0.70807
C 1.50651 -10.16301 0.2255
C 0.33904 -9.27598 0.63258
O 0.82426 -8.0093 0.26989
H 2.12867 -8.56434 3.01711
H 0.69613 -10.16818 2.57675
H 2.69321 -7.21063 1.07299
H 3.33033 -9.11669 -0.16544
H 3.27 -9.75754 1.53031
H 1.51338 -10.1924 -0.8882
H 1.48601 -11.20181 0.61904
H -0.61114 -9.59393 0.1522
O -0.79067 -5.1379 4.47583
C -2.33412 -3.05592 0.61287
C -4.37195 -6.09769 3.83129
C -4.94897 -7.49567 3.95259
C -3.78466 -8.18347 4.58351
C -2.73911 -7.0516 4.61732
O -3.54389 -5.94898 4.94006
H -3.7949 -6.55771 1.78485
H -1.82434 -7.26572 2.32009
H -1.90116 -2.35191 1.35523
H -5.22355 -5.38609 3.75269
H -5.80842 -7.51644 4.66009
H -5.26325 -7.89857 2.96508
H -4.04962 -8.39392 5.64529
H -3.55715 -9.14194 4.10215
H -1.98806 -7.23402 5.41141
H -3.31406 -2.67251 0.25645
H -1.64406 -3.13202 -0.25228
H -1.01316 -9.17355 6.2393
H -0.28284 -10.50319 5.27199
H -2.07489 -10.30905 5.35106
H 2.81939 -5.12916 2.93149
H 1.44885 -4.34071 3.77183
H 1.22451 -4.63932 1.51797
H 1.08487 -5.92118 0.9984
$end

$opt
CONSTRAINT
tors           1           2           3           4    -123.158
tors           3           4           5           6     -66.316
tors           4           5           6           7    -123.158
tors           5           6           7           8     -47.368
tors           6           7           8           9     +85.263
tors           7           8           9          10      -9.474
tors           8           9          10          11     +66.316
tors           9          10          11          12    -180.000
tors          11          12          13          14    -161.053
ENDCONSTRAINT
$end

$rem
JOBTYPE                   OPT
METHOD                    B3LYP
DFT_D                     d3_op
BASIS                     STO-3G
GEOM_OPT_MAX_CYCLES       100
GEOM_OPT_TOL_GRADIENT     300
GEOM_OPT_TOL_DISPLACEMENT 1200
GEOM_OPT_TOL_ENERGY       100
SYMMETRY                  False
THRESH                    12
SCF_CONVERGENCE           8
MAX_SUB_FILE_NUM          128
MEM_STATIC                400
MEM_TOTAL                 4000
$end
--------------------------------------------------------------

   17   -1509.7642283825      5.84E-09 Convergence criterion met
 Total energy in the final basis set = -1509.76422838
   15   -1509.8723654695      9.39E-09 Convergence criterion met
 Total energy in the final basis set = -1509.87236547
   15   -1509.9495027900      4.57E-09 Convergence criterion met
 Total energy in the final basis set = -1509.94950279
   14   -1510.0073090606      7.56E-09 Convergence criterion met
 Total energy in the final basis set = -1510.00730906
   14   -1510.0485585708      3.54E-09 Convergence criterion met
 Total energy in the final basis set = -1510.04855857
   14   -1510.0795184459      7.76E-09 Convergence criterion met
 Total energy in the final basis set = -1510.07951845
   14   -1510.1040715536      6.98E-09 Convergence criterion met
 Total energy in the final basis set = -1510.10407155
   14   -1510.1241953197      6.94E-09 Convergence criterion met
   11   -1510.2106695469      2.14E-09 Convergence criterion met
 Total energy in the final basis set = -1510.21066955
    9   -1510.2106754205      9.58E-09 Convergence criterion met
 Total energy in the final basis set = -1510.21067542
    9   -1510.2106803445      9.32E-09 Convergence criterion met
 Total energy in the final basis set = -1510.21068034
    9   -1510.2106837423      9.02E-09 Convergence criterion met
 Total energy in the final basis set = -1510.21068374
   10   -1510.2106781727      8.74E-09 Convergence criterion met
 Total energy in the final basis set = -1510.21067817
    9   -1510.2106937689      8.48E-09 Convergence criterion met
 Total energy in the final basis set = -1510.21069377

             Standard Nuclear Orientation (Angstroms)
    I     Atom           X                Y                Z
 ----------------------------------------------------------------
    1      O      -4.8551822603     0.9750907961    -0.0663206089
    2      C      -3.7128368091     1.3616925593    -0.3979603329
    3      C      -2.6802289972     0.5687811241    -1.2820502853
    4      C      -1.2530706770     0.2952932907    -0.6379901586
    5      C      -0.8427679938     1.1231770259     0.6357426023
    6      O      -0.7077791961     2.5185140063     0.2392939080
    7      C       0.6395738211     3.0139543573     0.5650573439
    8      C       1.2835473843     2.7505442319     1.9895316701
    9      O       2.0377093988     1.5780197321     2.4800338886
   10      C       2.2636156787     0.2810894360     1.9097640509
   11      C       3.1041947674    -0.0287435776     0.5900736761
   12      C       3.1395259365    -1.5936859983     0.2589113251
   13      C       2.1879331706    -2.6512788193     0.9448005040
   14      O       2.4511038424    -3.8756777657     0.9430104304
   15      O      -3.1884673416     2.6492615494    -0.0703522539
   16      O       0.9052952275    -2.1525332444     1.3522549162
   17      O       2.1636450279    -0.6403015338     2.7578816890
   18      C       0.1459307665    -3.2402525568     2.0199097028
   19      C       2.7003036039     0.5478863363    -0.8311971844
   20      C       3.9716300860     0.4853428970    -1.7698470112
   21      C       4.0256347785    -1.0485939357    -2.1078616476
   22      C       2.7804536368    -1.5765898599    -1.2965230130
   23      O       1.7978216956    -0.4753033391    -1.4003060999
   24      H       4.1307683010     0.3054646065     0.8374692457
   25      H       4.1601315288    -1.9877737766     0.4106082694
   26      H       2.2054911514     1.5311050596    -0.8241041116
   27      H       3.8093997824     1.0933199130    -2.6742079137
   28      H       4.8808372834     0.8440377078    -1.2620723753
   29      H       3.8893698354    -1.2318093861    -3.1855807126
   30      H       4.9634018502    -1.5263499145    -1.7829168110
   31      H       2.3426082048    -2.5224765258    -1.6703795802
   32      O      -0.5972191174     0.6842521057     1.7766132916
   33      C      -4.1560313778     3.3920618558     0.7694997368
   34      C      -3.1967691743    -0.9264722019    -1.4302184898
   35      C      -2.3845732479    -1.6435827929    -2.5789109584
   36      C      -1.0181283687    -1.9257091541    -1.8536063037
   37      C      -1.2790216004    -1.2691262338    -0.4425207458
   38      O      -2.7067554110    -1.5708613645    -0.1862921346
   39      H      -2.5801742112     1.0846940885    -2.2544948394
   40      H      -0.4788507811     0.5523957032    -1.3859761029
   41      H      -4.3754550387     2.8520302779     1.7130527941
   42      H      -4.2995944606    -1.0055201150    -1.4941421184
   43      H      -2.8860903051    -2.5768815939    -2.8802565261
   44      H      -2.2729297643    -1.0022209606    -3.4680010063
   45      H      -0.8372516820    -3.0069400176    -1.7428007849
   46      H      -0.1509289513    -1.4701113779    -2.3580601453
   47      H      -0.5943701308    -1.6148098550     0.3598157796
   48      H      -5.1118534455     3.5684333511     0.2346741563
   49      H      -3.6754396832     4.3605695881     0.9995605970
   50      H      -0.7544660498    -2.7592672425     2.4439591749
   51      H       0.7402813031    -3.7066882039     2.8295991557
   52      H      -0.1575277649    -4.0261912012     1.2980136640
   53      H       1.9962676050     3.5968348787     2.1234436449
   54      H       0.4680058203     2.8982860856     2.7334702451
   55      H       0.5423492674     4.1196011554     0.5115627525
   56      H       1.3491044007     2.7257532769    -0.2385665809
 ----------------------------------------------------------------

    9   -1510.2106858504      3.75E-09 Convergence criterion met
 Total energy in the final basis set = -1510.21068585
 Final energy is   -1510.21068585045
 **  OPTIMIZATION CONVERGED  **

                    Orbital Energies (a.u.)
 --------------------------------------------------------------

 Alpha MOs
 -- Occupied --
-18.939 -18.932 -18.917 -18.913 -18.901 -18.897 -18.876 -18.872
-18.871 -18.868 -10.104 -10.102 -10.101 -10.092 -10.079 -10.077
-10.071 -10.069 -10.060 -10.058 -10.048 -10.047 -10.044 -10.034
-10.031 -10.030 -10.029 -10.025 -10.010 -10.004  -1.013  -1.011
 -1.005  -0.995  -0.984  -0.956  -0.942  -0.934  -0.930  -0.923
 -0.769  -0.753  -0.727  -0.720  -0.715  -0.708  -0.692  -0.658
 -0.657  -0.620  -0.601  -0.587  -0.557  -0.547  -0.539  -0.529
 -0.511  -0.504  -0.481  -0.477  -0.467  -0.454  -0.447  -0.443
 -0.440  -0.428  -0.418  -0.417  -0.412  -0.409  -0.406  -0.404
 -0.393  -0.379  -0.376  -0.369  -0.364  -0.361  -0.353  -0.343
 -0.342  -0.340  -0.333  -0.329  -0.327  -0.323  -0.321  -0.319
 -0.315  -0.303  -0.301  -0.295  -0.291  -0.289  -0.284  -0.276
 -0.265  -0.254  -0.250  -0.244  -0.238  -0.221  -0.213  -0.178
 -0.174  -0.165  -0.160  -0.159  -0.158  -0.151  -0.144  -0.141
 -0.132

          Ground-State Mulliken Net Atomic Charges

     Atom                 Charge (a.u.)
  ----------------------------------------
      1 O                    -0.213491
      2 C                     0.206563
      3 C                    -0.077606
      4 C                    -0.080452
      5 C                     0.216498
      6 O                    -0.176175
      7 C                    -0.052138
      8 C                    -0.047608
      9 O                    -0.185935
     10 C                     0.212085
     11 C                    -0.080051
     12 C                    -0.076164
     13 C                     0.216414
     14 O                    -0.215623
     15 O                    -0.164824
     16 O                    -0.160114
     17 O                    -0.183940
     18 C                    -0.125784
     19 C                     0.020219
     20 C                    -0.143878
     21 C                    -0.144055
     22 C                     0.024903
     23 O                    -0.194505
     24 H                     0.085841
     25 H                     0.087853
     26 H                     0.076696
     27 H                     0.078082
     28 H                     0.074848
     29 H                     0.079390
     30 H                     0.077339
     31 H                     0.086033
     32 O                    -0.185394
     33 C                    -0.127466
     34 C                     0.023800
     35 C                    -0.145880
     36 C                    -0.146062
     37 C                     0.009428
     38 O                    -0.194825
     39 H                     0.083787
     40 H                     0.086949
     41 H                     0.090145
     42 H                     0.087339
     43 H                     0.074858
     44 H                     0.069866
     45 H                     0.070301
     46 H                     0.078345
     47 H                     0.103937
     48 H                     0.087854
     49 H                     0.089787
     50 H                     0.100449
     51 H                     0.094479
     52 H                     0.088421
     53 H                     0.082149
     54 H                     0.095480
     55 H                     0.090727
     56 H                     0.071102
  ----------------------------------------
  Sum of atomic charges =    -0.000000

                    Cartesian Multipole Moments
 -----------------------------------------------------------------
    Charge (ESU x 10^10)
                -0.0000
    Dipole Moment (Debye)
         X       2.8226      Y       3.0512      Z      -3.2264
       Tot       5.2618
    Quadrupole Moments (Debye-Ang)
        XX    -158.1654     XY       1.6882     YY    -154.1732
        XZ      -4.6828     YZ       4.3887     ZZ    -163.7450

 Total job time:  147.20s(wall), 7026.08s(cpu)
        *  Thank you very much for using Q-Chem.  Have a nice day.  *
