 Q-Chem 5.0, Q-Chem, Inc., Pleasanton, CA (2017)
 Q-Chem 5.0.1 for Intel X86 EM64T Linux

User input:
--------------------------------------------------------------
$molecule
0  1
O -3.94934 -3.66094 2.70899
C -3.26408 -4.56952 2.26188
C -3.36658 -6.02376 2.66595
C -2.27333 -6.57303 3.59705
C -1.29943 -5.56331 4.16282
O -0.28167 -5.35325 3.27656
C -0.01606 -6.48771 2.44487
C 1.44091 -6.91518 2.58855
O 1.70176 -8.05335 1.75225
C 2.91609 -8.06734 1.14862
C 3.07965 -6.96427 0.13022
C 2.97971 -7.41533 -1.3343
C 2.38846 -8.79187 -1.56287
O 2.44267 -9.72612 -0.77624
O -2.25978 -4.26854 1.39804
O 1.97695 -9.06065 -2.83183
O 3.71166 -8.98242 1.30166
C 1.48634 -10.27907 -3.2532
C 2.13821 -5.70267 -0.00517
C 2.86594 -4.56441 -0.7408
C 2.80521 -5.05273 -2.15966
C 2.04914 -6.35773 -1.95282
O 1.14777 -6.08226 -0.91959
H 4.08047 -6.54052 0.3673
H 3.96127 -7.42986 -1.85818
H 1.77029 -5.18486 0.88453
H 2.24736 -3.63883 -0.67615
H 3.88302 -4.3433 -0.35135
H 2.17144 -4.35456 -2.7521
H 3.7876 -5.18835 -2.66169
H 1.59294 -6.66592 -2.91826
O -1.54745 -4.76107 5.05221
C -1.96696 -2.99662 0.95433
C -4.64894 -6.21744 3.49812
C -5.03246 -7.69789 3.57261
C -4.05793 -8.16817 4.61827
C -3.22662 -6.89117 4.81458
O -4.21631 -5.89695 4.7875
H -3.44385 -6.59887 1.71718
H -1.99391 -7.63404 3.51912
H -1.70088 -2.34416 1.81324
H -5.5095 -5.63047 3.10684
H -6.06472 -7.82794 3.96743
H -4.94047 -8.19262 2.58145
H -4.61558 -8.33359 5.56873
H -3.4992 -9.09572 4.36868
H -2.68085 -6.98669 5.78216
H -2.83816 -2.57018 0.41271
H -1.10201 -3.04462 0.26113
H 1.22421 -10.21312 -4.32903
H 0.57314 -10.54235 -2.67771
H 2.25568 -11.06944 -3.12033
H 2.22224 -6.12807 2.59784
H 1.5086 -7.2891 3.63396
H -0.19122 -6.15499 1.40356
H -0.46577 -7.47487 2.45714
$end

$opt
CONSTRAINT
tors           1           2           3           4    -104.211
tors           3           4           5           6     -85.263
tors           4           5           6           7     -28.421
tors           5           6           7           8    -123.158
tors           6           7           8           9    -180.000
tors           7           8           9          10    +142.105
tors           8           9          10          11     -66.316
tors           9          10          11          12    -104.211
tors          11          12          13          14     -28.421
ENDCONSTRAINT
$end

$rem
JOBTYPE                   OPT
METHOD                    B3LYP
DFT_D                     d3_op
BASIS                     STO-3G
GEOM_OPT_MAX_CYCLES       100
GEOM_OPT_TOL_GRADIENT     300
GEOM_OPT_TOL_DISPLACEMENT 1200
GEOM_OPT_TOL_ENERGY       100
SYMMETRY                  False
THRESH                    12
SCF_CONVERGENCE           8
MAX_SUB_FILE_NUM          128
MEM_STATIC                400
MEM_TOTAL                 4000
$end
--------------------------------------------------------------

   15   -1510.0486011305      7.12E-09 Convergence criterion met
 Total energy in the final basis set = -1510.04860113
   14   -1510.1294456154      2.96E-09 Convergence criterion met
 Total energy in the final basis set = -1510.12944562
   14   -1510.1766206265      2.56E-09 Convergence criterion met
 Total energy in the final basis set = -1510.17662063
   14   -1510.2057018366      2.57E-09 Convergence criterion met
 Total energy in the final basis set = -1510.20570184
   13   -1510.2216524507      5.07E-09 Convergence criterion met
 Total energy in the final basis set = -1510.22165245
   13   -1510.2304377147      6.27E-09 Convergence criterion met
 Total energy in the final basis set = -1510.23043771
   13   -1510.2350488875      4.87E-09 Convergence criterion met
 Total energy in the final basis set = -1510.23504889
   13   -1510.2366780681      3.78E-09 Convergence criterion met
   11   -1510.2389303312      3.60E-09 Convergence criterion met
 Total energy in the final basis set = -1510.23893033
   11   -1510.2389360249      4.18E-09 Convergence criterion met
 Total energy in the final basis set = -1510.23893602
   11   -1510.2389340251      3.75E-09 Convergence criterion met
 Total energy in the final basis set = -1510.23893403
   10   -1510.2389409560      9.73E-09 Convergence criterion met
 Total energy in the final basis set = -1510.23894096
   10   -1510.2389434569      8.99E-09 Convergence criterion met
 Total energy in the final basis set = -1510.23894346
   10   -1510.2389423322      8.08E-09 Convergence criterion met
 Total energy in the final basis set = -1510.23894233

             Standard Nuclear Orientation (Angstroms)
    I     Atom           X                Y                Z
 ----------------------------------------------------------------
    1      O      -4.2779645465     2.1628195478    -0.9616790470
    2      C      -3.4804583036     1.2179004406    -1.1356199998
    3      C      -3.7814206592    -0.3219789287    -1.1293890053
    4      C      -3.2991040820    -1.0422774417     0.2077271162
    5      C      -2.8729962847     0.0127325372     1.3092555807
    6      O      -1.5366748898     0.5445154694     1.3086469309
    7      C      -0.4577639855    -0.3018557447     0.7598476541
    8      C       0.6344926318    -0.4773293255     1.8778946948
    9      O       1.7087108110    -1.3255761995     1.3178302284
   10      C       3.0250531426    -0.8902326666     1.7584109125
   11      C       3.5801840496     0.5353531546     1.2762970260
   12      C       4.6763351506     0.3560013673     0.1374827587
   13      C       4.4384250062    -0.9713358207    -0.6723522005
   14      O       3.9010308008    -2.0188804532    -0.2461673653
   15      O      -2.0747739483     1.3770855522    -1.3694273738
   16      O       4.9838275176    -0.8393800433    -1.9843514927
   17      O       3.7064949654    -1.6147006042     2.5139748587
   18      C       4.7809039792    -2.0936306607    -2.7469822052
   19      C       2.6703790077     1.6631603493     0.6002665654
   20      C       3.3803498896     3.0444207970     0.8891842602
   21      C       4.6310401117     2.9400745176    -0.0603457571
   22      C       4.3388902754     1.5800156744    -0.8063130270
   23      O       2.8583803935     1.4974997709    -0.8577513221
   24      H       4.0688492435     0.9589728343     2.1725701067
   25      H       5.7083784781     0.3698829471     0.5339256836
   26      H       1.5942351885     1.6511051878     0.8376305656
   27      H       2.7212705912     3.8771712794     0.5953086984
   28      H       3.6533281395     3.1665039615     1.9492884843
   29      H       4.6713681094     3.7757815673    -0.7766128341
   30      H       5.5821716180     2.9052493774     0.4948448404
   31      H       4.7684916253     1.4852888911    -1.8218830534
   32      O      -3.6760280448     0.5172860073     2.1241404287
   33      C      -1.6942294185     2.8031083032    -1.2556815359
   34      C      -5.3315880986    -0.6494520654    -1.1177204997
   35      C      -5.5139948745    -2.1424216335    -1.5945584259
   36      C      -4.9711075568    -2.9225738827    -0.3396119138
   37      C      -4.6568774401    -1.7337545146     0.6543626845
   38      O      -5.6744103794    -0.7109590957     0.3215516961
   39      H      -3.2776308822    -0.7707895161    -2.0049601125
   40      H      -2.5132093804    -1.7854102263     0.0028499531
   41      H      -1.8506977783     3.1773315842    -0.2232084492
   42      H      -5.9592851768     0.1034602791    -1.6325190026
   43      H      -6.5794096480    -2.3588250085    -1.7728023316
   44      H      -4.9492368385    -2.3639854923    -2.5144104399
   45      H      -5.7367361556    -3.5901232372     0.0861414122
   46      H      -4.0724895012    -3.5179804297    -0.5680279021
   47      H      -4.7051222229    -1.9879310761     1.7307407300
   48      H      -2.2722724366     3.4400002809    -1.9557415235
   49      H      -0.6187435791     2.8529306081    -1.5078134318
   50      H       5.2093460777    -1.9114471409    -3.7496641811
   51      H       3.7041125200    -2.3418618517    -2.8407291622
   52      H       5.3005280209    -2.9492611906    -2.2692226788
   53      H       0.9821242247     0.5094397187     2.2395444155
   54      H       0.1738289763    -1.0002845846     2.7480196781
   55      H      -0.0217192190     0.2100756813    -0.1260070107
   56      H      -0.7934973613    -1.3058212102     0.4405674031
 ----------------------------------------------------------------

   10   -1510.2389428469      6.29E-09 Convergence criterion met
 Total energy in the final basis set = -1510.23894285
 Final energy is   -1510.23894284691
 **  OPTIMIZATION CONVERGED  **

                    Orbital Energies (a.u.)
 --------------------------------------------------------------

 Alpha MOs
 -- Occupied --
-18.948 -18.933 -18.927 -18.904 -18.893 -18.891 -18.886 -18.884
-18.879 -18.877 -10.110 -10.104 -10.100 -10.099 -10.075 -10.073
-10.072 -10.066 -10.065 -10.063 -10.059 -10.058 -10.046 -10.040
-10.039 -10.037 -10.027 -10.026 -10.020 -10.019  -1.024  -1.012
 -1.004  -0.997  -0.978  -0.969  -0.947  -0.939  -0.936  -0.930
 -0.767  -0.764  -0.729  -0.723  -0.710  -0.707  -0.704  -0.670
 -0.662  -0.603  -0.600  -0.594  -0.552  -0.550  -0.545  -0.539
 -0.523  -0.510  -0.492  -0.479  -0.466  -0.464  -0.459  -0.447
 -0.443  -0.436  -0.430  -0.420  -0.416  -0.412  -0.411  -0.402
 -0.394  -0.386  -0.383  -0.376  -0.363  -0.360  -0.355  -0.350
 -0.345  -0.342  -0.336  -0.334  -0.330  -0.325  -0.318  -0.315
 -0.311  -0.309  -0.308  -0.306  -0.297  -0.290  -0.283  -0.281
 -0.278  -0.263  -0.256  -0.244  -0.238  -0.233  -0.232  -0.188
 -0.180  -0.172  -0.164  -0.157  -0.156  -0.154  -0.148  -0.144
 -0.141

          Ground-State Mulliken Net Atomic Charges

     Atom                 Charge (a.u.)
  ----------------------------------------
      1 O                    -0.204706
      2 C                     0.206419
      3 C                    -0.079519
      4 C                    -0.082410
      5 C                     0.205422
      6 O                    -0.179235
      7 C                    -0.046674
      8 C                    -0.046573
      9 O                    -0.189242
     10 C                     0.223109
     11 C                    -0.088685
     12 C                    -0.076375
     13 C                     0.214893
     14 O                    -0.200905
     15 O                    -0.174314
     16 O                    -0.167846
     17 O                    -0.189708
     18 C                    -0.127262
     19 C                     0.018184
     20 C                    -0.142307
     21 C                    -0.145476
     22 C                     0.022346
     23 O                    -0.195104
     24 H                     0.082214
     25 H                     0.089147
     26 H                     0.083481
     27 H                     0.078029
     28 H                     0.074630
     29 H                     0.078995
     30 H                     0.075143
     31 H                     0.092332
     32 O                    -0.192114
     33 C                    -0.129435
     34 C                     0.024958
     35 C                    -0.143367
     36 C                    -0.145089
     37 C                     0.026872
     38 O                    -0.183032
     39 H                     0.083965
     40 H                     0.078888
     41 H                     0.092210
     42 H                     0.089123
     43 H                     0.078742
     44 H                     0.072474
     45 H                     0.078728
     46 H                     0.071840
     47 H                     0.086853
     48 H                     0.089846
     49 H                     0.090419
     50 H                     0.092661
     51 H                     0.093140
     52 H                     0.092122
     53 H                     0.082452
     54 H                     0.081108
     55 H                     0.091895
     56 H                     0.086738
  ----------------------------------------
  Sum of atomic charges =    -0.000000

                    Cartesian Multipole Moments
 -----------------------------------------------------------------
    Charge (ESU x 10^10)
                -0.0000
    Dipole Moment (Debye)
         X       3.4596      Y      -0.0201      Z      -3.2040
       Tot       4.7154
    Quadrupole Moments (Debye-Ang)
        XX    -167.2059     XY      20.9351     YY    -157.3848
        XZ       3.6442     YZ       6.7306     ZZ    -159.7665

 Total job time:  74.88s(wall), 3563.49s(cpu)
        *  Thank you very much for using Q-Chem.  Have a nice day.  *
