 Q-Chem 5.0, Q-Chem, Inc., Pleasanton, CA (2017)
 Q-Chem 5.0.1 for Intel X86 EM64T Linux

User input:
--------------------------------------------------------------
$molecule
0  1
O -4.2779645465 2.1628195478 -0.961679047
C -3.4804583036 1.2179004406 -1.1356199998
C -3.7814206592 -0.3219789287 -1.1293890053
C -3.299104082 -1.0422774417 0.2077271162
C -2.8729962847 0.0127325372 1.3092555807
O -1.5366748898 0.5445154694 1.3086469309
C -0.4577639855 -0.3018557447 0.7598476541
C 0.6344926318 -0.4773293255 1.8778946948
O 1.708710811 -1.3255761995 1.3178302284
C 3.0250531426 -0.8902326666 1.7584109125
C 3.5801840496 0.5353531546 1.276297026
C 4.6763351506 0.3560013673 0.1374827587
C 4.4384250062 -0.9713358207 -0.6723522005
O 3.9010308008 -2.0188804532 -0.2461673653
O -2.0747739483 1.3770855522 -1.3694273738
O 4.9838275176 -0.8393800433 -1.9843514927
O 3.7064949654 -1.6147006042 2.5139748587
C 4.7809039792 -2.0936306607 -2.7469822052
C 2.6703790077 1.6631603493 0.6002665654
C 3.3803498896 3.044420797 0.8891842602
C 4.6310401117 2.9400745176 -0.0603457571
C 4.3388902754 1.5800156744 -0.806313027
O 2.8583803935 1.4974997709 -0.8577513221
H 4.0688492435 0.9589728343 2.1725701067
H 5.7083784781 0.3698829471 0.5339256836
H 1.5942351885 1.6511051878 0.8376305656
H 2.7212705912 3.8771712794 0.5953086984
H 3.6533281395 3.1665039615 1.9492884843
H 4.6713681094 3.7757815673 -0.7766128341
H 5.582171618 2.9052493774 0.4948448404
H 4.7684916253 1.4852888911 -1.8218830534
O -3.6760280448 0.5172860073 2.1241404287
C -1.6942294185 2.8031083032 -1.2556815359
C -5.3315880986 -0.6494520654 -1.1177204997
C -5.5139948745 -2.1424216335 -1.5945584259
C -4.9711075568 -2.9225738827 -0.3396119138
C -4.6568774401 -1.7337545146 0.6543626845
O -5.6744103794 -0.7109590957 0.3215516961
H -3.2776308822 -0.7707895161 -2.0049601125
H -2.5132093804 -1.7854102263 0.0028499531
H -1.8506977783 3.1773315842 -0.2232084492
H -5.9592851768 0.1034602791 -1.6325190026
H -6.579409648 -2.3588250085 -1.7728023316
H -4.9492368385 -2.3639854923 -2.5144104399
H -5.7367361556 -3.5901232372 0.0861414122
H -4.0724895012 -3.5179804297 -0.5680279021
H -4.7051222229 -1.9879310761 1.73074073
H -2.2722724366 3.4400002809 -1.9557415235
H -0.6187435791 2.8529306081 -1.5078134318
H 5.2093460777 -1.9114471409 -3.7496641811
H 3.70411252 -2.3418618517 -2.8407291622
H 5.3005280209 -2.9492611906 -2.2692226788
H 0.9821242247 0.5094397187 2.2395444155
H 0.1738289763 -1.0002845846 2.7480196781
H -0.021719219 0.2100756813 -0.1260070107
H -0.7934973613 -1.3058212102 0.4405674031
$end

$rem
JOBTYPE                   OPT
METHOD                    B3LYP
DFT_D                     d3_op
BASIS                     STO-3G
GEOM_OPT_MAX_CYCLES       100
GEOM_OPT_TOL_GRADIENT     300
GEOM_OPT_TOL_DISPLACEMENT 1200
GEOM_OPT_TOL_ENERGY       100
SYMMETRY                  False
THRESH                    12
SCF_CONVERGENCE           8
MAX_SUB_FILE_NUM          128
MEM_STATIC                400
MEM_TOTAL                 4000
$end
--------------------------------------------------------------

   16   -1510.2387892951      6.67E-09 Convergence criterion met
 Total energy in the final basis set = -1510.23878930
   14   -1510.2404889335      7.55E-09 Convergence criterion met
 Total energy in the final basis set = -1510.24048893
   14   -1510.2425637534      2.55E-09 Convergence criterion met
 Total energy in the final basis set = -1510.24256375
   14   -1510.2455194865      2.49E-09 Convergence criterion met
 Total energy in the final basis set = -1510.24551949
   14   -1510.2414804531      9.51E-09 Convergence criterion met
 Total energy in the final basis set = -1510.24148045
   14   -1510.2476146375      7.72E-09 Convergence criterion met
 Total energy in the final basis set = -1510.24761464
   14   -1510.2476152321      5.34E-09 Convergence criterion met
 Total energy in the final basis set = -1510.24761523
   13   -1510.2504292073      7.69E-09 Convergence criterion met
   11   -1510.2922581462      6.14E-09 Convergence criterion met
 Total energy in the final basis set = -1510.29225815
   10   -1510.2922742822      7.58E-09 Convergence criterion met
 Total energy in the final basis set = -1510.29227428
   11   -1510.2922883897      5.66E-09 Convergence criterion met
 Total energy in the final basis set = -1510.29228839
   11   -1510.2922984720      6.44E-09 Convergence criterion met
 Total energy in the final basis set = -1510.29229847
    9   -1510.2923013797      9.35E-09 Convergence criterion met
 Total energy in the final basis set = -1510.29230138
    9   -1510.2923047659      6.66E-09 Convergence criterion met
 Total energy in the final basis set = -1510.29230477

             Standard Nuclear Orientation (Angstroms)
    I     Atom           X                Y                Z
 ----------------------------------------------------------------
    1      O       2.8695186850    -1.7161720949    -0.7845812645
    2      C       2.1595532761    -0.6912290233    -0.8072618840
    3      C       2.6156007932     0.8039319092    -0.8959111600
    4      C       3.1539940099     1.3826879169     0.4862017445
    5      C       3.1299436120     0.3601381860     1.6949938644
    6      O       1.8863252707     0.0614184334     2.3448550644
    7      C       0.6883168385     0.7599056469     1.8143844737
    8      C      -0.5127084897     0.3383157458     2.7387742427
    9      O      -1.5002468209    -0.4621920815     1.9774767544
   10      C      -2.6728921151     0.3272662799     1.7227038925
   11      C      -3.7167015593    -0.5360942159     0.9197404510
   12      C      -3.6274608149    -0.3988481069    -0.6559936677
   13      C      -2.3377383646     0.3712512730    -1.1066022561
   14      O      -1.5746425305     1.0387747179    -0.3705092161
   15      O       0.7180449567    -0.7148420758    -0.7367328427
   16      O      -2.1328924634     0.1624768125    -2.4992444540
   17      O      -2.8777734517     1.4648323416     2.2023014415
   18      C      -0.7943153914     0.6776376769    -2.8844874979
   19      C      -3.5177662996    -2.1028761036     1.0936093692
   20      C      -4.8801684019    -2.8114593167     0.7343884650
   21      C      -4.9145464231    -2.6296515226    -0.8287046978
   22      C      -3.5303382469    -1.9201390795    -1.0895710934
   23      O      -2.6431792744    -2.4851444685    -0.0439098851
   24      H      -4.7178219708    -0.2261682045     1.2686137875
   25      H      -4.5193494639     0.0958187866    -1.0824002140
   26      H      -3.0553958313    -2.4060415253     2.0520110073
   27      H      -4.8441739547    -3.8763544565     1.0147798462
   28      H      -5.7392560202    -2.3409541362     1.2387123413
   29      H      -4.9567381701    -3.5990533817    -1.3501249816
   30      H      -5.7610348330    -2.0101516254    -1.1655718674
   31      H      -3.0940515076    -2.0704208227    -2.0959590020
   32      O       4.1542977589    -0.1992748511     2.1453455170
   33      C       0.2228065891    -2.1015845703    -0.5351067299
   34      C       3.9101373352     0.9495399813    -1.8037245184
   35      C       4.1045339966     2.4785948466    -2.1499699927
   36      C       4.6582222619     3.0305712688    -0.7835904068
   37      C       4.6554888046     1.7198722613     0.0970030677
   38      O       5.0152478359     0.6550166429    -0.8668451751
   39      H       1.7723147417     1.4088600037    -1.2717672292
   40      H       2.6010416847     2.2983454342     0.7592197329
   41      H       0.7710050876    -2.5895745266     0.2940071269
   42      H       3.9397485162     0.2582950200    -2.6680439407
   43      H       4.8377708012     2.5986259110    -2.9631437692
   44      H       3.1599944257     2.9589952103    -2.4512559472
   45      H       5.6833876215     3.4191738705    -0.8911594991
   46      H       4.0232044369     3.8228116771    -0.3559374627
   47      H       5.3531153719     1.7095620420     0.9564267793
   48      H       0.3729619749    -2.7012621682    -1.4553607097
   49      H      -0.8673253261    -2.0506506285    -0.2887074431
   50      H      -0.6332659149     0.3556053018    -3.9291298940
   51      H      -0.0284254656     0.2353740270    -2.2050191246
   52      H      -0.7549732082     1.7843073450    -2.8272563566
   53      H      -0.1310174781    -0.2971609119     3.5652209780
   54      H      -1.0323916436     1.2317584975     3.1465355739
   55      H       0.4690605616     0.4268948322     0.7698876290
   56      H       0.8189461021     1.8617736333     1.8395150843
 ----------------------------------------------------------------

    9   -1510.2923064695      5.70E-09 Convergence criterion met
 Total energy in the final basis set = -1510.29230647
 Final energy is   -1510.29230646952
 **  OPTIMIZATION CONVERGED  **

                    Orbital Energies (a.u.)
 --------------------------------------------------------------

 Alpha MOs
 -- Occupied --
-18.945 -18.945 -18.924 -18.922 -18.910 -18.890 -18.889 -18.888
-18.866 -18.865 -10.111 -10.105 -10.098 -10.092 -10.073 -10.070
-10.062 -10.059 -10.058 -10.057 -10.054 -10.049 -10.044 -10.042
-10.042 -10.037 -10.031 -10.029 -10.022 -10.020  -1.024  -1.017
 -1.005  -0.996  -0.986  -0.970  -0.947  -0.943  -0.932  -0.925
 -0.773  -0.764  -0.733  -0.724  -0.720  -0.705  -0.695  -0.666
 -0.655  -0.611  -0.599  -0.581  -0.555  -0.549  -0.546  -0.539
 -0.518  -0.510  -0.485  -0.480  -0.473  -0.463  -0.458  -0.451
 -0.447  -0.432  -0.426  -0.422  -0.416  -0.412  -0.404  -0.398
 -0.393  -0.384  -0.375  -0.371  -0.365  -0.360  -0.353  -0.351
 -0.346  -0.340  -0.339  -0.336  -0.334  -0.331  -0.321  -0.315
 -0.314  -0.309  -0.306  -0.305  -0.295  -0.286  -0.284  -0.281
 -0.277  -0.267  -0.256  -0.248  -0.240  -0.236  -0.233  -0.193
 -0.182  -0.169  -0.167  -0.161  -0.161  -0.157  -0.149  -0.144
 -0.139

          Ground-State Mulliken Net Atomic Charges

     Atom                 Charge (a.u.)
  ----------------------------------------
      1 O                    -0.193869
      2 C                     0.207752
      3 C                    -0.082261
      4 C                    -0.083727
      5 C                     0.202621
      6 O                    -0.174482
      7 C                    -0.064683
      8 C                    -0.054331
      9 O                    -0.176678
     10 C                     0.214842
     11 C                    -0.082175
     12 C                    -0.078241
     13 C                     0.215088
     14 O                    -0.207667
     15 O                    -0.174760
     16 O                    -0.170578
     17 O                    -0.221175
     18 C                    -0.142707
     19 C                     0.027175
     20 C                    -0.142807
     21 C                    -0.143878
     22 C                     0.024888
     23 O                    -0.188712
     24 H                     0.085631
     25 H                     0.088933
     26 H                     0.093358
     27 H                     0.080540
     28 H                     0.076430
     29 H                     0.080729
     30 H                     0.076360
     31 H                     0.092265
     32 O                    -0.200150
     33 C                    -0.147183
     34 C                     0.026183
     35 C                    -0.144311
     36 C                    -0.144362
     37 C                     0.026224
     38 O                    -0.182978
     39 H                     0.084376
     40 H                     0.079736
     41 H                     0.090290
     42 H                     0.084204
     43 H                     0.078590
     44 H                     0.071786
     45 H                     0.078991
     46 H                     0.072452
     47 H                     0.092199
     48 H                     0.078963
     49 H                     0.118069
     50 H                     0.085995
     51 H                     0.107516
     52 H                     0.081886
     53 H                     0.092445
     54 H                     0.099248
     55 H                     0.110793
     56 H                     0.075156
  ----------------------------------------
  Sum of atomic charges =    -0.000000

                    Cartesian Multipole Moments
 -----------------------------------------------------------------
    Charge (ESU x 10^10)
                -0.0000
    Dipole Moment (Debye)
         X      -4.5588      Y       1.5339      Z      -2.8283
       Tot       5.5799
    Quadrupole Moments (Debye-Ang)
        XX    -165.9324     XY      20.7024     YY    -157.7954
        XZ      -4.8326     YZ      -1.9597     ZZ    -158.4274

 Total job time:  233.43s(wall), 11138.53s(cpu)
        *  Thank you very much for using Q-Chem.  Have a nice day.  *
