 Q-Chem 5.0, Q-Chem, Inc., Pleasanton, CA (2017)
 Q-Chem 5.0.1 for Intel X86 EM64T Linux

User input:
--------------------------------------------------------------
$molecule
0  1
O -3.94934 -3.66094 2.70899
C -3.26408 -4.56952 2.26188
C -3.36658 -6.02376 2.66595
C -2.57813 -6.46456 3.91009
C -1.91791 -5.36653 4.71416
O -0.7029 -5.79197 5.1704
C 0.37884 -4.94763 4.76272
C 0.04505 -4.26809 3.43874
O 0.39131 -5.13157 2.34448
C 1.52308 -4.79947 1.6752
C 2.07048 -3.45082 2.07787
C 2.58469 -3.36599 3.5224
C 2.80858 -4.69104 4.22299
O 2.57302 -4.91878 5.40079
O -2.46056 -4.31235 1.19555
O 3.45861 -5.65611 3.5133
O 1.99559 -5.51452 0.80518
C 3.80063 -6.89764 4.00713
C 3.34923 -3.06212 1.29679
C 3.54185 -1.54514 1.328
C 3.93399 -1.34362 2.7753
C 3.99746 -2.80206 3.24365
O 4.40664 -3.50992 2.10036
H 1.32267 -2.67553 1.79042
H 2.07582 -2.65769 4.21325
H 3.35185 -3.41725 0.24314
H 4.42283 -1.31505 0.68644
H 2.67397 -0.94307 0.98283
H 4.94434 -0.8782 2.80288
H 3.22181 -0.74491 3.38334
H 4.66631 -2.8908 4.12927
O -2.47958 -4.3669 5.14366
C -2.27716 -3.06329 0.64013
C -4.80024 -6.39283 3.08978
C -5.01028 -7.90394 2.9864
C -4.20893 -8.38034 4.17867
C -3.73625 -7.04076 4.7501
O -4.80634 -6.16901 4.47697
H -3.07926 -6.62694 1.77476
H -1.82972 -7.25956 3.68622
H -1.8519 -2.36733 1.39456
H -5.57785 -5.8574 2.50155
H -6.08673 -8.11515 3.17722
H -4.71483 -8.3412 2.00838
H -4.90589 -8.86393 4.89929
H -3.36998 -9.07085 3.9451
H -3.46438 -7.15781 5.82289
H -3.24362 -2.66522 0.26395
H -1.56782 -3.14413 -0.20883
H 4.31847 -7.47369 3.21324
H 2.88889 -7.45301 4.31373
H 4.48508 -6.7891 4.87528
H -0.97614 -3.92849 3.24426
H 0.20653 -3.18176 3.4556
H 0.92777 -5.87965 4.48753
H 0.47671 -4.20482 5.59252
$end

$opt
CONSTRAINT
tors           1           2           3           4     -85.263
tors           3           4           5           6    -142.105
tors           4           5           6           7    +123.158
tors           5           6           7           8     -28.421
tors           6           7           8           9     -85.263
tors           7           8           9          10    -104.211
tors           8           9          10          11      -9.474
tors           9          10          11          12     +66.316
tors          11          12          13          14    -142.105
ENDCONSTRAINT
$end

$rem
JOBTYPE                   OPT
METHOD                    B3LYP
DFT_D                     d3_op
BASIS                     STO-3G
GEOM_OPT_MAX_CYCLES       100
GEOM_OPT_TOL_GRADIENT     300
GEOM_OPT_TOL_DISPLACEMENT 1200
GEOM_OPT_TOL_ENERGY       100
SYMMETRY                  False
THRESH                    12
SCF_CONVERGENCE           8
MAX_SUB_FILE_NUM          128
MEM_STATIC                400
MEM_TOTAL                 4000
$end
--------------------------------------------------------------

   15   -1510.0119616204      9.45E-09 Convergence criterion met
 Total energy in the final basis set = -1510.01196162
   14   -1510.0994998185      9.74E-09 Convergence criterion met
 Total energy in the final basis set = -1510.09949982
   14   -1510.1607412095      9.01E-09 Convergence criterion met
 Total energy in the final basis set = -1510.16074121
   14   -1510.1966682807      2.65E-09 Convergence criterion met
 Total energy in the final basis set = -1510.19666828
   14   -1510.2192510002      4.93E-09 Convergence criterion met
 Total energy in the final basis set = -1510.21925100
   13   -1510.2328297208      8.10E-09 Convergence criterion met
 Total energy in the final basis set = -1510.23282972
   13   -1510.2408817971      5.17E-09 Convergence criterion met
 Total energy in the final basis set = -1510.24088180
   13   -1510.2451383499      4.06E-09 Convergence criterion met
   12   -1510.2505938313      3.93E-09 Convergence criterion met
 Total energy in the final basis set = -1510.25059383
   11   -1510.2506576904      6.41E-09 Convergence criterion met
 Total energy in the final basis set = -1510.25065769
   12   -1510.2507091403      3.57E-09 Convergence criterion met
 Total energy in the final basis set = -1510.25070914
   10   -1510.2507462635      6.99E-09 Convergence criterion met
 Total energy in the final basis set = -1510.25074626
   11   -1510.2507832300      5.07E-09 Convergence criterion met
 Total energy in the final basis set = -1510.25078323
    9   -1510.2507956850      9.22E-09 Convergence criterion met
 Total energy in the final basis set = -1510.25079568

             Standard Nuclear Orientation (Angstroms)
    I     Atom           X                Y                Z
 ----------------------------------------------------------------
    1      O      -4.1861934180     2.2614030397     1.2936123217
    2      C      -3.3998376478     1.8852479294     0.4010455513
    3      C      -3.6252805942     0.7537302298    -0.6702679992
    4      C      -3.2566106889    -0.6961755670    -0.1405222338
    5      C      -2.3430988215    -0.6495654481     1.1312629759
    6      O      -1.3617753076    -1.7044548263     1.0885351033
    7      C       0.0280008259    -1.1802407075     1.1831359566
    8      C       0.2848139071     0.2827175368     0.6313260796
    9      O       0.5404230256     0.2607286649    -0.8244794743
   10      C       1.8794051387     0.4258742528    -1.3121997647
   11      C       3.0769196350     0.8520658493    -0.3591350057
   12      C       3.5869297150    -0.1065694319     0.7956631346
   13      C       3.1045018869    -1.5918283108     0.7064158288
   14      O       2.7753664183    -2.3384348752     1.6548973039
   15      O      -2.0536410049     2.3846738891     0.2578700550
   16      O       3.0904067869    -1.9780205421    -0.6697531750
   17      O       2.0204014450     0.3185506641    -2.5512858011
   18      C       2.6957969884    -3.3987587983    -0.8105233869
   19      C       4.4111258618     1.0657321226    -1.1980387363
   20      C       5.2706216242     2.1597412027    -0.4563248121
   21      C       5.7328963778     1.3544340543     0.8155786629
   22      C       5.1546657183    -0.0827025728     0.4983845179
   23      O       5.1920006144    -0.1723413062    -0.9764885407
   24      H       2.7817317302     1.8161499459     0.0980810649
   25      H       3.3462296439     0.2810962186     1.8009557693
   26      H       4.2298656529     1.2238662043    -2.2791446489
   27      H       6.1309972247     2.4559843338    -1.0775183007
   28      H       4.6865050178     3.0595631953    -0.2059937458
   29      H       6.8305488954     1.3184873955     0.8993614740
   30      H       5.3223757842     1.7661126222     1.7518308944
   31      H       5.7126487919    -0.9233545798     0.9553749954
   32      O      -2.3945619010     0.2004568523     2.0491700358
   33      C      -1.7887204809     3.3957665069     1.3083557659
   34      C      -5.1865433754     0.5764119139    -0.8913959079
   35      C      -5.4428426767    -0.4295342321    -2.0838544413
   36      C      -5.1772468474    -1.8154021070    -1.3858198896
   37      C      -4.7057450064    -1.3377744196     0.0429625955
   38      O      -5.5875923741    -0.1842532739     0.3166942464
   39      H      -3.0708993780     1.0005313018    -1.5929179320
   40      H      -2.6931641894    -1.2535724472    -0.9091622453
   41      H      -1.9272111690     2.9667994746     2.3219354270
   42      H      -5.7482446313     1.5286829276    -0.9469883368
   43      H      -6.4804447805    -0.3480469081    -2.4441513466
   44      H      -4.7601251571    -0.2449863195    -2.9287617817
   45      H      -6.1021925623    -2.4086974181    -1.3040445494
   46      H      -4.4128880722    -2.4172188569    -1.9025498881
   47      H      -4.7838136461    -2.0928268875     0.8492006907
   48      H      -2.4531601625     4.2772190365     1.2036376737
   49      H      -0.7370815077     3.7088742622     1.1743485573
   50      H       2.7097169502    -3.6090209443    -1.8955515720
   51      H       1.6778370702    -3.5849454235    -0.4107346626
   52      H       3.4073957135    -4.0718962845    -0.2906133776
   53      H      -0.6108772836     0.9331850636     0.7615900518
   54      H       1.1238104338     0.7268925989     1.2012571572
   55      H       0.6353037934    -1.9048375343     0.6083987634
   56      H       0.3709665607    -1.2133782599     2.2429487352
 ----------------------------------------------------------------

   10   -1510.2507949733      8.63E-09 Convergence criterion met
 Total energy in the final basis set = -1510.25079497
 Final energy is   -1510.25079497335
 **  OPTIMIZATION CONVERGED  **

                    Orbital Energies (a.u.)
 --------------------------------------------------------------

 Alpha MOs
 -- Occupied --
-18.944 -18.932 -18.930 -18.914 -18.896 -18.893 -18.890 -18.881
-18.876 -18.870 -10.110 -10.107 -10.101 -10.098 -10.075 -10.074
-10.069 -10.067 -10.063 -10.063 -10.060 -10.060 -10.048 -10.042
-10.039 -10.038 -10.026 -10.024 -10.021 -10.020  -1.020  -1.015
 -1.006  -1.003  -0.975  -0.972  -0.944  -0.941  -0.934  -0.932
 -0.769  -0.764  -0.729  -0.724  -0.714  -0.709  -0.701  -0.666
 -0.663  -0.619  -0.606  -0.589  -0.553  -0.548  -0.543  -0.538
 -0.518  -0.511  -0.495  -0.475  -0.468  -0.455  -0.451  -0.449
 -0.441  -0.436  -0.426  -0.421  -0.417  -0.414  -0.411  -0.408
 -0.397  -0.396  -0.377  -0.368  -0.366  -0.364  -0.355  -0.351
 -0.347  -0.344  -0.341  -0.335  -0.334  -0.329  -0.321  -0.314
 -0.312  -0.308  -0.306  -0.304  -0.297  -0.295  -0.283  -0.282
 -0.276  -0.258  -0.256  -0.245  -0.239  -0.237  -0.235  -0.185
 -0.182  -0.175  -0.163  -0.159  -0.157  -0.151  -0.150  -0.146
 -0.144

          Ground-State Mulliken Net Atomic Charges

     Atom                 Charge (a.u.)
  ----------------------------------------
      1 O                    -0.201005
      2 C                     0.213005
      3 C                    -0.080012
      4 C                    -0.081802
      5 C                     0.217830
      6 O                    -0.188755
      7 C                    -0.051943
      8 C                    -0.062731
      9 O                    -0.175849
     10 C                     0.210894
     11 C                    -0.085174
     12 C                    -0.082255
     13 C                     0.203039
     14 O                    -0.216096
     15 O                    -0.176063
     16 O                    -0.161564
     17 O                    -0.203096
     18 C                    -0.127648
     19 C                     0.025999
     20 C                    -0.143228
     21 C                    -0.144893
     22 C                     0.026478
     23 O                    -0.184779
     24 H                     0.076559
     25 H                     0.081804
     26 H                     0.096163
     27 H                     0.079577
     28 H                     0.072846
     29 H                     0.079541
     30 H                     0.073019
     31 H                     0.082904
     32 O                    -0.195097
     33 C                    -0.130661
     34 C                     0.026438
     35 C                    -0.145268
     36 C                    -0.142013
     37 C                     0.026490
     38 O                    -0.183652
     39 H                     0.089213
     40 H                     0.089790
     41 H                     0.095367
     42 H                     0.085888
     43 H                     0.078564
     44 H                     0.074879
     45 H                     0.078661
     46 H                     0.075295
     47 H                     0.085588
     48 H                     0.088561
     49 H                     0.085175
     50 H                     0.097441
     51 H                     0.087774
     52 H                     0.090572
     53 H                     0.106779
     54 H                     0.081839
     55 H                     0.092637
     56 H                     0.086979
  ----------------------------------------
  Sum of atomic charges =    -0.000000

                    Cartesian Multipole Moments
 -----------------------------------------------------------------
    Charge (ESU x 10^10)
                -0.0000
    Dipole Moment (Debye)
         X       1.9877      Y       0.8325      Z      -0.0821
       Tot       2.1566
    Quadrupole Moments (Debye-Ang)
        XX    -164.2602     XY       9.4065     YY    -150.8358
        XZ      19.6720     YZ       3.7573     ZZ    -169.7202

 Total job time:  65.37s(wall), 3113.75s(cpu)
        *  Thank you very much for using Q-Chem.  Have a nice day.  *
