 Q-Chem 5.0, Q-Chem, Inc., Pleasanton, CA (2017)
 Q-Chem 5.0.1 for Intel X86 EM64T Linux

User input:
--------------------------------------------------------------
$molecule
0  1
O -4.186193418 2.2614030397 1.2936123217
C -3.3998376478 1.8852479294 0.4010455513
C -3.6252805942 0.7537302298 -0.6702679992
C -3.2566106889 -0.696175567 -0.1405222338
C -2.3430988215 -0.6495654481 1.1312629759
O -1.3617753076 -1.7044548263 1.0885351033
C 0.0280008259 -1.1802407075 1.1831359566
C 0.2848139071 0.2827175368 0.6313260796
O 0.5404230256 0.2607286649 -0.8244794743
C 1.8794051387 0.4258742528 -1.3121997647
C 3.076919635 0.8520658493 -0.3591350057
C 3.586929715 -0.1065694319 0.7956631346
C 3.1045018869 -1.5918283108 0.7064158288
O 2.7753664183 -2.3384348752 1.6548973039
O -2.0536410049 2.3846738891 0.257870055
O 3.0904067869 -1.9780205421 -0.669753175
O 2.020401445 0.3185506641 -2.5512858011
C 2.6957969884 -3.3987587983 -0.8105233869
C 4.4111258618 1.0657321226 -1.1980387363
C 5.2706216242 2.1597412027 -0.4563248121
C 5.7328963778 1.3544340543 0.8155786629
C 5.1546657183 -0.0827025728 0.4983845179
O 5.1920006144 -0.1723413062 -0.9764885407
H 2.7817317302 1.8161499459 0.0980810649
H 3.3462296439 0.2810962186 1.8009557693
H 4.2298656529 1.2238662043 -2.2791446489
H 6.1309972247 2.4559843338 -1.0775183007
H 4.6865050178 3.0595631953 -0.2059937458
H 6.8305488954 1.3184873955 0.899361474
H 5.3223757842 1.7661126222 1.7518308944
H 5.7126487919 -0.9233545798 0.9553749954
O -2.394561901 0.2004568523 2.0491700358
C -1.7887204809 3.3957665069 1.3083557659
C -5.1865433754 0.5764119139 -0.8913959079
C -5.4428426767 -0.4295342321 -2.0838544413
C -5.1772468474 -1.815402107 -1.3858198896
C -4.7057450064 -1.3377744196 0.0429625955
O -5.5875923741 -0.1842532739 0.3166942464
H -3.070899378 1.0005313018 -1.592917932
H -2.6931641894 -1.2535724472 -0.9091622453
H -1.927211169 2.9667994746 2.321935427
H -5.7482446313 1.5286829276 -0.9469883368
H -6.4804447805 -0.3480469081 -2.4441513466
H -4.7601251571 -0.2449863195 -2.9287617817
H -6.1021925623 -2.4086974181 -1.3040445494
H -4.4128880722 -2.4172188569 -1.9025498881
H -4.7838136461 -2.0928268875 0.8492006907
H -2.4531601625 4.2772190365 1.2036376737
H -0.7370815077 3.7088742622 1.1743485573
H 2.7097169502 -3.6090209443 -1.895551572
H 1.6778370702 -3.5849454235 -0.4107346626
H 3.4073957135 -4.0718962845 -0.2906133776
H -0.6108772836 0.9331850636 0.7615900518
H 1.1238104338 0.7268925989 1.2012571572
H 0.6353037934 -1.9048375343 0.6083987634
H 0.3709665607 -1.2133782599 2.2429487352
$end

$rem
JOBTYPE                   OPT
METHOD                    B3LYP
DFT_D                     d3_op
BASIS                     STO-3G
GEOM_OPT_MAX_CYCLES       100
GEOM_OPT_TOL_GRADIENT     300
GEOM_OPT_TOL_DISPLACEMENT 1200
GEOM_OPT_TOL_ENERGY       100
SYMMETRY                  False
THRESH                    12
SCF_CONVERGENCE           8
MAX_SUB_FILE_NUM          128
MEM_STATIC                400
MEM_TOTAL                 4000
$end
--------------------------------------------------------------

   16   -1510.2507777045      8.82E-09 Convergence criterion met
 Total energy in the final basis set = -1510.25077770
   14   -1510.2542845305      2.66E-09 Convergence criterion met
 Total energy in the final basis set = -1510.25428453
   13   -1510.2589813067      8.78E-09 Convergence criterion met
 Total energy in the final basis set = -1510.25898131
   13   -1510.2626198366      9.60E-09 Convergence criterion met
 Total energy in the final basis set = -1510.26261984
   14   -1510.2658645315      2.27E-09 Convergence criterion met
 Total energy in the final basis set = -1510.26586453
   13   -1510.2686841935      7.19E-09 Convergence criterion met
 Total energy in the final basis set = -1510.26868419
   13   -1510.2706345705      9.76E-09 Convergence criterion met
 Total energy in the final basis set = -1510.27063457
   13   -1510.2722266531      3.45E-09 Convergence criterion met
   12   -1510.2792960175      8.30E-09 Convergence criterion met
 Total energy in the final basis set = -1510.27929602
   13   -1510.2792459742      4.04E-09 Convergence criterion met
 Total energy in the final basis set = -1510.27924597
   13   -1510.2790286553      5.89E-09 Convergence criterion met
 Total energy in the final basis set = -1510.27902866
   13   -1510.2792566052      4.86E-09 Convergence criterion met
 Total energy in the final basis set = -1510.27925661
   13   -1510.2790770750      3.61E-09 Convergence criterion met
 Total energy in the final basis set = -1510.27907708
   13   -1510.2792536262      2.67E-09 Convergence criterion met
 Total energy in the final basis set = -1510.27925363

             Standard Nuclear Orientation (Angstroms)
    I     Atom           X                Y                Z
 ----------------------------------------------------------------
    1      O      -2.9248363343     2.8576188692     0.2270738772
    2      C      -2.5311218145     1.9102561355    -0.4848530585
    3      C      -3.3871188113     0.7099017603    -1.0374607972
    4      C      -3.0660939572    -0.6916241212    -0.3785241915
    5      C      -2.0078527979    -0.5915110183     0.7672219024
    6      O      -1.6149997219    -1.9147443601     1.1304735874
    7      C      -0.5468564225    -1.9003845750     2.1602409711
    8      C       0.7520790752    -1.1652620140     1.6615968275
    9      O       0.9130985025    -1.5477397086     0.2375502791
   10      C       1.5242440784    -0.5657249823    -0.6199920001
   11      C       2.3964926299     0.5802966342     0.0316108083
   12      C       3.6611876475     0.0457284000     0.8326591560
   13      C       3.7463316029    -1.5180419977     0.8532995175
   14      O       3.6077131257    -2.2566987911     1.8561050921
   15      O      -1.2211333711     1.8272144547    -1.0723795341
   16      O       3.9554468900    -1.9892428220    -0.4761575007
   17      O       1.3741583925    -0.7161466301    -1.8510037527
   18      C       3.8887729260    -3.4689259047    -0.5098357564
   19      C       3.0979381430     1.4365257721    -1.1028286937
   20      C       3.6185812713     2.7788832803    -0.4533195480
   21      C       4.8673513687     2.2590865019     0.3518006459
   22      C       4.8376383613     0.7176144106     0.0016516938
   23      O       4.3405526330     0.6844020209    -1.3903378674
   24      H       1.7644352075     1.2177106988     0.6736674092
   25      H       3.6477718548     0.3929927207     1.8807837485
   26      H       2.4924557992     1.5387206044    -2.0243153565
   27      H       3.9100970504     3.4984803733    -1.2347840420
   28      H       2.8613857952     3.2482466685     0.1952260651
   29      H       5.8017699802     2.7171340376    -0.0093202891
   30      H       4.7804847158     2.4390204380     1.4352394466
   31      H       5.8108022132     0.1953916561     0.0800332674
   32      O      -1.5762635070     0.4541908830     1.3052060929
   33      C      -0.3880044684     2.9440472204    -0.5787024138
   34      C      -4.9197065784     0.8754038244    -0.6650518837
   35      C      -5.7611852855    -0.0642596260    -1.6135618773
   36      C      -5.4354018649    -1.4785873654    -1.0041066440
   37      C      -4.4956041108    -1.0827421778     0.2030016795
   38      O      -5.0326672788     0.2175615183     0.6589346967
   39      H      -3.2367095882     0.6617094656    -2.1308076074
   40      H      -2.7124676146    -1.4310200614    -1.1191813157
   41      H      -0.1843989087     2.8439676504     0.5076412664
   42      H      -5.2577797503     1.9277602679    -0.6008052317
   43      H      -6.8348090905     0.1702246750    -1.5362679160
   44      H      -5.4533134271     0.0254655081    -2.6676099442
   45      H      -6.3436592969    -1.9809603426    -0.6347795227
   46      H      -4.9293184244    -2.1459338581    -1.7200652490
   47      H      -4.4647692762    -1.8112187355     1.0367206092
   48      H      -0.8719956646     3.9265160760    -0.7530189476
   49      H       0.5618436934     2.8933917667    -1.1410318921
   50      H       4.1051742920    -3.7578714759    -1.5544957865
   51      H       2.8774678635    -3.8268916155    -0.2268790006
   52      H       4.6347513710    -3.9287261905     0.1697422619
   53      H       0.6081421320    -0.0749302268     1.7847498335
   54      H       1.6302945441    -1.5045269602     2.2574499347
   55      H      -0.3348137800    -2.9702747211     2.3550342293
   56      H      -0.9007148850    -1.4221008490     3.1001674536
 ----------------------------------------------------------------

   10   -1510.2792534734      6.92E-09 Convergence criterion met
 Total energy in the final basis set = -1510.27925347
 Final energy is   -1510.27925347340
 **  OPTIMIZATION CONVERGED  **

                    Orbital Energies (a.u.)
 --------------------------------------------------------------

 Alpha MOs
 -- Occupied --
-18.944 -18.942 -18.928 -18.921 -18.891 -18.886 -18.885 -18.878
-18.877 -18.861 -10.108 -10.104 -10.101 -10.090 -10.081 -10.072
-10.065 -10.065 -10.061 -10.060 -10.058 -10.055 -10.043 -10.041
-10.038 -10.032 -10.024 -10.023 -10.019 -10.018  -1.022  -1.018
 -1.002  -0.998  -0.973  -0.969  -0.946  -0.942  -0.934  -0.925
 -0.767  -0.762  -0.727  -0.725  -0.714  -0.708  -0.699  -0.662
 -0.658  -0.616  -0.603  -0.584  -0.554  -0.544  -0.542  -0.535
 -0.516  -0.509  -0.491  -0.477  -0.466  -0.459  -0.453  -0.448
 -0.439  -0.433  -0.430  -0.418  -0.415  -0.408  -0.407  -0.406
 -0.398  -0.388  -0.377  -0.371  -0.363  -0.355  -0.354  -0.350
 -0.343  -0.341  -0.336  -0.333  -0.331  -0.324  -0.317  -0.313
 -0.310  -0.307  -0.304  -0.301  -0.300  -0.294  -0.282  -0.276
 -0.272  -0.260  -0.256  -0.245  -0.239  -0.237  -0.233  -0.186
 -0.181  -0.172  -0.166  -0.160  -0.159  -0.148  -0.145  -0.144
 -0.142

          Ground-State Mulliken Net Atomic Charges

     Atom                 Charge (a.u.)
  ----------------------------------------
      1 O                    -0.216741
      2 C                     0.215791
      3 C                    -0.081093
      4 C                    -0.077914
      5 C                     0.217665
      6 O                    -0.164236
      7 C                    -0.044794
      8 C                    -0.060634
      9 O                    -0.177955
     10 C                     0.212879
     11 C                    -0.084472
     12 C                    -0.082735
     13 C                     0.206246
     14 O                    -0.220147
     15 O                    -0.175672
     16 O                    -0.160440
     17 O                    -0.195011
     18 C                    -0.127274
     19 C                     0.025144
     20 C                    -0.145131
     21 C                    -0.143899
     22 C                     0.027093
     23 O                    -0.182915
     24 H                     0.081434
     25 H                     0.082401
     26 H                     0.092468
     27 H                     0.078945
     28 H                     0.072192
     29 H                     0.079062
     30 H                     0.073333
     31 H                     0.084258
     32 O                    -0.214382
     33 C                    -0.129446
     34 C                     0.024731
     35 C                    -0.143890
     36 C                    -0.143648
     37 C                     0.025360
     38 O                    -0.189555
     39 H                     0.085598
     40 H                     0.092067
     41 H                     0.083853
     42 H                     0.089256
     43 H                     0.077767
     44 H                     0.073820
     45 H                     0.077907
     46 H                     0.074783
     47 H                     0.083955
     48 H                     0.088779
     49 H                     0.085259
     50 H                     0.095610
     51 H                     0.093164
     52 H                     0.089384
     53 H                     0.092212
     54 H                     0.095650
     55 H                     0.094265
     56 H                     0.089653
  ----------------------------------------
  Sum of atomic charges =     0.000000

                    Cartesian Multipole Moments
 -----------------------------------------------------------------
    Charge (ESU x 10^10)
                -0.0000
    Dipole Moment (Debye)
         X       1.1772      Y      -0.3672      Z       0.8078
       Tot       1.4742
    Quadrupole Moments (Debye-Ang)
        XX    -156.0467     XY      10.2757     YY    -155.7335
        XZ      13.2966     YZ      -3.0017     ZZ    -163.0560

 Total job time:  168.48s(wall), 8030.17s(cpu)
        *  Thank you very much for using Q-Chem.  Have a nice day.  *
