 Q-Chem 5.0, Q-Chem, Inc., Pleasanton, CA (2017)
 Q-Chem 5.0.1 for Intel X86 EM64T Linux

User input:
--------------------------------------------------------------
$molecule
0  1
O -1.7515964697 1.1528576864 0.1748727744
C -2.3937220263 0.8066485485 -0.8063612642
C -3.8078928965 0.269862973 -0.782386518
C -4.031184364 -1.0917842434 -0.1042273257
C -2.8475789594 -1.6816634784 0.6300937612
O -2.2765844886 -0.7319377263 1.4284692763
C -1.6764728806 0.3376984566 0.690225396
C -0.4801832802 -0.1776131794 -0.1031732472
O 0.6987354732 0.5609906977 0.2538743264
C 1.8766079784 -0.0341762655 -0.0584427005
C 3.0441362783 0.5293003498 0.7161667199
C 4.2876141515 -0.3708286251 0.7587502205
C 4.3178535326 -1.5039540613 -0.2471373733
O 5.1966138542 -1.692897193 -1.0757775085
O -1.9950620578 1.2173529691 -2.0522803125
O 3.3868903352 -2.4803689908 -0.0665906304
O 2.010078778 -0.5467879513 -1.1627337882
C 3.285014358 -3.6145943445 -0.8449484528
C 3.6443417504 1.8068185861 0.0951080551
C 4.3453265834 2.6159962694 1.184676399
C 5.537524544 1.7251087612 1.473859758
C 5.361625067 0.6666664555 0.3765490456
O 4.7332448462 1.3591950091 -0.675072623
H 2.672433147 0.77219755 1.7385190998
H 4.4430242669 -0.8239467335 1.762418813
H 2.8940797751 2.4348136587 -0.4335009384
H 4.7084708951 3.5518757214 0.7021495828
H 3.7272343025 2.8805005148 2.0695756733
H 6.4647224502 2.3200479036 1.3189156831
H 5.5464991163 1.2555789572 2.4815391459
H 6.3410324626 0.1973600124 0.1370908971
O -2.5602417136 -2.8671541923 0.6725726179
C -0.9522772815 2.0816381661 -2.327432377
C -4.7500186869 1.1643662689 0.047405137
C -6.2020975349 0.9308043768 -0.3713064302
C -6.4524107706 -0.4346631684 0.2344105049
C -5.1082835249 -0.6828668117 0.9255982936
O -4.7070551978 0.602453474 1.3343062616
H -4.170956526 0.2449595852 -1.8355218572
H -4.4290274063 -1.8763965125 -0.7856569895
H 0.0209106908 1.6639232837 -2.0057167375
H -4.4951060307 2.2445023882 -0.0260795076
H -6.83429373 1.6756535959 0.1628274952
H -6.385518313 1.0076192379 -1.4646631561
H -7.2538004711 -0.3369828402 1.0005199702
H -6.7172543913 -1.2361943681 -0.4885610694
H -5.2245340909 -1.437234997 1.7350878566
H -1.1244286741 3.0565658463 -1.8246069912
H -0.9049487383 2.2498860133 -3.4227024108
H 2.4385946457 -4.2313433358 -0.4794117645
H 4.2193263089 -4.2117110427 -0.7784429123
H 3.091910163 -3.3346322954 -1.9027713564
H -0.2909189679 -1.1995915499 0.3108849542
H -0.4946090953 -0.4616411661 -1.1913351915
H -1.0463471503 0.4664476933 1.8153973217
H -1.0642137408 0.4815224133 1.8263556272
$end

$rem
JOBTYPE                   OPT
METHOD                    B3LYP
DFT_D                     d3_op
BASIS                     STO-3G
GEOM_OPT_MAX_CYCLES       100
GEOM_OPT_TOL_GRADIENT     300
GEOM_OPT_TOL_DISPLACEMENT 1200
GEOM_OPT_TOL_ENERGY       100
SYMMETRY                  False
THRESH                    12
SCF_CONVERGENCE           8
MAX_SUB_FILE_NUM          128
MEM_STATIC                400
MEM_TOTAL                 4000
$end
--------------------------------------------------------------

   19   -1490.1863230681      5.39E-09 Convergence criterion met
 Total energy in the final basis set = -1490.18632307
   14   -1505.9256134873      4.67E-09 Convergence criterion met
 Total energy in the final basis set = -1505.92561349
   13   -1507.9694744319      3.79E-09 Convergence criterion met
 Total energy in the final basis set = -1507.96947443
   13   -1508.7606288011      9.15E-09 Convergence criterion met
 Total energy in the final basis set = -1508.76062880
   14   -1509.1862837056      9.00E-09 Convergence criterion met
 Total energy in the final basis set = -1509.18628371
   14   -1509.4319694739      6.14E-09 Convergence criterion met
 Total energy in the final basis set = -1509.43196947
   14   -1509.6243595947      9.27E-09 Convergence criterion met
 Total energy in the final basis set = -1509.62435959
   14   -1509.7633232441      8.36E-09 Convergence criterion met
   10   -1510.2328853504      5.39E-09 Convergence criterion met
 Total energy in the final basis set = -1510.23288535
   11   -1510.2328965845      2.21E-09 Convergence criterion met
 Total energy in the final basis set = -1510.23289658
   11   -1510.2329045731      3.07E-09 Convergence criterion met
 Total energy in the final basis set = -1510.23290457
   10   -1510.2329080343      9.13E-09 Convergence criterion met
 Total energy in the final basis set = -1510.23290803
   10   -1510.2329099079      3.96E-09 Convergence criterion met
 Total energy in the final basis set = -1510.23290991
    9   -1510.2329076115      8.11E-09 Convergence criterion met
 Total energy in the final basis set = -1510.23290761

             Standard Nuclear Orientation (Angstroms)
    I     Atom           X                Y                Z
 ----------------------------------------------------------------
    1      O      -1.9444041320     0.3444016693     0.6691174989
    2      C      -2.4571745918     0.4639383039    -0.7138065350
    3      C      -3.9918993994     0.3932955352    -0.9341748266
    4      C      -4.6640234222    -0.8924388533    -0.3163782394
    5      C      -3.7574848313    -1.9933332271     0.3609178137
    6      O      -2.3372895391    -2.0540028899     0.0964104352
    7      C      -1.7014902290    -0.7930828368    -0.2545374954
    8      C      -0.2318765053    -1.1122691856    -0.6892764749
    9      O       0.6812619484    -0.2628571275     0.1236639755
   10      C       2.0519454470    -0.5579681882    -0.2104296212
   11      C       2.9866929069     0.3603190007     0.6395351435
   12      C       4.4968488830    -0.1156017634     0.6141376062
   13      C       4.7419608071    -1.4711973829    -0.1465860473
   14      O       5.3660000864    -1.6380266492    -1.2152398019
   15      O      -1.8887922199     1.4564808531    -1.6075615161
   16      O       4.2200060533    -2.5310441620     0.6680774213
   17      O       2.3794129208    -1.4056860000    -1.0674855118
   18      C       4.3606548193    -3.8229087006    -0.0396989707
   19      C       3.1218851719     1.7960651555    -0.0371466052
   20      C       3.8242954822     2.7695109904     0.9899229788
   21      C       5.3223638659     2.2974701248     0.8848837203
   22      C       5.1886623317     1.0994738264    -0.1332664464
   23      O       4.1471509673     1.5696200403    -1.0780076068
   24      H       2.5827503258     0.4292486568     1.6649974902
   25      H       4.8768734314    -0.2312837911     1.6453423802
   26      H       2.1864523863     2.1814136568    -0.4861554852
   27      H       3.7050973367     3.8164436449     0.6688178917
   28      H       3.4140428237     2.6625830067     2.0067256783
   29      H       5.9649081722     3.0885728318     0.4665661091
   30      H       5.7388337924     1.9787306498     1.8535660522
   31      H       6.1085175944     0.8223475241    -0.6838343719
   32      O      -4.2404913062    -2.9206354395     1.0449245679
   33      C      -0.7236310276     2.1189519006    -0.9774231824
   34      C      -4.7448121439     1.5420367056    -0.1350465544
   35      C      -6.2247256338     1.6435849670    -0.6749535737
   36      C      -6.8785018992     0.3728541669    -0.0148446476
   37      C      -5.6430127954    -0.2372140743     0.7550832169
   38      O      -4.9002712333     0.9569043042     1.2169866218
   39      H      -4.1777889709     0.4652835264    -2.0208045647
   40      H      -5.2491369521    -1.4267109675    -1.0880338102
   41      H      -0.0378328720     1.3943601290    -0.4838090772
   42      H      -4.1890063763     2.4983236235    -0.0865811533
   43      H      -6.7004762208     2.5728689384    -0.3238748232
   44      H      -6.2654608123     1.6196280859    -1.7756839584
   45      H      -7.6733442299     0.6502092531     0.6958695510
   46      H      -7.2954723113    -0.3280099748    -0.7555623878
   47      H      -5.8893696020    -0.9044905740     1.6041388071
   48      H      -1.0485387331     2.8695501425    -0.2262783670
   49      H      -0.1986307229     2.6407366031    -1.7991970850
   50      H       3.9779983209    -4.5957625291     0.6521919821
   51      H       5.4185423100    -4.0403574592    -0.2924277446
   52      H       3.7643124830    -3.8333010179    -0.9750917996
   53      H      -0.0316225762    -2.1906148572    -0.5109868649
   54      H      -0.0942667885    -0.8992301991    -1.7721972891
   55      H       0.2619770454    -0.5905524408     2.1206026012
   56      H       0.1566066598    -0.7563791752     2.8252821292
 ----------------------------------------------------------------

    9   -1510.2329085572      9.34E-09 Convergence criterion met
 Total energy in the final basis set = -1510.23290856
 Final energy is   -1510.23290855719
 **  OPTIMIZATION CONVERGED  **

                    Orbital Energies (a.u.)
 --------------------------------------------------------------

 Alpha MOs
 -- Occupied --
-18.962 -18.948 -18.924 -18.921 -18.916 -18.903 -18.893 -18.892
-18.891 -18.867 -10.119 -10.114 -10.112 -10.108 -10.094 -10.093
-10.067 -10.064 -10.064 -10.060 -10.057 -10.050 -10.048 -10.048
-10.045 -10.038 -10.025 -10.024 -10.023 -10.023  -1.047  -1.031
 -1.006  -1.002  -0.976  -0.975  -0.960  -0.957  -0.938  -0.929
 -0.771  -0.768  -0.731  -0.728  -0.715  -0.711  -0.699  -0.662
 -0.657  -0.612  -0.604  -0.574  -0.567  -0.550  -0.542  -0.539
 -0.532  -0.519  -0.496  -0.487  -0.468  -0.466  -0.460  -0.456
 -0.439  -0.437  -0.433  -0.428  -0.414  -0.412  -0.407  -0.403
 -0.397  -0.394  -0.388  -0.385  -0.370  -0.365  -0.357  -0.351
 -0.349  -0.347  -0.340  -0.336  -0.335  -0.330  -0.323  -0.318
 -0.316  -0.314  -0.311  -0.306  -0.305  -0.291  -0.289  -0.282
 -0.280  -0.269  -0.251  -0.248  -0.245  -0.239  -0.238  -0.203
 -0.193  -0.182  -0.173  -0.169  -0.161  -0.150  -0.150  -0.146
 -0.142

          Ground-State Mulliken Net Atomic Charges

     Atom                 Charge (a.u.)
  ----------------------------------------
      1 O                    -0.167687
      2 C                     0.141131
      3 C                    -0.071621
      4 C                    -0.086291
      5 C                     0.215254
      6 O                    -0.168996
      7 C                     0.131293
      8 C                    -0.053279
      9 O                    -0.163985
     10 C                     0.219799
     11 C                    -0.078317
     12 C                    -0.080644
     13 C                     0.215134
     14 O                    -0.213170
     15 O                    -0.186781
     16 O                    -0.176407
     17 O                    -0.196674
     18 C                    -0.128752
     19 C                     0.024944
     20 C                    -0.143737
     21 C                    -0.143688
     22 C                     0.024833
     23 O                    -0.188732
     24 H                     0.093140
     25 H                     0.085772
     26 H                     0.082220
     27 H                     0.078996
     28 H                     0.075562
     29 H                     0.079024
     30 H                     0.074573
     31 H                     0.091473
     32 O                    -0.191152
     33 C                    -0.145262
     34 C                     0.025949
     35 C                    -0.144262
     36 C                    -0.143459
     37 C                     0.026009
     38 O                    -0.187994
     39 H                     0.088841
     40 H                     0.088404
     41 H                     0.097313
     42 H                     0.085449
     43 H                     0.079136
     44 H                     0.074392
     45 H                     0.079761
     46 H                     0.074332
     47 H                     0.090872
     48 H                     0.076538
     49 H                     0.082431
     50 H                     0.087826
     51 H                     0.087687
     52 H                     0.091823
     53 H                     0.107867
     54 H                     0.099954
     55 H                     0.006617
     56 H                    -0.023455
  ----------------------------------------
  Sum of atomic charges =    -0.000000

                    Cartesian Multipole Moments
 -----------------------------------------------------------------
    Charge (ESU x 10^10)
                -0.0000
    Dipole Moment (Debye)
         X      -0.8437      Y       1.9106      Z      -0.3126
       Tot       2.1119
    Quadrupole Moments (Debye-Ang)
        XX    -152.1271     XY      -2.1426     YY    -160.1346
        XZ      21.6925     YZ       3.5617     ZZ    -167.7514

 Total job time:  221.99s(wall), 10588.56s(cpu)
        *  Thank you very much for using Q-Chem.  Have a nice day.  *
