 Q-Chem 5.0, Q-Chem, Inc., Pleasanton, CA (2017)
 Q-Chem 5.0.1 for Intel X86 EM64T Linux

User input:
--------------------------------------------------------------
$molecule
0  1
O -2.7043456645 0.7087130192 2.0889424138
C -3.1997800107 1.2758007928 1.0932180474
C -3.8463261558 0.6527097598 -0.1907836133
C -3.3120108333 -0.7782959826 -0.6208689088
C -2.4420504128 -1.5069558464 0.4906363297
O -1.0081719774 -1.5385521955 0.3067949237
C -0.5776943289 -1.9429907571 -1.0440145929
C 0.3490201394 -0.8911220522 -1.7835045857
O 1.6964326195 -0.6216772695 -1.2452229775
C 1.7254695169 0.018491215 0.0450225467
C 2.9177179725 1.0627357847 0.0726823721
C 4.3188585868 0.4338673319 0.4604766021
C 4.2101155514 -1.0567980104 0.91427732
O 3.3510249493 -1.8950396973 0.5596976027
O -3.2855397795 2.7029265012 0.9549036378
O 5.3019764093 -1.3504396323 1.7901777763
O 0.8795565393 -0.1025885707 0.9531435162
C 5.2487314737 -2.7728895248 2.2033806373
C 3.2437464901 1.6135506934 -1.3772562453
C 4.2218766179 2.8505177273 -1.2544484344
C 5.5922028591 2.1341932641 -0.958566213
C 5.1310293742 0.6256669804 -0.8976869341
O 4.0969040117 0.545192309 -1.9511192201
H 2.6327818909 1.8615583378 0.7799021893
H 4.8025570245 1.0002199515 1.276061874
H 2.3550627787 1.7805359515 -2.0153664174
H 4.25440991 3.4118222098 -2.2015804825
H 3.9200156927 3.5379418312 -0.4478705027
H 6.3099977065 2.2821128314 -1.7812024561
H 6.0570605997 2.4687967713 -0.0175905092
H 5.9276553565 -0.1234091415 -1.0719562567
O -2.9201229477 -1.9945254591 1.5353990593
C -2.7241830663 3.3568144434 2.1593450416
C -5.4087044138 0.3632956035 -0.0365082511
C -6.0320291761 0.3426663998 -1.487157067
C -5.4665104283 -1.0207893436 -2.0333856516
C -4.6875935709 -1.5606514324 -0.7678561058
O -5.4740404649 -1.0530799863 0.3796263018
H -3.6838610299 1.3800386433 -1.0064181107
H -2.7715297059 -0.7071554863 -1.5775508092
H -1.6714342998 3.0546570188 2.3343999112
H -5.9297537491 1.0109992662 0.6948903285
H -7.1322640808 0.3276525949 -1.4296855116
H -5.720791805 1.2099304629 -2.0907984113
H -6.2764704957 -1.7123484739 -2.3145185442
H -4.8013652121 -0.8859777619 -2.9014354752
H -4.5920690919 -2.6620707416 -0.7086093399
H -3.3125117779 3.1137111762 3.06788733
H -2.7728587703 4.4445899161 1.9682646341
H 6.1018293137 -2.9230316713 2.8901926772
H 5.3477075238 -3.4539143586 1.3333882241
H 4.3008508694 -3.0089488262 2.7286064385
H 0.5392846704 -1.2870456094 -2.802898926
H -0.216089233 0.0642858346 -1.8823437581
H -1.4244813875 -2.1675400425 -1.7242485175
H 0.0064383614 -2.8831267886 -0.9221447625
$end

$rem
JOBTYPE                   OPT
METHOD                    B3LYP
DFT_D                     d3_op
BASIS                     STO-3G
GEOM_OPT_MAX_CYCLES       100
GEOM_OPT_TOL_GRADIENT     300
GEOM_OPT_TOL_DISPLACEMENT 1200
GEOM_OPT_TOL_ENERGY       100
SYMMETRY                  False
THRESH                    12
SCF_CONVERGENCE           8
MAX_SUB_FILE_NUM          128
MEM_STATIC                400
MEM_TOTAL                 4000
$end
--------------------------------------------------------------

   16   -1510.2459693499      5.30E-09 Convergence criterion met
 Total energy in the final basis set = -1510.24596935
   14   -1510.2511122118      3.27E-09 Convergence criterion met
 Total energy in the final basis set = -1510.25111221
   14   -1510.2564736093      2.91E-09 Convergence criterion met
 Total energy in the final basis set = -1510.25647361
   14   -1510.2616831138      2.71E-09 Convergence criterion met
 Total energy in the final basis set = -1510.26168311
   14   -1510.2651611200      2.63E-09 Convergence criterion met
 Total energy in the final basis set = -1510.26516112
   14   -1510.2660334603      7.03E-09 Convergence criterion met
 Total energy in the final basis set = -1510.26603346
   13   -1510.2677031690      9.59E-09 Convergence criterion met
 Total energy in the final basis set = -1510.26770317
   14   -1510.2698653587      4.75E-09 Convergence criterion met
   12   -1510.2878782707      6.00E-09 Convergence criterion met
 Total energy in the final basis set = -1510.28787827
   12   -1510.2879220869      4.69E-09 Convergence criterion met
 Total energy in the final basis set = -1510.28792209
   11   -1510.2879136801      4.35E-09 Convergence criterion met
 Total energy in the final basis set = -1510.28791368
   11   -1510.2879180151      3.52E-09 Convergence criterion met
 Total energy in the final basis set = -1510.28791802
   10   -1510.2879164957      4.97E-09 Convergence criterion met
 Total energy in the final basis set = -1510.28791650
    9   -1510.2879180655      8.52E-09 Convergence criterion met
 Total energy in the final basis set = -1510.28791807

             Standard Nuclear Orientation (Angstroms)
    I     Atom           X                Y                Z
 ----------------------------------------------------------------
    1      O      -1.4398564950     0.1394308748     1.3170731784
    2      C      -2.3574224761     0.7233543528     0.6963231903
    3      C      -3.3455115705     0.0521007398    -0.3182977844
    4      C      -2.7325638399    -1.2619463056    -0.9545914795
    5      C      -1.2146960183    -1.5401185686    -0.5951546351
    6      O      -0.1718559091    -0.7856863364    -1.2222792651
    7      C      -0.5620281251     0.2890564573    -2.1612615036
    8      C      -0.1122310053     1.6892281019    -1.6130111911
    9      O       1.3447180278     1.6341095810    -1.3786966301
   10      C       1.6996195139     2.2465164212    -0.1302277338
   11      C       3.2475713706     2.0402872742     0.0877397075
   12      C       3.6225845033     0.6127605207     0.6602741381
   13      C       2.3474717668    -0.2375370976     0.9809581556
   14      O       1.1666985615     0.1833692933     0.9282520504
   15      O      -2.6846565215     2.1031420612     0.8312934834
   16      O       2.7311208327    -1.5436717824     1.3713255207
   17      O       0.9432513079     2.9766718614     0.5527760140
   18      C       1.5432004632    -2.3377374116     1.7845809799
   19      C       4.0441373931     2.0156200828    -1.2850947474
   20      C       5.5881774820     2.1515868030    -0.9715923446
   21      C       5.9270975478     0.7031076889    -0.4569841148
   22      C       4.5044992997     0.0216364583    -0.5229011641
   23      O       3.9007480232     0.6124113898    -1.7381698037
   24      H       3.5977566239     2.8440892011     0.7586992016
   25      H       4.2209600980     0.6952571061     1.5862183705
   26      H       3.6572445681     2.7111571590    -2.0543709407
   27      H       6.1476699199     2.3971874271    -1.8881665501
   28      H       5.7885664005     2.9284368425    -0.2164984770
   29      H       6.6298243933     0.1893057519    -1.1321612637
   30      H       6.3469887111     0.6980585163     0.5616066857
   31      H       4.5041440290    -1.0842548854    -0.5797702048
   32      O      -0.8487117197    -2.4940579994     0.1341180026
   33      C      -1.7598375639     2.7544959612     1.7976835294
   34      C      -4.5854344998    -0.5580782122     0.4709804351
   35      C      -5.6715623936    -1.0328260556    -0.5756001906
   36      C      -5.0322920043    -2.3747455769    -1.0941617719
   37      C      -3.6639489695    -2.3758259792    -0.3083527005
   38      O      -4.0316870884    -1.8180748295     1.0126190314
   39      H      -3.6619290532     0.7894546968    -1.0775135290
   40      H      -2.8512512673    -1.2633466699    -2.0524072111
   41      H      -0.7280491433     2.8321203533     1.3733625491
   42      H      -4.9655479797     0.0868903443     1.2869744170
   43      H      -6.6381982677    -1.2078623261    -0.0773161268
   44      H      -5.8168197556    -0.2927869849    -1.3787790064
   45      H      -5.6405689173    -3.2472877766    -0.8070975635
   46      H      -4.8894817138    -2.3872343041    -2.1864469457
   47      H      -3.1682545730    -3.3583949900    -0.1872374382
   48      H      -1.7240735665     2.1961026188     2.7538657220
   49      H      -2.1736906663     3.7644056793     1.9703853245
   50      H       1.9230610474    -3.3608018897     1.9589245110
   51      H       0.7289517035    -2.3525008452     1.0131092365
   52      H       1.1263158590    -1.9387535636     2.7314260302
   53      H      -0.3428333159     2.4631332829    -2.3791621211
   54      H      -0.6490815585     1.9487412702    -0.6799309278
   55      H      -1.6462565760     0.3192502937    -2.3790907461
   56      H      -0.0187591031     0.0868630306    -3.1097033770
 ----------------------------------------------------------------

    9   -1510.2879178029      4.69E-09 Convergence criterion met
 Total energy in the final basis set = -1510.28791780
 Final energy is   -1510.28791780286
 **  OPTIMIZATION CONVERGED  **

                    Orbital Energies (a.u.)
 --------------------------------------------------------------

 Alpha MOs
 -- Occupied --
-18.934 -18.930 -18.925 -18.922 -18.890 -18.882 -18.876 -18.873
-18.871 -18.861 -10.104 -10.096 -10.095 -10.091 -10.078 -10.068
-10.063 -10.059 -10.055 -10.054 -10.041 -10.039 -10.039 -10.031
-10.029 -10.026 -10.023 -10.022 -10.016 -10.015  -1.011  -1.005
 -1.000  -0.995  -0.972  -0.964  -0.936  -0.932  -0.926  -0.924
 -0.765  -0.757  -0.724  -0.722  -0.710  -0.707  -0.696  -0.651
 -0.641  -0.604  -0.598  -0.580  -0.551  -0.540  -0.539  -0.532
 -0.511  -0.508  -0.483  -0.476  -0.463  -0.458  -0.453  -0.440
 -0.434  -0.429  -0.426  -0.413  -0.408  -0.401  -0.400  -0.393
 -0.384  -0.383  -0.368  -0.364  -0.360  -0.355  -0.351  -0.344
 -0.336  -0.331  -0.329  -0.328  -0.322  -0.317  -0.316  -0.311
 -0.308  -0.302  -0.299  -0.297  -0.291  -0.282  -0.280  -0.273
 -0.269  -0.251  -0.244  -0.238  -0.236  -0.232  -0.229  -0.176
 -0.170  -0.170  -0.158  -0.150  -0.147  -0.146  -0.142  -0.140
 -0.137

          Ground-State Mulliken Net Atomic Charges

     Atom                 Charge (a.u.)
  ----------------------------------------
      1 O                    -0.194555
      2 C                     0.201691
      3 C                    -0.082032
      4 C                    -0.086153
      5 C                     0.225904
      6 O                    -0.162342
      7 C                    -0.046191
      8 C                    -0.049039
      9 O                    -0.170519
     10 C                     0.226627
     11 C                    -0.080541
     12 C                    -0.078615
     13 C                     0.216314
     14 O                    -0.198719
     15 O                    -0.174862
     16 O                    -0.171650
     17 O                    -0.230423
     18 C                    -0.146013
     19 C                     0.026712
     20 C                    -0.144809
     21 C                    -0.143444
     22 C                     0.025356
     23 O                    -0.186571
     24 H                     0.082255
     25 H                     0.084320
     26 H                     0.082936
     27 H                     0.076476
     28 H                     0.072576
     29 H                     0.077143
     30 H                     0.073234
     31 H                     0.088940
     32 O                    -0.205250
     33 C                    -0.146438
     34 C                     0.026084
     35 C                    -0.144423
     36 C                    -0.143976
     37 C                     0.026810
     38 O                    -0.186019
     39 H                     0.081160
     40 H                     0.077309
     41 H                     0.115679
     42 H                     0.085045
     43 H                     0.079019
     44 H                     0.072744
     45 H                     0.079273
     46 H                     0.072020
     47 H                     0.093156
     48 H                     0.085859
     49 H                     0.082769
     50 H                     0.079492
     51 H                     0.122203
     52 H                     0.079665
     53 H                     0.080090
     54 H                     0.098375
     55 H                     0.083246
     56 H                     0.092099
  ----------------------------------------
  Sum of atomic charges =    -0.000000

                    Cartesian Multipole Moments
 -----------------------------------------------------------------
    Charge (ESU x 10^10)
                 0.0000
    Dipole Moment (Debye)
         X      -0.9918      Y       1.5994      Z      -2.3697
       Tot       3.0261
    Quadrupole Moments (Debye-Ang)
        XX    -140.4259     XY       4.1954     YY    -161.1809
        XZ      10.7975     YZ       1.7148     ZZ    -156.1996

 Total job time:  130.11s(wall), 6206.76s(cpu)
        *  Thank you very much for using Q-Chem.  Have a nice day.  *
