 Q-Chem 5.0, Q-Chem, Inc., Pleasanton, CA (2017)
 Q-Chem 5.0.1 for Intel X86 EM64T Linux

User input:
--------------------------------------------------------------
$molecule
0  1
O -3.94934 -3.66094 2.70899
C -3.26408 -4.56952 2.26188
C -3.36658 -6.02376 2.66595
C -3.85957 -6.32399 4.09097
C -4.36389 -5.14454 4.89263
O -3.42981 -4.78052 5.82021
C -2.90827 -5.88987 6.55953
C -1.39074 -5.94844 6.41889
O -0.79589 -4.80593 7.05426
C -1.06831 -3.60969 6.47639
C 0.11196 -2.66764 6.48933
C 0.26902 -1.8444 7.77615
C -0.5321 -2.3245 8.96963
O -0.86849 -3.4811 9.17862
O -2.22421 -4.25608 1.44495
O -1.0206 -1.34969 9.78059
O -1.70116 -3.44012 5.4493
C -1.81726 -1.5818 10.88226
C 1.48187 -3.38472 6.44165
C 2.55699 -2.43026 5.92243
C 2.68905 -1.48993 7.10107
C 1.74262 -2.16756 8.09821
O 1.84306 -3.53591 7.78968
H 0.06678 -1.9976 5.59571
H 0.11476 -0.7494 7.65047
H 1.46987 -4.31236 5.8281
H 3.49837 -3.01829 5.83014
H 2.33419 -1.94334 4.94873
H 3.73911 -1.53205 7.46686
H 2.39507 -0.43598 6.90542
H 2.01635 -1.88509 9.13959
O -5.33747 -4.4537 4.62921
C -1.92737 -2.97808 1.01989
C -4.49439 -6.70565 1.85703
C -4.27444 -8.21802 1.81973
C -4.64204 -8.58838 3.23976
C -5.07343 -7.21998 3.78032
O -5.64035 -6.58429 2.6628
H -2.4074 -6.52093 2.38854
H -3.03997 -6.94768 4.48241
H -1.70629 -2.32611 1.89203
H -4.58434 -6.31189 0.82015
H -5.03773 -8.65038 1.13367
H -3.26224 -8.53707 1.49034
H -5.51614 -9.27651 3.20821
H -3.82609 -9.04487 3.84062
H -5.73933 -7.3501 4.66248
H -2.77996 -2.55925 0.44357
H -1.03402 -3.01139 0.36318
H -2.06852 -0.61284 11.36024
H -1.27678 -2.2147 11.6183
H -2.75943 -2.08404 10.57481
H -1.03637 -6.8461 6.96793
H -1.06582 -6.0472 5.35982
H -3.41553 -6.87416 6.4432
H -3.11627 -5.69181 7.63317
$end

$opt
CONSTRAINT
tors           1           2           3           4     -28.421
tors           3           4           5           6    -104.211
tors           4           5           6           7     -47.368
tors           5           6           7           8    +123.158
tors           6           7           8           9     +66.316
tors           7           8           9          10     -66.316
tors           8           9          10          11    -142.105
tors           9          10          11          12     -85.263
tors          11          12          13          14     +28.421
ENDCONSTRAINT
$end

$rem
JOBTYPE                   OPT
METHOD                    B3LYP
DFT_D                     d3_op
BASIS                     STO-3G
GEOM_OPT_MAX_CYCLES       100
GEOM_OPT_TOL_GRADIENT     300
GEOM_OPT_TOL_DISPLACEMENT 1200
GEOM_OPT_TOL_ENERGY       100
SYMMETRY                  False
THRESH                    12
SCF_CONVERGENCE           8
MAX_SUB_FILE_NUM          128
MEM_STATIC                400
MEM_TOTAL                 4000
$end
--------------------------------------------------------------

   15   -1510.0717626462      8.62E-09 Convergence criterion met
 Total energy in the final basis set = -1510.07176265
   14   -1510.1516556725      6.42E-09 Convergence criterion met
 Total energy in the final basis set = -1510.15165567
   14   -1510.1953749848      5.49E-09 Convergence criterion met
 Total energy in the final basis set = -1510.19537498
   14   -1510.2211826620      9.45E-09 Convergence criterion met
 Total energy in the final basis set = -1510.22118266
   14   -1510.2328787210      3.31E-09 Convergence criterion met
 Total energy in the final basis set = -1510.23287872
   14   -1510.2386210548      2.81E-09 Convergence criterion met
 Total energy in the final basis set = -1510.23862105
   13   -1510.2419685060      5.35E-09 Convergence criterion met
 Total energy in the final basis set = -1510.24196851
   13   -1510.2438401890      5.10E-09 Convergence criterion met
   11   -1510.2460488291      6.06E-09 Convergence criterion met
 Total energy in the final basis set = -1510.24604883
   11   -1510.2460818071      3.71E-09 Convergence criterion met
 Total energy in the final basis set = -1510.24608181
   11   -1510.2460996751      2.47E-09 Convergence criterion met
 Total energy in the final basis set = -1510.24609968
    9   -1510.2461103968      8.13E-09 Convergence criterion met
 Total energy in the final basis set = -1510.24611040
   10   -1510.2461174612      8.77E-09 Convergence criterion met
 Total energy in the final basis set = -1510.24611746
   10   -1510.2461211207      7.63E-09 Convergence criterion met
 Total energy in the final basis set = -1510.24612112

             Standard Nuclear Orientation (Angstroms)
    I     Atom           X                Y                Z
 ----------------------------------------------------------------
    1      O      -2.7043456645     0.7087130192     2.0889424138
    2      C      -3.1997800107     1.2758007928     1.0932180474
    3      C      -3.8463261558     0.6527097598    -0.1907836133
    4      C      -3.3120108333    -0.7782959826    -0.6208689088
    5      C      -2.4420504128    -1.5069558464     0.4906363297
    6      O      -1.0081719774    -1.5385521955     0.3067949237
    7      C      -0.5776943289    -1.9429907571    -1.0440145929
    8      C       0.3490201394    -0.8911220522    -1.7835045857
    9      O       1.6964326195    -0.6216772695    -1.2452229775
   10      C       1.7254695169     0.0184912150     0.0450225467
   11      C       2.9177179725     1.0627357847     0.0726823721
   12      C       4.3188585868     0.4338673319     0.4604766021
   13      C       4.2101155514    -1.0567980104     0.9142773200
   14      O       3.3510249493    -1.8950396973     0.5596976027
   15      O      -3.2855397795     2.7029265012     0.9549036378
   16      O       5.3019764093    -1.3504396323     1.7901777763
   17      O       0.8795565393    -0.1025885707     0.9531435162
   18      C       5.2487314737    -2.7728895248     2.2033806373
   19      C       3.2437464901     1.6135506934    -1.3772562453
   20      C       4.2218766179     2.8505177273    -1.2544484344
   21      C       5.5922028591     2.1341932641    -0.9585662130
   22      C       5.1310293742     0.6256669804    -0.8976869341
   23      O       4.0969040117     0.5451923090    -1.9511192201
   24      H       2.6327818909     1.8615583378     0.7799021893
   25      H       4.8025570245     1.0002199515     1.2760618740
   26      H       2.3550627787     1.7805359515    -2.0153664174
   27      H       4.2544099100     3.4118222098    -2.2015804825
   28      H       3.9200156927     3.5379418312    -0.4478705027
   29      H       6.3099977065     2.2821128314    -1.7812024561
   30      H       6.0570605997     2.4687967713    -0.0175905092
   31      H       5.9276553565    -0.1234091415    -1.0719562567
   32      O      -2.9201229477    -1.9945254591     1.5353990593
   33      C      -2.7241830663     3.3568144434     2.1593450416
   34      C      -5.4087044138     0.3632956035    -0.0365082511
   35      C      -6.0320291761     0.3426663998    -1.4871570670
   36      C      -5.4665104283    -1.0207893436    -2.0333856516
   37      C      -4.6875935709    -1.5606514324    -0.7678561058
   38      O      -5.4740404649    -1.0530799863     0.3796263018
   39      H      -3.6838610299     1.3800386433    -1.0064181107
   40      H      -2.7715297059    -0.7071554863    -1.5775508092
   41      H      -1.6714342998     3.0546570188     2.3343999112
   42      H      -5.9297537491     1.0109992662     0.6948903285
   43      H      -7.1322640808     0.3276525949    -1.4296855116
   44      H      -5.7207918050     1.2099304629    -2.0907984113
   45      H      -6.2764704957    -1.7123484739    -2.3145185442
   46      H      -4.8013652121    -0.8859777619    -2.9014354752
   47      H      -4.5920690919    -2.6620707416    -0.7086093399
   48      H      -3.3125117779     3.1137111762     3.0678873300
   49      H      -2.7728587703     4.4445899161     1.9682646341
   50      H       6.1018293137    -2.9230316713     2.8901926772
   51      H       5.3477075238    -3.4539143586     1.3333882241
   52      H       4.3008508694    -3.0089488262     2.7286064385
   53      H       0.5392846704    -1.2870456094    -2.8028989260
   54      H      -0.2160892330     0.0642858346    -1.8823437581
   55      H      -1.4244813875    -2.1675400425    -1.7242485175
   56      H       0.0064383614    -2.8831267886    -0.9221447625
 ----------------------------------------------------------------

    9   -1510.2461228842      5.68E-09 Convergence criterion met
 Total energy in the final basis set = -1510.24612288
 Final energy is   -1510.24612288425
 **  OPTIMIZATION CONVERGED  **

                    Orbital Energies (a.u.)
 --------------------------------------------------------------

 Alpha MOs
 -- Occupied --
-18.936 -18.928 -18.912 -18.910 -18.889 -18.888 -18.878 -18.875
-18.873 -18.870 -10.099 -10.094 -10.091 -10.089 -10.071 -10.068
-10.064 -10.061 -10.060 -10.060 -10.059 -10.058 -10.036 -10.036
-10.033 -10.031 -10.021 -10.021 -10.020 -10.020  -1.012  -1.007
 -0.996  -0.988  -0.970  -0.969  -0.936  -0.932  -0.927  -0.923
 -0.761  -0.761  -0.722  -0.721  -0.711  -0.705  -0.697  -0.662
 -0.660  -0.605  -0.597  -0.584  -0.546  -0.544  -0.539  -0.536
 -0.513  -0.509  -0.479  -0.470  -0.459  -0.459  -0.452  -0.441
 -0.433  -0.433  -0.416  -0.413  -0.411  -0.408  -0.406  -0.399
 -0.393  -0.376  -0.374  -0.370  -0.363  -0.352  -0.347  -0.341
 -0.339  -0.337  -0.334  -0.331  -0.328  -0.328  -0.314  -0.311
 -0.309  -0.305  -0.299  -0.297  -0.296  -0.283  -0.279  -0.273
 -0.271  -0.255  -0.252  -0.234  -0.234  -0.230  -0.221  -0.178
 -0.174  -0.168  -0.154  -0.151  -0.151  -0.144  -0.142  -0.140
 -0.124

          Ground-State Mulliken Net Atomic Charges

     Atom                 Charge (a.u.)
  ----------------------------------------
      1 O                    -0.198276
      2 C                     0.205982
      3 C                    -0.079731
      4 C                    -0.085623
      5 C                     0.214750
      6 O                    -0.166576
      7 C                    -0.048713
      8 C                    -0.045504
      9 O                    -0.174271
     10 C                     0.215736
     11 C                    -0.079954
     12 C                    -0.080127
     13 C                     0.210096
     14 O                    -0.203699
     15 O                    -0.174504
     16 O                    -0.169376
     17 O                    -0.193474
     18 C                    -0.128788
     19 C                     0.027224
     20 C                    -0.145317
     21 C                    -0.142728
     22 C                     0.025964
     23 O                    -0.184674
     24 H                     0.082794
     25 H                     0.085526
     26 H                     0.081274
     27 H                     0.076830
     28 H                     0.073095
     29 H                     0.077562
     30 H                     0.074179
     31 H                     0.083281
     32 O                    -0.180382
     33 C                    -0.129619
     34 C                     0.026883
     35 C                    -0.142786
     36 C                    -0.145459
     37 C                     0.025819
     38 O                    -0.182163
     39 H                     0.083134
     40 H                     0.072698
     41 H                     0.091440
     42 H                     0.084697
     43 H                     0.078372
     44 H                     0.073466
     45 H                     0.078298
     46 H                     0.070759
     47 H                     0.083592
     48 H                     0.088789
     49 H                     0.087902
     50 H                     0.090756
     51 H                     0.089260
     52 H                     0.093081
     53 H                     0.088755
     54 H                     0.071787
     55 H                     0.078131
     56 H                     0.089829
  ----------------------------------------
  Sum of atomic charges =     0.000000

                    Cartesian Multipole Moments
 -----------------------------------------------------------------
    Charge (ESU x 10^10)
                 0.0000
    Dipole Moment (Debye)
         X       1.4529      Y       2.8059      Z      -3.3863
       Tot       4.6315
    Quadrupole Moments (Debye-Ang)
        XX    -147.8396     XY      -5.2072     YY    -150.2252
        XZ      17.7459     YZ       7.0635     ZZ    -160.9190

 Total job time:  61.76s(wall), 2941.94s(cpu)
        *  Thank you very much for using Q-Chem.  Have a nice day.  *
