 Q-Chem 5.0, Q-Chem, Inc., Pleasanton, CA (2017)
 Q-Chem 5.0.1 for Intel X86 EM64T Linux

User input:
--------------------------------------------------------------
$molecule
0  1
O 2.1231054862 -1.8438516032 0.8747411979
C 3.1900455737 -1.2020821599 0.8043855394
C 3.6093680941 -0.0040194531 -0.1116582465
C 2.6834797594 0.4403744607 -1.3202802039
C 1.3138479338 -0.2666425057 -1.6611740967
O 1.4017777852 -1.6970352436 -1.6817992193
C 0.0306989967 -2.2552414919 -1.5484652589
C -0.4691346094 -2.4006891465 -0.0563940276
O -1.9467571209 -2.5255668284 0.0882252899
C -2.6857115397 -1.5493476957 -0.6761640156
C -3.6442437272 -0.6943069994 0.2370394313
C -3.0127081881 0.581106738 0.9537446781
C -1.4565559172 0.8026663425 0.9317625104
O -0.8159302496 1.6155507696 0.2316946455
O 4.3228690761 -1.4746470443 1.6435747009
O -0.8911749046 -0.0195426284 1.9593709816
O -2.6016159403 -1.4093522944 -1.9191011346
C 0.5025965228 0.3756522048 2.2835618192
C -4.7395426943 0.0068151076 -0.6733056734
C -5.8990588543 0.5740842304 0.2382697414
C -5.2240609867 1.8699071034 0.8242061732
C -3.7782262175 1.7564312368 0.2033229534
O -4.0341512661 1.2180891858 -1.1502925778
H -4.0881772786 -1.3664418187 0.9939775606
H -3.2983869363 0.5514974864 2.0210722336
H -5.0675172485 -0.6089527389 -1.5327538792
H -6.7842912097 0.8180242711 -0.3701403133
H -6.1964820216 -0.1402399924 1.0226893363
H -5.7245583289 2.7825302811 0.4630417435
H -5.2105526692 1.8857484235 1.925713237
H -3.2013279436 2.6994088659 0.1405100189
O 0.2557350363 0.3639779991 -1.8859738115
C 4.0067962357 -2.5827943501 2.5733777121
C 3.6486885371 1.344572248 0.739292973
C 4.566254092 2.3896880231 -0.0049409567
C 3.6238441632 2.8413702075 -1.1834441707
C 2.3569754097 1.9439426634 -0.9181823053
O 2.2865852075 1.8954270371 0.5625217703
H 4.6219752373 -0.2402199019 -0.4850584048
H 3.2909495725 0.4189205049 -2.2449433872
H 3.7066170297 -3.5007727352 2.0282726164
H 3.8766280216 1.1934052955 1.8123412384
H 4.8120689134 3.230863589 0.6625399995
H 5.5040953979 1.9335800344 -0.3598207814
H 3.363519546 3.9089249584 -1.1052956048
H 4.0619760753 2.6550562903 -2.1767539357
H 1.3918541853 2.2957942475 -1.333719124
H 3.1912543584 -2.309162187 3.2742840302
H 4.9335452747 -2.7756385988 3.1444321709
H 1.061618715 -0.5579472713 2.4797223758
H 0.4915392193 0.9906574758 3.2063989917
H 1.0059933037 0.952781372 1.4652948224
H -0.0555867577 -3.3135874802 0.4154638735
H -0.1346210374 -1.5233235257 0.536669361
H 0.0756532265 -3.255861206 -2.0222486396
H -0.7079223674 -1.6325811321 -2.0998233231
$end

$rem
JOBTYPE                   OPT
METHOD                    B3LYP
DFT_D                     d3_op
BASIS                     STO-3G
GEOM_OPT_MAX_CYCLES       100
GEOM_OPT_TOL_GRADIENT     300
GEOM_OPT_TOL_DISPLACEMENT 1200
GEOM_OPT_TOL_ENERGY       100
SYMMETRY                  False
THRESH                    12
SCF_CONVERGENCE           8
MAX_SUB_FILE_NUM          128
MEM_STATIC                400
MEM_TOTAL                 4000
$end
--------------------------------------------------------------

   16   -1510.2642433932      5.94E-09 Convergence criterion met
 Total energy in the final basis set = -1510.26424339
   14   -1510.2613636663      5.78E-09 Convergence criterion met
 Total energy in the final basis set = -1510.26136367
   13   -1510.2684589904      6.63E-09 Convergence criterion met
 Total energy in the final basis set = -1510.26845899
   13   -1510.2737959702      8.47E-09 Convergence criterion met
 Total energy in the final basis set = -1510.27379597
   15   -1510.2416556114      3.49E-09 Convergence criterion met
 Total energy in the final basis set = -1510.24165561
   15   -1510.2724019875      5.50E-09 Convergence criterion met
 Total energy in the final basis set = -1510.27240199
   14   -1510.2748507971      3.50E-09 Convergence criterion met
 Total energy in the final basis set = -1510.27485080
   13   -1510.2785679740      5.95E-09 Convergence criterion met
   12   -1510.2922767361      1.73E-09 Convergence criterion met
 Total energy in the final basis set = -1510.29227674
   12   -1510.2923212892      7.41E-09 Convergence criterion met
 Total energy in the final basis set = -1510.29232129
   11   -1510.2923212244      8.87E-09 Convergence criterion met
 Total energy in the final basis set = -1510.29232122
   12   -1510.2923310620      2.99E-09 Convergence criterion met
 Total energy in the final basis set = -1510.29233106
   11   -1510.2923349262      6.26E-09 Convergence criterion met
 Total energy in the final basis set = -1510.29233493
   11   -1510.2923373122      4.05E-09 Convergence criterion met
 Total energy in the final basis set = -1510.29233731

             Standard Nuclear Orientation (Angstroms)
    I     Atom           X                Y                Z
 ----------------------------------------------------------------
    1      O       1.8744265214     0.0118304396     0.6552607388
    2      C       3.0542400996    -0.3881224086     0.5013597890
    3      C       4.0860722365     0.1087342685    -0.5631809910
    4      C       3.4147990202     0.6733806253    -1.8832953665
    5      C       1.8579368917     0.4864128834    -1.9602821694
    6      O       1.5927788191    -0.9166168616    -2.1306754756
    7      C       0.1321848847    -1.1703313690    -2.0606561790
    8      C      -0.1818370520    -1.7537881122    -0.6317269859
    9      O      -1.6256049372    -1.8754507275    -0.3261852560
   10      C      -2.2042239679    -0.5824275844    -0.0890216577
   11      C      -3.6619109215    -0.8028938864     0.4424487855
   12      C      -3.8772098854    -0.2276566371     1.9070833690
   13      C      -2.6105418204     0.4847741676     2.5041552205
   14      O      -2.5546844161     1.6356811104     2.9881346756
   15      O       3.6828910484    -1.3773946738     1.3129663061
   16      O      -1.5013573424    -0.4173235407     2.4185198779
   17      O      -1.6238321089     0.5043645910    -0.2976343025
   18      C      -0.2549158533     0.2407771257     2.8820243948
   19      C      -4.7354161675     0.0497088635    -0.3639312958
   20      C      -6.1700007949    -0.5228445672    -0.0311825491
   21      C      -6.3875778418     0.0306222978     1.4263704769
   22      C      -5.0386518760     0.8189695372     1.6569405253
   23      O      -4.7189447225     1.3633410885     0.3164834485
   24      H      -3.8821863085    -1.8835386107     0.4004815472
   25      H      -4.1869430245    -1.0313098875     2.6005904547
   26      H      -4.5126516721     0.1696617525    -1.4418994145
   27      H      -6.9169383808    -0.1177620049    -0.7323995018
   28      H      -6.2008174643    -1.6231872727    -0.0791536282
   29      H      -7.2482709816     0.7165002646     1.4738890716
   30      H      -6.5323794302    -0.7697198437     2.1695179333
   31      H      -5.0733715115     1.6342149417     2.4056925346
   32      O       0.9872643131     1.3814525000    -1.9672470340
   33      C       2.7583917912    -1.8584484328     2.3672592384
   34      C       4.8272710218     1.4182716663    -0.0372220453
   35      C       6.0504732769     1.7207112891    -0.9917172462
   36      C       5.3215611504     2.3501881030    -2.2364339288
   37      C       3.8122991150     2.2064542938    -1.8027598551
   38      O       3.8525375516     2.4855045244    -0.3468648593
   39      H       4.7969415798    -0.7100806641    -0.7711871081
   40      H       3.8587045690     0.1842129136    -2.7695621718
   41      H       1.8117892069    -2.2436808658     1.9374571970
   42      H       5.0652315266     1.4055286493     1.0443189362
   43      H       6.7406173973     2.4369940905    -0.5186587479
   44      H       6.6094766577     0.8059457752    -1.2457228228
   45      H       5.5842053783     3.4129060464    -2.3603847533
   46      H       5.5425579701     1.8190694828    -3.1760318494
   47      H       3.0926107923     2.8827585229    -2.3034403785
   48      H       2.5184200047    -1.0551647999     3.0925924110
   49      H       3.2905284127    -2.6767714452     2.8860832451
   50      H       0.5056615528     0.1792555102     2.0720334171
   51      H       0.1120625771    -0.2881105212     3.7838878996
   52      H      -0.4702094329     1.2980098113     3.1338403729
   53      H       0.2222829427    -2.7823500178    -0.5456995571
   54      H       0.3320149737    -1.0963605922     0.1063273324
   55      H      -0.1310746547    -1.8871788293    -2.8639937563
   56      H      -0.4087230120    -0.2088984413    -2.1942199486
 ----------------------------------------------------------------

   11   -1510.2923378195      1.92E-09 Convergence criterion met
 Total energy in the final basis set = -1510.29233782
 Final energy is   -1510.29233781954
 **  OPTIMIZATION CONVERGED  **

                    Orbital Energies (a.u.)
 --------------------------------------------------------------

 Alpha MOs
 -- Occupied --
-18.955 -18.923 -18.922 -18.922 -18.896 -18.890 -18.881 -18.874
-18.870 -18.863 -10.117 -10.095 -10.092 -10.089 -10.077 -10.066
-10.059 -10.056 -10.055 -10.054 -10.051 -10.046 -10.038 -10.038
-10.032 -10.029 -10.024 -10.021 -10.015 -10.014  -1.028  -1.006
 -1.003  -0.996  -0.973  -0.963  -0.953  -0.932  -0.928  -0.924
 -0.767  -0.757  -0.728  -0.718  -0.712  -0.701  -0.688  -0.675
 -0.648  -0.614  -0.596  -0.577  -0.548  -0.540  -0.538  -0.531
 -0.516  -0.502  -0.482  -0.471  -0.464  -0.458  -0.452  -0.444
 -0.436  -0.428  -0.424  -0.422  -0.420  -0.410  -0.405  -0.391
 -0.382  -0.376  -0.371  -0.368  -0.362  -0.354  -0.352  -0.350
 -0.345  -0.336  -0.334  -0.329  -0.326  -0.322  -0.319  -0.314
 -0.308  -0.305  -0.304  -0.298  -0.288  -0.283  -0.280  -0.278
 -0.266  -0.262  -0.251  -0.239  -0.237  -0.235  -0.227  -0.194
 -0.179  -0.172  -0.162  -0.155  -0.152  -0.151  -0.147  -0.140
 -0.136

          Ground-State Mulliken Net Atomic Charges

     Atom                 Charge (a.u.)
  ----------------------------------------
      1 O                    -0.210040
      2 C                     0.221250
      3 C                    -0.077146
      4 C                    -0.079626
      5 C                     0.214348
      6 O                    -0.182101
      7 C                    -0.060521
      8 C                    -0.059691
      9 O                    -0.174722
     10 C                     0.211438
     11 C                    -0.079649
     12 C                    -0.077879
     13 C                     0.214836
     14 O                    -0.209864
     15 O                    -0.163851
     16 O                    -0.176387
     17 O                    -0.208352
     18 C                    -0.148835
     19 C                     0.025526
     20 C                    -0.143893
     21 C                    -0.144331
     22 C                     0.024395
     23 O                    -0.185895
     24 H                     0.084262
     25 H                     0.083201
     26 H                     0.082779
     27 H                     0.077157
     28 H                     0.072466
     29 H                     0.077512
     30 H                     0.071988
     31 H                     0.090441
     32 O                    -0.199871
     33 C                    -0.129556
     34 C                     0.025866
     35 C                    -0.143944
     36 C                    -0.143534
     37 C                     0.025206
     38 O                    -0.186208
     39 H                     0.088873
     40 H                     0.085332
     41 H                     0.093812
     42 H                     0.082930
     43 H                     0.079153
     44 H                     0.074006
     45 H                     0.079434
     46 H                     0.073906
     47 H                     0.093216
     48 H                     0.091162
     49 H                     0.094956
     50 H                     0.105089
     51 H                     0.072081
     52 H                     0.099911
     53 H                     0.079051
     54 H                     0.100715
     55 H                     0.080886
     56 H                     0.108708
  ----------------------------------------
  Sum of atomic charges =     0.000000

                    Cartesian Multipole Moments
 -----------------------------------------------------------------
    Charge (ESU x 10^10)
                -0.0000
    Dipole Moment (Debye)
         X       2.5234      Y      -4.1437      Z       0.1107
       Tot       4.8529
    Quadrupole Moments (Debye-Ang)
        XX    -135.3655     XY       8.0774     YY    -167.6704
        XZ      -2.5607     YZ      -5.0490     ZZ    -151.4163

 Total job time:  134.43s(wall), 6413.80s(cpu)
        *  Thank you very much for using Q-Chem.  Have a nice day.  *
