 Q-Chem 5.0, Q-Chem, Inc., Pleasanton, CA (2017)
 Q-Chem 5.0.1 for Intel X86 EM64T Linux

User input:
--------------------------------------------------------------
$molecule
0  1
O -3.94934 -3.66094 2.70899
C -3.26408 -4.56952 2.26188
C -3.36658 -6.02376 2.66595
C -4.25419 -6.35572 3.87665
C -5.08044 -5.22016 4.4387
O -4.30061 -4.10898 4.58886
C -5.05861 -2.89938 4.69644
C -5.38785 -2.36019 3.30828
O -6.48429 -1.43602 3.38959
C -7.54878 -1.85671 4.11693
C -8.83718 -1.8554 3.32909
C -9.08977 -3.12259 2.49922
C -8.22964 -4.32141 2.84523
O -8.60009 -5.30139 3.47529
O -2.4018 -4.29661 1.24829
O -7.36496 -4.59671 1.83628
O -7.58212 -1.73406 5.3339
C -7.6132 -5.5763 0.89473
C -10.12936 -1.82711 4.1825
C -11.27668 -1.24415 3.35851
C -11.5114 -2.36554 2.369
C -10.54358 -3.42066 2.91759
O -10.5116 -3.17442 4.30205
H -8.8277 -0.93373 2.70279
H -9.00813 -2.92406 1.40611
H -10.03 -1.25932 5.13281
H -12.15839 -1.17902 4.03617
H -11.09054 -0.24539 2.90836
H -12.56715 -2.70316 2.46568
H -11.28401 -2.12 1.30899
H -10.87099 -4.43798 2.60825
O -6.28073 -5.27655 4.6511
C -2.20862 -3.04031 0.71309
C -3.99664 -6.92618 1.59578
C -3.53559 -8.36945 1.79621
C -4.30478 -8.74272 3.04921
C -5.12501 -7.46601 3.26741
O -5.35111 -6.99411 1.96321
H -2.31816 -6.34321 2.86433
H -3.63523 -6.7162 4.72839
H -1.84015 -2.3436 1.49626
H -3.78438 -6.58927 0.55773
H -3.93614 -8.96589 0.94544
H -2.43451 -8.50793 1.85489
H -4.97806 -9.59468 2.8059
H -3.68028 -8.99432 3.93364
H -6.02848 -7.68801 3.87594
H -3.15985 -2.65576 0.28659
H -1.45256 -3.10166 -0.09622
H -6.76567 -5.62046 0.18045
H -8.53705 -5.3303 0.32897
H -7.74444 -6.56742 1.37805
H -4.59604 -1.68695 2.8618
H -5.9129 -3.08692 2.65064
H -4.44793 -2.12526 5.20725
H -5.86312 -3.10693 5.41748
$end

$opt
CONSTRAINT
tors           1           2           3           4      -9.474
tors           3           4           5           6     -47.368
tors           4           5           6           7    +161.053
tors           5           6           7           8     -85.263
tors           6           7           8           9    +161.053
tors           7           8           9          10     -47.368
tors           8           9          10          11    -123.158
tors           9          10          11          12     +85.263
tors          11          12          13          14    +104.211
ENDCONSTRAINT
$end

$rem
JOBTYPE                   OPT
METHOD                    B3LYP
DFT_D                     d3_op
BASIS                     STO-3G
GEOM_OPT_MAX_CYCLES       100
GEOM_OPT_TOL_GRADIENT     300
GEOM_OPT_TOL_DISPLACEMENT 1200
GEOM_OPT_TOL_ENERGY       100
SYMMETRY                  False
THRESH                    12
SCF_CONVERGENCE           8
MAX_SUB_FILE_NUM          128
MEM_STATIC                400
MEM_TOTAL                 4000
$end
--------------------------------------------------------------

   16   -1510.0158398347      3.69E-09 Convergence criterion met
 Total energy in the final basis set = -1510.01583983
   14   -1510.1052631511      7.11E-09 Convergence criterion met
 Total energy in the final basis set = -1510.10526315
   14   -1510.1673734104      7.16E-09 Convergence criterion met
 Total energy in the final basis set = -1510.16737341
   14   -1510.2012470574      8.38E-09 Convergence criterion met
 Total energy in the final basis set = -1510.20124706
   14   -1510.2178065173      8.42E-09 Convergence criterion met
 Total energy in the final basis set = -1510.21780652
   14   -1510.2328441911      6.23E-09 Convergence criterion met
 Total energy in the final basis set = -1510.23284419
   14   -1510.2445133687      9.04E-09 Convergence criterion met
 Total energy in the final basis set = -1510.24451337
   14   -1510.2510603076      7.05E-09 Convergence criterion met
    9   -1510.2644009580      9.05E-09 Convergence criterion met
 Total energy in the final basis set = -1510.26440096
    9   -1510.2644021960      6.82E-09 Convergence criterion met
 Total energy in the final basis set = -1510.26440220
    9   -1510.2644042386      9.15E-09 Convergence criterion met
 Total energy in the final basis set = -1510.26440424
   11   -1510.2644051969      2.37E-09 Convergence criterion met
 Total energy in the final basis set = -1510.26440520
    9   -1510.2644064863      9.41E-09 Convergence criterion met
 Total energy in the final basis set = -1510.26440649
    9   -1510.2644066781      5.74E-09 Convergence criterion met
 Total energy in the final basis set = -1510.26440668

             Standard Nuclear Orientation (Angstroms)
    I     Atom           X                Y                Z
 ----------------------------------------------------------------
    1      O       2.1231054862    -1.8438516032     0.8747411979
    2      C       3.1900455737    -1.2020821599     0.8043855394
    3      C       3.6093680941    -0.0040194531    -0.1116582465
    4      C       2.6834797594     0.4403744607    -1.3202802039
    5      C       1.3138479338    -0.2666425057    -1.6611740967
    6      O       1.4017777852    -1.6970352436    -1.6817992193
    7      C       0.0306989967    -2.2552414919    -1.5484652589
    8      C      -0.4691346094    -2.4006891465    -0.0563940276
    9      O      -1.9467571209    -2.5255668284     0.0882252899
   10      C      -2.6857115397    -1.5493476957    -0.6761640156
   11      C      -3.6442437272    -0.6943069994     0.2370394313
   12      C      -3.0127081881     0.5811067380     0.9537446781
   13      C      -1.4565559172     0.8026663425     0.9317625104
   14      O      -0.8159302496     1.6155507696     0.2316946455
   15      O       4.3228690761    -1.4746470443     1.6435747009
   16      O      -0.8911749046    -0.0195426284     1.9593709816
   17      O      -2.6016159403    -1.4093522944    -1.9191011346
   18      C       0.5025965228     0.3756522048     2.2835618192
   19      C      -4.7395426943     0.0068151076    -0.6733056734
   20      C      -5.8990588543     0.5740842304     0.2382697414
   21      C      -5.2240609867     1.8699071034     0.8242061732
   22      C      -3.7782262175     1.7564312368     0.2033229534
   23      O      -4.0341512661     1.2180891858    -1.1502925778
   24      H      -4.0881772786    -1.3664418187     0.9939775606
   25      H      -3.2983869363     0.5514974864     2.0210722336
   26      H      -5.0675172485    -0.6089527389    -1.5327538792
   27      H      -6.7842912097     0.8180242711    -0.3701403133
   28      H      -6.1964820216    -0.1402399924     1.0226893363
   29      H      -5.7245583289     2.7825302811     0.4630417435
   30      H      -5.2105526692     1.8857484235     1.9257132370
   31      H      -3.2013279436     2.6994088659     0.1405100189
   32      O       0.2557350363     0.3639779991    -1.8859738115
   33      C       4.0067962357    -2.5827943501     2.5733777121
   34      C       3.6486885371     1.3445722480     0.7392929730
   35      C       4.5662540920     2.3896880231    -0.0049409567
   36      C       3.6238441632     2.8413702075    -1.1834441707
   37      C       2.3569754097     1.9439426634    -0.9181823053
   38      O       2.2865852075     1.8954270371     0.5625217703
   39      H       4.6219752373    -0.2402199019    -0.4850584048
   40      H       3.2909495725     0.4189205049    -2.2449433872
   41      H       3.7066170297    -3.5007727352     2.0282726164
   42      H       3.8766280216     1.1934052955     1.8123412384
   43      H       4.8120689134     3.2308635890     0.6625399995
   44      H       5.5040953979     1.9335800344    -0.3598207814
   45      H       3.3635195460     3.9089249584    -1.1052956048
   46      H       4.0619760753     2.6550562903    -2.1767539357
   47      H       1.3918541853     2.2957942475    -1.3337191240
   48      H       3.1912543584    -2.3091621870     3.2742840302
   49      H       4.9335452747    -2.7756385988     3.1444321709
   50      H       1.0616187150    -0.5579472713     2.4797223758
   51      H       0.4915392193     0.9906574758     3.2063989917
   52      H       1.0059933037     0.9527813720     1.4652948224
   53      H      -0.0555867577    -3.3135874802     0.4154638735
   54      H      -0.1346210374    -1.5233235257     0.5366693610
   55      H       0.0756532265    -3.2558612060    -2.0222486396
   56      H      -0.7079223674    -1.6325811321    -2.0998233231
 ----------------------------------------------------------------

    8   -1510.2644070268      9.92E-09 Convergence criterion met
 Total energy in the final basis set = -1510.26440703
 Final energy is   -1510.26440702678
 **  OPTIMIZATION CONVERGED  **

                    Orbital Energies (a.u.)
 --------------------------------------------------------------

 Alpha MOs
 -- Occupied --
-18.938 -18.926 -18.918 -18.905 -18.905 -18.888 -18.886 -18.879
-18.873 -18.869 -10.108 -10.099 -10.095 -10.089 -10.070 -10.069
-10.059 -10.054 -10.050 -10.050 -10.046 -10.046 -10.039 -10.031
-10.030 -10.030 -10.026 -10.023 -10.014 -10.013  -1.019  -1.006
 -0.999  -0.997  -0.982  -0.961  -0.944  -0.931  -0.927  -0.925
 -0.768  -0.754  -0.727  -0.716  -0.712  -0.699  -0.686  -0.668
 -0.646  -0.611  -0.594  -0.579  -0.548  -0.541  -0.535  -0.530
 -0.517  -0.503  -0.474  -0.466  -0.459  -0.452  -0.451  -0.440
 -0.436  -0.431  -0.422  -0.418  -0.415  -0.403  -0.397  -0.388
 -0.382  -0.377  -0.368  -0.362  -0.358  -0.353  -0.350  -0.346
 -0.340  -0.339  -0.336  -0.328  -0.326  -0.323  -0.321  -0.315
 -0.310  -0.306  -0.299  -0.298  -0.296  -0.283  -0.277  -0.270
 -0.267  -0.259  -0.253  -0.247  -0.230  -0.226  -0.225  -0.186
 -0.175  -0.167  -0.162  -0.157  -0.151  -0.149  -0.143  -0.140
 -0.135

          Ground-State Mulliken Net Atomic Charges

     Atom                 Charge (a.u.)
  ----------------------------------------
      1 O                    -0.209758
      2 C                     0.212792
      3 C                    -0.079383
      4 C                    -0.081453
      5 C                     0.208873
      6 O                    -0.168927
      7 C                    -0.067650
      8 C                    -0.052489
      9 O                    -0.188135
     10 C                     0.217482
     11 C                    -0.077842
     12 C                    -0.079488
     13 C                     0.205551
     14 O                    -0.203595
     15 O                    -0.173417
     16 O                    -0.177332
     17 O                    -0.188439
     18 C                    -0.156454
     19 C                     0.025059
     20 C                    -0.145252
     21 C                    -0.143635
     22 C                     0.024698
     23 O                    -0.185620
     24 H                     0.084487
     25 H                     0.084257
     26 H                     0.085704
     27 H                     0.076920
     28 H                     0.071995
     29 H                     0.076889
     30 H                     0.071738
     31 H                     0.088081
     32 O                    -0.202584
     33 C                    -0.129107
     34 C                     0.026477
     35 C                    -0.143107
     36 C                    -0.143832
     37 C                     0.025292
     38 O                    -0.185437
     39 H                     0.089209
     40 H                     0.084393
     41 H                     0.091206
     42 H                     0.085899
     43 H                     0.079764
     44 H                     0.075508
     45 H                     0.081020
     46 H                     0.075496
     47 H                     0.107438
     48 H                     0.086980
     49 H                     0.091400
     50 H                     0.077924
     51 H                     0.071505
     52 H                     0.117936
     53 H                     0.089085
     54 H                     0.096182
     55 H                     0.081208
     56 H                     0.114485
  ----------------------------------------
  Sum of atomic charges =     0.000000

                    Cartesian Multipole Moments
 -----------------------------------------------------------------
    Charge (ESU x 10^10)
                 0.0000
    Dipole Moment (Debye)
         X       2.7917      Y      -0.1841      Z       2.5755
       Tot       3.8027
    Quadrupole Moments (Debye-Ang)
        XX    -138.8382     XY       0.4744     YY    -158.3375
        XZ      -5.8266     YZ      -0.7863     ZZ    -159.5092

 Total job time:  104.02s(wall), 4961.51s(cpu)
        *  Thank you very much for using Q-Chem.  Have a nice day.  *
