 Q-Chem 5.0, Q-Chem, Inc., Pleasanton, CA (2017)
 Q-Chem 5.0.1 for Intel X86 EM64T Linux

User input:
--------------------------------------------------------------
$molecule
0  1
O 0.2671870162 -0.4469000547 0.6934171279
C 1.0693083318 0.4745731679 0.7433644114
C 2.5509532583 0.3318042023 1.0134350076
C 3.2179183707 -0.9879817213 0.5924949538
C 2.3679941197 -1.9466854811 -0.2116134506
O 2.084452357 -1.403582712 -1.432298454
C 0.7564071571 -1.6919541753 -1.8821979588
C -0.131527286 -0.4623364798 -1.7217548196
O -1.4469119323 -0.8597154902 -1.3037500004
C -1.5250792335 -1.4049369879 -0.0644922992
C -2.7707469669 -0.9916730289 0.6826241104
C -2.8431928332 0.4986399408 1.0459363396
C -1.8687162388 1.4039574666 0.319637758
O -0.7141032068 1.6196160952 0.6586284007
O 1.1517419067 1.3624848885 -0.3435390112
O -2.4143878247 2.1111046163 -0.7141920827
O -0.9690124919 -2.4521954444 0.2546106961
C -1.8357089288 3.0677711583 -1.5106197375
C -4.0808620408 -1.1795574037 -0.1071403849
C -5.2423217153 -1.3484800584 0.8698884773
C -5.3270824164 0.0497107286 1.4466701217
C -4.2943240102 0.7704813431 0.5691379029
O -4.3469879361 0.0842215324 -0.6580092426
H -2.8222894165 -1.6283019006 1.5965059258
H -2.7442052449 0.7102013008 2.1331678344
H -4.0463220133 -2.0305706963 -0.8219892423
H -6.1522188159 -1.5379739366 0.2560477552
H -5.1326512854 -2.1625126821 1.6184078696
H -6.3527210558 0.4407012598 1.2647233445
H -5.0689844607 0.1369198701 2.5243059922
H -4.5287229542 1.8573276667 0.5324112197
O 2.0149958422 -3.0566685462 0.1649466381
C 1.437980626 2.7307850118 -0.3544272052
C 3.7298729727 1.2700101129 0.5608499211
C 4.9922645624 1.0747792393 1.4281988427
C 5.5666264848 -0.182164708 0.8285451772
C 4.4713231081 -0.5227244636 -0.1662811027
O 4.1081920547 0.7358480471 -0.6814451517
H 2.5569396755 0.4182997926 2.1222922282
H 3.5022067983 -1.572535899 1.4982865032
H 1.5667583527 3.1274438046 0.6763857987
H 3.5760183289 2.3541932688 0.6316843826
H 5.7239063784 1.8965500495 1.2525881782
H 4.7537572634 1.0204594391 2.5119864343
H 6.4755950195 0.0783513924 0.2397664879
H 5.8139003263 -0.9847759896 1.556378626
H 4.8408341654 -1.2677782212 -0.9050536457
H 2.3094333296 2.9354049141 -1.0100073171
H 0.6211051386 3.3026223278 -0.8000829731
H -2.59511888 3.432530263 -2.2320236755
H -1.008156196 2.6305505721 -2.1014425487
H -1.509630462 3.9305642003 -0.8941019017
H 0.038785375 0.5893128047 -1.9595389388
H -0.3718397439 -0.3394517224 -2.800715412
H 0.3568018506 -2.6588350186 -1.5297648322
H 0.8689683145 -1.9565074987 -2.960705845
$end

$rem
JOBTYPE                   OPT
METHOD                    B3LYP
DFT_D                     d3_op
BASIS                     STO-3G
GEOM_OPT_MAX_CYCLES       100
GEOM_OPT_TOL_GRADIENT     300
GEOM_OPT_TOL_DISPLACEMENT 1200
GEOM_OPT_TOL_ENERGY       100
SYMMETRY                  False
THRESH                    12
SCF_CONVERGENCE           8
MAX_SUB_FILE_NUM          128
MEM_STATIC                400
MEM_TOTAL                 4000
$end
--------------------------------------------------------------

   16   -1509.9257340519      8.24E-09 Convergence criterion met
 Total energy in the final basis set = -1509.92573405
   15   -1509.9967005184      9.30E-09 Convergence criterion met
 Total energy in the final basis set = -1509.99670052
   14   -1510.0717236024      9.19E-09 Convergence criterion met
 Total energy in the final basis set = -1510.07172360
   14   -1510.1213663362      5.57E-09 Convergence criterion met
 Total energy in the final basis set = -1510.12136634
   14   -1510.1595034543      5.34E-09 Convergence criterion met
 Total energy in the final basis set = -1510.15950345
   14   -1510.1882375568      3.67E-09 Convergence criterion met
 Total energy in the final basis set = -1510.18823756
   14   -1510.2104297030      2.49E-09 Convergence criterion met
 Total energy in the final basis set = -1510.21042970
   14   -1510.2265291631      3.77E-09 Convergence criterion met
   11   -1510.2867707895      4.67E-09 Convergence criterion met
 Total energy in the final basis set = -1510.28677079
   11   -1510.2867819165      4.77E-09 Convergence criterion met
 Total energy in the final basis set = -1510.28678192
   11   -1510.2867924273      4.53E-09 Convergence criterion met
 Total energy in the final basis set = -1510.28679243
   11   -1510.2868005077      4.08E-09 Convergence criterion met
 Total energy in the final basis set = -1510.28680051
   11   -1510.2868036520      2.20E-09 Convergence criterion met
 Total energy in the final basis set = -1510.28680365
   11   -1510.2868038831      2.45E-09 Convergence criterion met
 Total energy in the final basis set = -1510.28680388

             Standard Nuclear Orientation (Angstroms)
    I     Atom           X                Y                Z
 ----------------------------------------------------------------
    1      O       1.5453810071     1.2386485463     2.5600624376
    2      C       2.2349173310     1.0327351323     1.5363347974
    3      C       3.4588885773     0.0502450572     1.4502581622
    4      C       3.3190160813    -1.2901043441     0.6009880846
    5      C       1.9897742929    -1.5242488354    -0.1893905313
    6      O       1.9240418854    -0.6007327715    -1.2812868500
    7      C       0.7100114368    -0.8418427120    -2.0925032163
    8      C      -0.2936777006     0.3687247285    -1.9563153027
    9      O      -1.5342645308     0.0428976170    -1.2145025599
   10      C      -1.2750589455    -0.1381123937     0.1839720223
   11      C      -2.6451377910    -0.3411899976     0.9088094134
   12      C      -3.6571636579     0.8562386665     0.6486654063
   13      C      -3.0046429004     2.0037873297    -0.2071709369
   14      O      -1.9411713376     2.6107080717     0.0574580410
   15      O       2.1022395896     1.7697532791     0.3188210516
   16      O      -3.8165572562     2.2987925470    -1.3430954129
   17      O      -0.1407750346    -0.1220538883     0.7050365023
   18      C      -3.1765224878     3.3569811144    -2.1584473388
   19      C      -3.4708891453    -1.5577575340     0.3007074019
   20      C      -4.6449345703    -1.9074855801     1.2971637562
   21      C      -5.6410258212    -0.7203762835     1.0223225351
   22      C      -4.8470976569     0.0970227321    -0.0724304878
   23      O      -4.1639925162    -0.9553125129    -0.8598478868
   24      H      -2.4405698105    -0.4786024408     1.9847723855
   25      H      -3.9839507368     1.3013193324     1.6068817144
   26      H      -2.8506173442    -2.4175287910    -0.0192077615
   27      H      -5.0920740762    -2.8794875582     1.0350959754
   28      H      -4.3034919309    -1.9458222727     2.3438656819
   29      H      -6.5973218636    -1.0830503947     0.6129740320
   30      H      -5.8474341460    -0.1193833963     1.9224730026
   31      H      -5.4606535497     0.7389310871    -0.7321545863
   32      O       1.1582610569    -2.4387831973     0.0112476890
   33      C       1.0957812215     2.8475518426     0.4874138250
   34      C       4.7201480176     0.7179805912     0.7424234850
   35      C       6.0170190060    -0.0477298427     1.2197890063
   36      C       5.8856177511    -1.3924618040     0.4128475041
   37      C       4.5511863284    -1.1340241448    -0.3942059577
   38      O       4.5862700636     0.3170354327    -0.6751110472
   39      H       3.6950334173    -0.2153917813     2.4963731206
   40      H       3.4459313094    -2.1649475134     1.2630241419
   41      H       1.2781508415     3.4264745099     1.4148117573
   42      H       4.7623937989     1.8206153862     0.8292652329
   43      H       6.9219271013     0.5100202109     0.9305628437
   44      H       6.0313767082    -0.2034508992     2.3103127367
   45      H       6.7316874637    -1.5335492571    -0.2784156889
   46      H       5.8105254660    -2.2770492554     1.0651293182
   47      H       4.4534850090    -1.7081914989    -1.3357843619
   48      H       1.2179225014     3.5088122799    -0.3902125710
   49      H       0.0515491779     2.4634511994     0.5101873467
   50      H      -3.8495429937     3.5273235466    -3.0186616839
   51      H      -2.1792069204     3.0373202664    -2.5234338060
   52      H      -3.0570535158     4.2991735754    -1.5854177873
   53      H       0.2466966802     1.2149438556    -1.4803492428
   54      H      -0.6477447322     0.6797125624    -2.9593176687
   55      H       0.2301208807    -1.7869250181    -1.7542268186
   56      H       1.0356218654    -0.9411844243    -3.1484236724
 ----------------------------------------------------------------

   11   -1510.2868034445      2.93E-09 Convergence criterion met
 Total energy in the final basis set = -1510.28680344
 Final energy is   -1510.28680344451
 **  OPTIMIZATION CONVERGED  **

                    Orbital Energies (a.u.)
 --------------------------------------------------------------

 Alpha MOs
 -- Occupied --
-18.943 -18.931 -18.925 -18.917 -18.887 -18.882 -18.878 -18.875
-18.864 -18.854 -10.106 -10.099 -10.092 -10.083 -10.069 -10.068
-10.062 -10.059 -10.057 -10.054 -10.052 -10.039 -10.038 -10.036
-10.031 -10.027 -10.019 -10.018 -10.015 -10.014  -1.019  -1.011
 -1.000  -0.991  -0.969  -0.963  -0.940  -0.937  -0.926  -0.916
 -0.763  -0.754  -0.725  -0.717  -0.709  -0.702  -0.690  -0.665
 -0.643  -0.613  -0.594  -0.579  -0.545  -0.536  -0.536  -0.530
 -0.513  -0.507  -0.485  -0.472  -0.465  -0.459  -0.442  -0.432
 -0.431  -0.427  -0.417  -0.416  -0.408  -0.405  -0.400  -0.398
 -0.387  -0.379  -0.374  -0.362  -0.357  -0.351  -0.347  -0.340
 -0.337  -0.333  -0.329  -0.327  -0.324  -0.321  -0.315  -0.308
 -0.304  -0.301  -0.298  -0.297  -0.293  -0.291  -0.277  -0.274
 -0.266  -0.260  -0.248  -0.240  -0.233  -0.230  -0.227  -0.183
 -0.178  -0.165  -0.159  -0.154  -0.149  -0.148  -0.142  -0.137
 -0.132

          Ground-State Mulliken Net Atomic Charges

     Atom                 Charge (a.u.)
  ----------------------------------------
      1 O                    -0.214977
      2 C                     0.213411
      3 C                    -0.077845
      4 C                    -0.077438
      5 C                     0.217084
      6 O                    -0.163532
      7 C                    -0.055579
      8 C                    -0.052982
      9 O                    -0.171952
     10 C                     0.213164
     11 C                    -0.078892
     12 C                    -0.077866
     13 C                     0.217525
     14 O                    -0.224732
     15 O                    -0.166530
     16 O                    -0.164295
     17 O                    -0.207413
     18 C                    -0.126618
     19 C                     0.026280
     20 C                    -0.143872
     21 C                    -0.144113
     22 C                     0.024051
     23 O                    -0.186347
     24 H                     0.088582
     25 H                     0.085472
     26 H                     0.085573
     27 H                     0.078172
     28 H                     0.074946
     29 H                     0.077615
     30 H                     0.072872
     31 H                     0.091812
     32 O                    -0.219402
     33 C                    -0.138905
     34 C                     0.026673
     35 C                    -0.144228
     36 C                    -0.144561
     37 C                     0.027165
     38 O                    -0.183474
     39 H                     0.082972
     40 H                     0.084036
     41 H                     0.083737
     42 H                     0.083581
     43 H                     0.076290
     44 H                     0.073067
     45 H                     0.076371
     46 H                     0.072974
     47 H                     0.081566
     48 H                     0.080849
     49 H                     0.103734
     50 H                     0.092289
     51 H                     0.089545
     52 H                     0.089845
     53 H                     0.101424
     54 H                     0.087021
     55 H                     0.101079
     56 H                     0.084776
  ----------------------------------------
  Sum of atomic charges =    -0.000000

                    Cartesian Multipole Moments
 -----------------------------------------------------------------
    Charge (ESU x 10^10)
                -0.0000
    Dipole Moment (Debye)
         X      -1.0067      Y       0.5423      Z      -0.5076
       Tot       1.2511
    Quadrupole Moments (Debye-Ang)
        XX    -144.4180     XY      -7.5356     YY    -154.4792
        XZ      -0.4173     YZ      -4.4961     ZZ    -157.8436

 Total job time:  152.73s(wall), 7284.56s(cpu)
        *  Thank you very much for using Q-Chem.  Have a nice day.  *
