 Q-Chem 5.0, Q-Chem, Inc., Pleasanton, CA (2017)
 Q-Chem 5.0.1 for Intel X86 EM64T Linux

User input:
--------------------------------------------------------------
$molecule
0  1
O -0.8101382915 -2.09365759 0.039415039
C -1.4425941332 -1.6095704655 -0.9285119654
C -2.8713900429 -0.9187898341 -0.8642062176
C -2.8804597658 0.1169333866 0.3337557009
C -2.2561456243 -0.5573783217 1.6449966707
O -1.1354718749 -0.1031950523 2.4362739521
C -1.2828312988 1.1583388786 3.1721850958
C -0.5036378015 2.3543935541 2.4772907463
O 0.8795337274 1.9484191452 2.116060491
C 0.9495184329 1.2879119011 0.8375815494
C 2.4506030008 1.342472062 0.3301831782
C 3.2342047098 -0.0278344986 0.4713620589
C 2.3168783532 -1.1052023222 1.1407551702
O 1.2007900952 -0.86578987 1.6611988944
O -0.9674673998 -1.6059844464 -2.2684089601
O 2.8167776373 -2.4189789024 0.9279896255
O -0.0307058522 1.0053294081 0.1192782127
C 1.7561324899 -3.3982729141 1.2917615298
C 2.4687223763 1.5187099118 -1.2482298947
C 3.9201641038 1.9559958078 -1.6892626808
C 4.7123463391 0.6043289093 -1.5274513735
C 3.5681171697 -0.3656309926 -1.038322543
O 2.3740798338 0.1281161812 -1.7598176505
H 2.9740911351 2.1636068239 0.8492860735
H 4.1591258229 0.0876367574 1.0662059597
H 1.6363914552 2.1266975539 -1.6522635926
H 3.9177177114 2.2992839593 -2.7360542051
H 4.3193796327 2.7613983847 -1.052462454
H 5.1240668561 0.2595220587 -2.4893442167
H 5.5334282108 0.675073895 -0.7964418572
H 3.7287336294 -1.443348178 -1.2351800515
O -2.7753771145 -1.6424275375 1.9991728573
C 0.4535663496 -2.0288812618 -2.3232738748
C -2.9993238565 0.0814063972 -2.0800893052
C -4.3596371489 0.8860540019 -2.0015837458
C -4.0098811949 1.9895574245 -0.9338781794
C -2.5938194415 1.4799972835 -0.4440975306
O -1.9623226969 1.0858879012 -1.724809951
H -3.6731255102 -1.6743757826 -0.782082288
H -3.9393730588 0.1904917153 0.6523671169
H 0.6399655877 -2.9019925062 -1.6676112105
H -2.7730245075 -0.371672732 -3.0632365076
H -4.6077152788 1.327820956 -2.9793251444
H -5.196620366 0.2427602692 -1.6848940403
H -3.910867001 2.9813800229 -1.4042707807
H -4.7509029252 2.0536837306 -0.1209230792
H -1.9748802331 2.2291160366 0.0763367841
H 1.1205131912 -1.1787373593 -2.028476776
H 0.6463799963 -2.3069248955 -3.3755230114
H 2.0827381427 -4.3665827631 0.8704042331
H 0.7760955976 -3.084995526 0.8628302837
H 1.6569215111 -3.4890089772 2.3923715044
H -1.056536647 2.7102044039 1.5850303634
H -0.3957694197 3.1893723693 3.1995677964
H -0.8215641964 0.9763737955 4.1664931931
H -2.3439877051 1.4544092741 3.3275195085
$end

$rem
JOBTYPE                   OPT
METHOD                    B3LYP
DFT_D                     d3_op
BASIS                     STO-3G
GEOM_OPT_MAX_CYCLES       100
GEOM_OPT_TOL_GRADIENT     300
GEOM_OPT_TOL_DISPLACEMENT 1200
GEOM_OPT_TOL_ENERGY       100
SYMMETRY                  False
THRESH                    12
SCF_CONVERGENCE           8
MAX_SUB_FILE_NUM          128
MEM_STATIC                400
MEM_TOTAL                 4000
$end
--------------------------------------------------------------

   16   -1510.2446421351      5.34E-09 Convergence criterion met
 Total energy in the final basis set = -1510.24464214
   15   -1510.2467973993      3.60E-09 Convergence criterion met
 Total energy in the final basis set = -1510.24679740
   14   -1510.2492719801      6.37E-09 Convergence criterion met
 Total energy in the final basis set = -1510.24927198
   15   -1510.2490675524      3.67E-09 Convergence criterion met
 Total energy in the final basis set = -1510.24906755
   15   -1510.2123575957      3.85E-09 Convergence criterion met
 Total energy in the final basis set = -1510.21235760
   15   -1510.2553924709      4.54E-09 Convergence criterion met
 Total energy in the final basis set = -1510.25539247
   14   -1510.2575441425      4.62E-09 Convergence criterion met
 Total energy in the final basis set = -1510.25754414
   14   -1510.2591691455      4.03E-09 Convergence criterion met
   11   -1510.2975508824      3.14E-09 Convergence criterion met
 Total energy in the final basis set = -1510.29755088
   12   -1510.2975566216      2.75E-09 Convergence criterion met
 Total energy in the final basis set = -1510.29755662
   12   -1510.2975640775      2.85E-09 Convergence criterion met
 Total energy in the final basis set = -1510.29756408
   12   -1510.2975577962      5.42E-09 Convergence criterion met
 Total energy in the final basis set = -1510.29755780
   12   -1510.2975595670      5.09E-09 Convergence criterion met
 Total energy in the final basis set = -1510.29755957
   11   -1510.2975728417      6.91E-09 Convergence criterion met
 Total energy in the final basis set = -1510.29757284

             Standard Nuclear Orientation (Angstroms)
    I     Atom           X                Y                Z
 ----------------------------------------------------------------
    1      O       1.1862347804    -0.2502877295    -2.5031523919
    2      C       1.4842000861    -0.9824914375    -1.5275673685
    3      C       2.8570131179    -1.0014456100    -0.7652947055
    4      C       3.6154585127     0.3804031719    -0.6724895103
    5      C       2.7210597236     1.6635612421    -0.8080289765
    6      O       1.4064418777     1.3455798621    -0.3495815496
    7      C       0.7655170856     2.4987695479     0.3217185197
    8      C       0.5720221197     2.0669533437     1.8282851087
    9      O      -0.8226507373     1.6229570546     2.0797765033
   10      C      -1.0440013199     0.3114402785     1.5577956886
   11      C      -2.5821424752     0.0073785779     1.6479287996
   12      C      -3.4181675853     0.6172554998     0.4316278405
   13      C      -2.5207724604     1.4101785905    -0.5864479323
   14      O      -2.0983981207     2.5833848216    -0.4368649950
   15      O       0.6836077187    -2.0337180917    -1.0113446136
   16      O      -2.2345498439     0.5882285058    -1.7073797826
   17      O      -0.1594407179    -0.4485359557     1.1099014998
   18      C      -1.3179633722     1.2660823158    -2.6612131314
   19      C      -2.8726300619    -1.5384056045     1.4660905822
   20      C      -4.3428267001    -1.8363934538     1.9528482476
   21      C      -5.1846930702    -1.2169499752     0.7747590541
   22      C      -4.0431151822    -0.6997328690    -0.1858799576
   23      O      -2.9679862170    -1.7042429375    -0.0042816875
   24      H      -2.9634231678     0.3924099977     2.6103098566
   25      H      -4.1946919987     1.3073428033     0.8073759561
   26      H      -2.0842262955    -2.2007012676     1.8729804411
   27      H      -4.5073035001    -2.9223386979     2.0385787345
   28      H      -4.5614066120    -1.3674371777     2.9254513061
   29      H      -5.7947819706    -1.9821577944     0.2691230551
   30      H      -5.8459487482    -0.4008384507     1.1069086666
   31      H      -4.3183741626    -0.6198185390    -1.2545980431
   32      O       3.1112180186     2.8144195466    -1.1054219770
   33      C      -0.6143660522    -2.1544080378    -1.7228450514
   34      C       2.7663188513    -1.4189649804     0.7708551473
   35      C       4.1443578427    -2.0807574730     1.1538238335
   36      C       5.0937726482    -0.8254992940     1.0986884716
   37      C       4.0542748292     0.3419245382     0.8615676290
   38      O       2.8159389778    -0.1380022321     1.5178783614
   39      H       3.4960450252    -1.7289659928    -1.3013348522
   40      H       4.4767703505     0.4457250943    -1.3599877261
   41      H      -0.5992241802    -1.5509105855    -2.6493995201
   42      H       1.8505502833    -1.9852163949     1.0265036258
   43      H       4.0978687284    -2.5029891895     2.1706002382
   44      H       4.4429740398    -2.8758889526     0.4521821345
   45      H       5.6332908105    -0.6778638160     2.0476357519
   46      H       5.8303564545    -0.8884126698     0.2814286210
   47      H       4.3566407011     1.3260154904     1.2703014042
   48      H      -1.4502663301    -1.8249848535    -1.0542660892
   49      H      -0.7459854931    -3.2240918059    -1.9760291068
   50      H      -1.7582377726     1.1663652661    -3.6713101518
   51      H      -0.3239840406     0.7541544338    -2.6244128741
   52      H      -1.2190754619     2.3350468745    -2.3921393424
   53      H       1.3056286057     1.2481567086     2.0337779986
   54      H       0.7322518906     2.9230877027     2.5130435942
   55      H      -0.2351639131     2.6926529167    -0.1363110611
   56      H       1.4087630161     3.3984958957     0.2258607620
 ----------------------------------------------------------------

   10   -1510.2975730855      5.01E-09 Convergence criterion met
 Total energy in the final basis set = -1510.29757309
 Final energy is   -1510.29757308554
 **  OPTIMIZATION CONVERGED  **

                    Orbital Energies (a.u.)
 --------------------------------------------------------------

 Alpha MOs
 -- Occupied --
-18.935 -18.925 -18.925 -18.914 -18.903 -18.888 -18.874 -18.872
-18.865 -18.863 -10.101 -10.096 -10.094 -10.091 -10.066 -10.065
-10.059 -10.053 -10.052 -10.047 -10.042 -10.039 -10.035 -10.033
-10.031 -10.027 -10.025 -10.024 -10.019 -10.016  -1.013  -1.006
 -1.001  -0.996  -0.979  -0.968  -0.935  -0.932  -0.927  -0.923
 -0.767  -0.759  -0.727  -0.720  -0.712  -0.702  -0.687  -0.650
 -0.642  -0.610  -0.593  -0.577  -0.549  -0.542  -0.536  -0.534
 -0.511  -0.504  -0.479  -0.474  -0.464  -0.455  -0.445  -0.438
 -0.435  -0.433  -0.417  -0.416  -0.409  -0.401  -0.395  -0.385
 -0.382  -0.379  -0.367  -0.363  -0.358  -0.356  -0.350  -0.340
 -0.339  -0.337  -0.334  -0.332  -0.325  -0.324  -0.314  -0.310
 -0.309  -0.308  -0.297  -0.294  -0.288  -0.286  -0.283  -0.276
 -0.264  -0.249  -0.247  -0.240  -0.235  -0.230  -0.227  -0.176
 -0.173  -0.165  -0.160  -0.155  -0.150  -0.149  -0.144  -0.141
 -0.137

          Ground-State Mulliken Net Atomic Charges

     Atom                 Charge (a.u.)
  ----------------------------------------
      1 O                    -0.227420
      2 C                     0.229151
      3 C                    -0.076182
      4 C                    -0.077070
      5 C                     0.213819
      6 O                    -0.176741
      7 C                    -0.066431
      8 C                    -0.059919
      9 O                    -0.173033
     10 C                     0.204258
     11 C                    -0.079283
     12 C                    -0.077737
     13 C                     0.210773
     14 O                    -0.219512
     15 O                    -0.165572
     16 O                    -0.167931
     17 O                    -0.204346
     18 C                    -0.152535
     19 C                     0.026459
     20 C                    -0.143367
     21 C                    -0.143855
     22 C                     0.027226
     23 O                    -0.185770
     24 H                     0.086884
     25 H                     0.086926
     26 H                     0.090365
     27 H                     0.079263
     28 H                     0.075358
     29 H                     0.079140
     30 H                     0.075077
     31 H                     0.091770
     32 O                    -0.216384
     33 C                    -0.149373
     34 C                     0.027848
     35 C                    -0.142791
     36 C                    -0.144912
     37 C                     0.023751
     38 O                    -0.190656
     39 H                     0.081936
     40 H                     0.083931
     41 H                     0.087967
     42 H                     0.103080
     43 H                     0.076802
     44 H                     0.073429
     45 H                     0.077322
     46 H                     0.074124
     47 H                     0.080681
     48 H                     0.117876
     49 H                     0.075618
     50 H                     0.079572
     51 H                     0.117912
     52 H                     0.092209
     53 H                     0.110907
     54 H                     0.083876
     55 H                     0.104930
     56 H                     0.090582
  ----------------------------------------
  Sum of atomic charges =    -0.000000

                    Cartesian Multipole Moments
 -----------------------------------------------------------------
    Charge (ESU x 10^10)
                -0.0000
    Dipole Moment (Debye)
         X      -1.2361      Y      -2.0394      Z       1.6545
       Tot       2.9025
    Quadrupole Moments (Debye-Ang)
        XX    -139.7160     XY      -3.6472     YY    -165.0747
        XZ       0.5412     YZ       2.3619     ZZ    -158.4070

 Total job time:  244.18s(wall), 11660.43s(cpu)
        *  Thank you very much for using Q-Chem.  Have a nice day.  *
