 Q-Chem 5.0, Q-Chem, Inc., Pleasanton, CA (2017)
 Q-Chem 5.0.1 for Intel X86 EM64T Linux

User input:
--------------------------------------------------------------
$molecule
0  1
O -3.94934 -3.66094 2.70899
C -3.26408 -4.56952 2.26188
C -3.36658 -6.02376 2.66595
C -4.77372 -6.64113 2.71769
C -5.90468 -5.78727 2.1886
O -6.56241 -6.45291 1.19375
C -7.25064 -7.61977 1.65639
C -6.48105 -8.87556 1.26033
O -6.10192 -8.80132 -0.12302
C -4.94592 -8.13893 -0.37607
C -4.36332 -8.46828 -1.72986
C -4.55442 -7.38205 -2.79845
C -4.96444 -6.016 -2.28613
O -5.30696 -5.76218 -1.14035
O -2.33934 -4.2915 1.30802
O -4.99288 -5.01702 -3.20764
O -4.33569 -7.4212 0.36801
C -5.34369 -3.71282 -2.92784
C -2.83121 -8.62464 -1.73518
C -2.40477 -9.48127 -2.92576
C -2.68334 -8.53 -4.07215
C -3.09774 -7.2745 -3.29526
O -2.35659 -7.35252 -2.10031
H -4.82537 -9.42498 -2.06763
H -5.27289 -7.66991 -3.59713
H -2.42997 -9.04733 -0.78792
H -1.30353 -9.6257 -2.84312
H -2.89862 -10.47377 -3.00252
H -1.73166 -8.3575 -4.62226
H -3.47919 -8.85406 -4.77729
H -2.92234 -6.36771 -3.9148
O -6.25005 -4.67816 2.57096
C -2.12023 -3.03601 0.78177
C -2.43789 -7.27673 2.61147
C -2.03177 -7.6626 4.02892
C -3.41863 -8.01753 4.58416
C -4.28831 -8.03581 3.27927
O -3.30502 -8.36985 2.33681
H -3.19095 -5.67266 3.71229
H -5.18214 -6.40284 3.72803
H -1.80846 -2.33332 1.58384
H -1.59559 -7.17301 1.89548
H -1.41482 -8.58604 3.94001
H -1.4705 -6.90458 4.61686
H -3.34057 -9.02069 5.05919
H -3.83025 -7.29544 5.32208
H -5.10272 -8.73054 3.55312
H -3.04386 -2.66123 0.29066
H -1.31236 -3.09541 0.02394
H -5.27947 -3.11126 -3.85757
H -4.6486 -3.28345 -2.17457
H -6.3857 -3.6701 -2.54475
H -5.6273 -9.2893 1.76543
H -7.21176 -9.70407 1.3759
H -8.23762 -7.62384 1.14608
H -7.45021 -7.63117 2.7537
$end

$opt
CONSTRAINT
tors           1           2           3           4     +47.368
tors           3           4           5           6    +123.158
tors           4           5           6           7     +66.316
tors           5           6           7           8    -104.211
tors           6           7           8           9     -47.368
tors           7           8           9          10     +85.263
tors           8           9          10          11    +161.053
tors           9          10          11          12    +104.211
tors          11          12          13          14      -9.474
ENDCONSTRAINT
$end

$rem
JOBTYPE                   OPT
METHOD                    B3LYP
DFT_D                     d3_op
BASIS                     STO-3G
GEOM_OPT_MAX_CYCLES       100
GEOM_OPT_TOL_GRADIENT     300
GEOM_OPT_TOL_DISPLACEMENT 1200
GEOM_OPT_TOL_ENERGY       100
SYMMETRY                  False
THRESH                    12
SCF_CONVERGENCE           8
MAX_SUB_FILE_NUM          128
MEM_STATIC                400
MEM_TOTAL                 4000
$end
--------------------------------------------------------------

   15   -1509.9741332407      9.41E-09 Convergence criterion met
 Total energy in the final basis set = -1509.97413324
   14   -1510.0578981570      4.82E-09 Convergence criterion met
 Total energy in the final basis set = -1510.05789816
   14   -1510.1092591165      2.91E-09 Convergence criterion met
 Total energy in the final basis set = -1510.10925912
   14   -1510.1435006606      3.26E-09 Convergence criterion met
 Total energy in the final basis set = -1510.14350066
   13   -1510.1650134952      7.28E-09 Convergence criterion met
 Total energy in the final basis set = -1510.16501350
   14   -1510.1802662509      2.18E-09 Convergence criterion met
 Total energy in the final basis set = -1510.18026625
    2   -1510.1802662509      9.99E-10 Convergence criterion met
 Total energy in the final basis set = -1510.18026625
   14   -1510.1917429069      2.25E-09 Convergence criterion met
   11   -1510.2445388520      3.76E-09 Convergence criterion met
 Total energy in the final basis set = -1510.24453885
   11   -1510.2445505395      3.31E-09 Convergence criterion met
 Total energy in the final basis set = -1510.24455054
   10   -1510.2445648362      8.25E-09 Convergence criterion met
 Total energy in the final basis set = -1510.24456484
    9   -1510.2445660387      5.96E-09 Convergence criterion met
 Total energy in the final basis set = -1510.24456604
    9   -1510.2445672529      5.85E-09 Convergence criterion met
 Total energy in the final basis set = -1510.24456725
    9   -1510.2445598812      2.88E-09 Convergence criterion met
 Total energy in the final basis set = -1510.24455988

             Standard Nuclear Orientation (Angstroms)
    I     Atom           X                Y                Z
 ----------------------------------------------------------------
    1      O      -0.8101382915    -2.0936575900     0.0394150390
    2      C      -1.4425941332    -1.6095704655    -0.9285119654
    3      C      -2.8713900429    -0.9187898341    -0.8642062176
    4      C      -2.8804597658     0.1169333866     0.3337557009
    5      C      -2.2561456243    -0.5573783217     1.6449966707
    6      O      -1.1354718749    -0.1031950523     2.4362739521
    7      C      -1.2828312988     1.1583388786     3.1721850958
    8      C      -0.5036378015     2.3543935541     2.4772907463
    9      O       0.8795337274     1.9484191452     2.1160604910
   10      C       0.9495184329     1.2879119011     0.8375815494
   11      C       2.4506030008     1.3424720620     0.3301831782
   12      C       3.2342047098    -0.0278344986     0.4713620589
   13      C       2.3168783532    -1.1052023222     1.1407551702
   14      O       1.2007900952    -0.8657898700     1.6611988944
   15      O      -0.9674673998    -1.6059844464    -2.2684089601
   16      O       2.8167776373    -2.4189789024     0.9279896255
   17      O      -0.0307058522     1.0053294081     0.1192782127
   18      C       1.7561324899    -3.3982729141     1.2917615298
   19      C       2.4687223763     1.5187099118    -1.2482298947
   20      C       3.9201641038     1.9559958078    -1.6892626808
   21      C       4.7123463391     0.6043289093    -1.5274513735
   22      C       3.5681171697    -0.3656309926    -1.0383225430
   23      O       2.3740798338     0.1281161812    -1.7598176505
   24      H       2.9740911351     2.1636068239     0.8492860735
   25      H       4.1591258229     0.0876367574     1.0662059597
   26      H       1.6363914552     2.1266975539    -1.6522635926
   27      H       3.9177177114     2.2992839593    -2.7360542051
   28      H       4.3193796327     2.7613983847    -1.0524624540
   29      H       5.1240668561     0.2595220587    -2.4893442167
   30      H       5.5334282108     0.6750738950    -0.7964418572
   31      H       3.7287336294    -1.4433481780    -1.2351800515
   32      O      -2.7753771145    -1.6424275375     1.9991728573
   33      C       0.4535663496    -2.0288812618    -2.3232738748
   34      C      -2.9993238565     0.0814063972    -2.0800893052
   35      C      -4.3596371489     0.8860540019    -2.0015837458
   36      C      -4.0098811949     1.9895574245    -0.9338781794
   37      C      -2.5938194415     1.4799972835    -0.4440975306
   38      O      -1.9623226969     1.0858879012    -1.7248099510
   39      H      -3.6731255102    -1.6743757826    -0.7820822880
   40      H      -3.9393730588     0.1904917153     0.6523671169
   41      H       0.6399655877    -2.9019925062    -1.6676112105
   42      H      -2.7730245075    -0.3716727320    -3.0632365076
   43      H      -4.6077152788     1.3278209560    -2.9793251444
   44      H      -5.1966203660     0.2427602692    -1.6848940403
   45      H      -3.9108670010     2.9813800229    -1.4042707807
   46      H      -4.7509029252     2.0536837306    -0.1209230792
   47      H      -1.9748802331     2.2291160366     0.0763367841
   48      H       1.1205131912    -1.1787373593    -2.0284767760
   49      H       0.6463799963    -2.3069248955    -3.3755230114
   50      H       2.0827381427    -4.3665827631     0.8704042331
   51      H       0.7760955976    -3.0849955260     0.8628302837
   52      H       1.6569215111    -3.4890089772     2.3923715044
   53      H      -1.0565366470     2.7102044039     1.5850303634
   54      H      -0.3957694197     3.1893723693     3.1995677964
   55      H      -0.8215641964     0.9763737955     4.1664931931
   56      H      -2.3439877051     1.4544092741     3.3275195085
 ----------------------------------------------------------------

    9   -1510.2445599944      2.80E-09 Convergence criterion met
 Total energy in the final basis set = -1510.24455999
 Final energy is   -1510.24455999437
 **  OPTIMIZATION CONVERGED  **

                    Orbital Energies (a.u.)
 --------------------------------------------------------------

 Alpha MOs
 -- Occupied --
-18.934 -18.919 -18.910 -18.900 -18.898 -18.883 -18.872 -18.864
-18.860 -18.846 -10.097 -10.089 -10.086 -10.086 -10.068 -10.064
-10.063 -10.062 -10.048 -10.045 -10.045 -10.038 -10.030 -10.030
-10.025 -10.023 -10.022 -10.019 -10.012 -10.010  -1.012  -0.997
 -0.991  -0.982  -0.976  -0.955  -0.933  -0.921  -0.918  -0.913
 -0.763  -0.750  -0.723  -0.711  -0.709  -0.695  -0.689  -0.652
 -0.641  -0.605  -0.585  -0.577  -0.546  -0.539  -0.537  -0.527
 -0.508  -0.494  -0.473  -0.468  -0.459  -0.457  -0.452  -0.436
 -0.431  -0.425  -0.420  -0.409  -0.402  -0.398  -0.392  -0.385
 -0.378  -0.374  -0.369  -0.362  -0.359  -0.352  -0.346  -0.337
 -0.333  -0.328  -0.325  -0.324  -0.319  -0.315  -0.313  -0.311
 -0.304  -0.296  -0.295  -0.291  -0.287  -0.273  -0.273  -0.269
 -0.261  -0.249  -0.239  -0.233  -0.230  -0.220  -0.206  -0.176
 -0.167  -0.162  -0.150  -0.146  -0.145  -0.138  -0.133  -0.126
 -0.124

          Ground-State Mulliken Net Atomic Charges

     Atom                 Charge (a.u.)
  ----------------------------------------
      1 O                    -0.217264
      2 C                     0.221250
      3 C                    -0.072814
      4 C                    -0.081728
      5 C                     0.222303
      6 O                    -0.175802
      7 C                    -0.040910
      8 C                    -0.049694
      9 O                    -0.180740
     10 C                     0.220347
     11 C                    -0.081519
     12 C                    -0.078937
     13 C                     0.213066
     14 O                    -0.182344
     15 O                    -0.169374
     16 O                    -0.170970
     17 O                    -0.224578
     18 C                    -0.139376
     19 C                     0.028306
     20 C                    -0.143711
     21 C                    -0.143254
     22 C                     0.025426
     23 O                    -0.187582
     24 H                     0.083622
     25 H                     0.085384
     26 H                     0.092467
     27 H                     0.079176
     28 H                     0.074755
     29 H                     0.078948
     30 H                     0.074929
     31 H                     0.090873
     32 O                    -0.194461
     33 C                    -0.146728
     34 C                     0.022601
     35 C                    -0.146797
     36 C                    -0.142920
     37 C                     0.029143
     38 O                    -0.184864
     39 H                     0.086358
     40 H                     0.074404
     41 H                     0.079741
     42 H                     0.090392
     43 H                     0.075420
     44 H                     0.071507
     45 H                     0.073805
     46 H                     0.068853
     47 H                     0.081676
     48 H                     0.114531
     49 H                     0.079076
     50 H                     0.083783
     51 H                     0.118740
     52 H                     0.086299
     53 H                     0.079153
     54 H                     0.084117
     55 H                     0.088788
     56 H                     0.077128
  ----------------------------------------
  Sum of atomic charges =    -0.000000

                    Cartesian Multipole Moments
 -----------------------------------------------------------------
    Charge (ESU x 10^10)
                 0.0000
    Dipole Moment (Debye)
         X       1.2341      Y       2.5290      Z      -0.2900
       Tot       2.8289
    Quadrupole Moments (Debye-Ang)
        XX    -142.1782     XY      -4.7740     YY    -153.2095
        XZ      -0.6953     YZ       7.8020     ZZ    -160.1363

 Total job time:  120.00s(wall), 5724.85s(cpu)
        *  Thank you very much for using Q-Chem.  Have a nice day.  *
