 Q-Chem 5.0, Q-Chem, Inc., Pleasanton, CA (2017)
 Q-Chem 5.0.1 for Intel X86 EM64T Linux

User input:
--------------------------------------------------------------
$molecule
0  1
O -1.5483386642 -1.9102462652 1.855674534
C -2.3130183221 -1.3637507678 1.0736170373
C -2.5500131912 0.1273577733 0.9786352327
C -1.3748966667 0.9966063089 0.5018153481
C -0.1505541897 0.261097162 0.0037180315
O -0.2664736472 -1.0718562196 0.277976944
C -0.5947197734 -1.85714084 -0.8730385346
C -0.0592757685 -1.1890936625 -2.1352400194
O 0.0037467049 0.233392554 -1.9469836631
C 1.2440498345 0.7391028739 -1.7347099453
C 2.1776601821 -0.2489693019 -1.0768888897
C 2.7997683805 0.2285151984 0.2434405028
C 2.1438382939 1.4347886506 0.88481715
O 1.1730551278 1.4027036595 1.627186291
O -3.1895441771 -2.1653061064 0.3952253453
O 2.7407466843 2.636271086 0.6552132398
O 1.5579324583 1.8783056694 -2.061154768
C 2.2876800877 3.8381013743 1.1568710671
C 2.2637972798 -1.804607165 -0.5960798993
C 3.703120083 -2.3581146487 -0.563502284
C 4.2197892794 -1.767684482 0.7252977751
C 2.9945734303 -0.9803987277 1.1547158696
O 1.9534530427 -1.8158913624 0.7782310087
H 2.9574736903 -0.2707871864 -1.8708925462
H 3.8054625898 0.6384805375 -0.0128157611
H 1.7729381709 -2.5938834216 -1.1831822066
H 3.6521218714 -3.4637584274 -0.4106758338
H 4.2962105177 -2.1516598588 -1.4760721486
H 4.3780887757 -2.5854041673 1.4663399447
H 5.143968606 -1.1615656316 0.6346944307
H 3.0488168161 -0.7083397609 2.2318408812
O 0.3171398522 0.9770462284 -0.0094063314
C -3.2138629162 -3.5458538511 0.4401066969
C -3.6396308583 0.5165539253 -0.0507629374
C -4.225707368 1.8865607273 0.2850543753
C -3.0880600261 2.7866546817 -0.1305750117
C -2.0965823645 1.7509581712 -0.6637687468
O -2.9193427741 0.7631423903 -1.2301186561
H -2.8905615998 0.4236658919 1.9967326487
H -1.1779612945 1.7327299969 1.3427205025
H -3.4804784454 -3.8944143298 1.4579660894
H -4.4730362768 -0.2137457059 -0.1295577933
H -5.0846999525 2.0671007283 -0.4009639319
H -4.5635970475 1.9974923195 1.3374229164
H -3.4376061015 3.4284797855 -0.9706669338
H -2.6597586089 3.4220106837 0.6737672277
H -1.3920737262 2.2574375702 -1.3590335216
H -2.228782081 -3.9668077177 0.1527794345
H -3.9678441644 -3.9160742044 -0.2846560062
H 2.9361492264 4.6559909349 0.7813356501
H 2.3265207613 3.8277729638 2.266596897
H 1.2457803235 4.0254908182 0.8178369045
H 0.8406408735 -1.584104107 -2.6428295389
H -0.7468397758 -1.4023248031 -2.9867478234
H -1.6540317675 -1.7459933399 -1.1362376468
H -0.3936306814 -2.9423830419 -0.7715902985
$end

$rem
JOBTYPE                   OPT
METHOD                    B3LYP
DFT_D                     d3_op
BASIS                     STO-3G
GEOM_OPT_MAX_CYCLES       100
GEOM_OPT_TOL_GRADIENT     300
GEOM_OPT_TOL_DISPLACEMENT 1200
GEOM_OPT_TOL_ENERGY       100
SYMMETRY                  False
THRESH                    12
SCF_CONVERGENCE           8
MAX_SUB_FILE_NUM          128
MEM_STATIC                400
MEM_TOTAL                 4000
$end
--------------------------------------------------------------

   15   -1509.1467848717      8.30E-09 Convergence criterion met
 Total energy in the final basis set = -1509.14678487
   14   -1509.6333293690      5.28E-09 Convergence criterion met
 Total energy in the final basis set = -1509.63332937
   14   -1509.8149095573      4.51E-09 Convergence criterion met
 Total energy in the final basis set = -1509.81490956
   14   -1509.9479210856      8.71E-09 Convergence criterion met
 Total energy in the final basis set = -1509.94792109
   14   -1510.0435697309      6.22E-09 Convergence criterion met
 Total energy in the final basis set = -1510.04356973
   15   -1510.1018828954      4.77E-09 Convergence criterion met
 Total energy in the final basis set = -1510.10188290
   14   -1510.1456800766      9.15E-09 Convergence criterion met
 Total energy in the final basis set = -1510.14568008
   13   -1510.1751336542      6.04E-09 Convergence criterion met
   11   -1510.2780519019      4.46E-09 Convergence criterion met
 Total energy in the final basis set = -1510.27805190
   11   -1510.2780587985      3.75E-09 Convergence criterion met
 Total energy in the final basis set = -1510.27805880
    9   -1510.2780606492      8.25E-09 Convergence criterion met
 Total energy in the final basis set = -1510.27806065
    9   -1510.2780623524      5.52E-09 Convergence criterion met
 Total energy in the final basis set = -1510.27806235
    9   -1510.2780643503      4.81E-09 Convergence criterion met
 Total energy in the final basis set = -1510.27806435
    9   -1510.2780704437      9.16E-09 Convergence criterion met
 Total energy in the final basis set = -1510.27807044

             Standard Nuclear Orientation (Angstroms)
    I     Atom           X                Y                Z
 ----------------------------------------------------------------
    1      O      -3.1979110413    -2.5160988167     2.1013603905
    2      C      -3.4661262421    -1.8407923870     1.0842436768
    3      C      -3.5932529276    -0.2770796610     1.0131956103
    4      C      -2.1864693049     0.4644397741     0.9122712535
    5      C      -0.9282081794    -0.4759842714     1.1071225249
    6      O      -0.6270589983    -1.5726359126     0.2091177773
    7      C      -1.0607545960    -1.4194095987    -1.1984951944
    8      C       0.0308885592    -0.6711675939    -2.0616703011
    9      O       0.2478643222     0.7127098586    -1.5819158733
   10      C       1.3231306436     0.9135704637    -0.6359336198
   11      C       2.5395712798    -0.0785499975    -0.6407558123
   12      C       3.8350548122     0.5363129045     0.0367501729
   13      C       3.6410153030     1.9693117268     0.6608036254
   14      O       3.5535532421     2.2655615300     1.8704276043
   15      O      -3.7016829223    -2.4065266662    -0.2095229645
   16      O       3.7337836955     2.9270594203    -0.4075664568
   17      O       1.2364998784     1.9373646951     0.0786037845
   18      C       3.4874571779     4.2856731675     0.1222191845
   19      C       2.2878653399    -1.3576709001     0.2879213528
   20      C       3.3432716699    -2.4570440139    -0.1236170412
   21      C       4.6627862132    -1.8574095166     0.4909497614
   22      C       4.1154664644    -0.5378248010     1.1654419701
   23      O       2.7545793469    -0.9102899561     1.6150675222
   24      H       2.7598340073    -0.3730359689    -1.6815226200
   25      H       4.6562095367     0.5961316589    -0.7002986986
   26      H       1.2188282508    -1.6764712456     0.3336140678
   27      H       3.0868881290    -3.4235590384     0.3386376805
   28      H       3.4052286643    -2.5941962598    -1.2152797191
   29      H       5.0952205372    -2.5279548203     1.2502911209
   30      H       5.4297313169    -1.6470593420    -0.2715764515
   31      H       4.7097176020    -0.1524942989     2.0162304887
   32      O      -0.2051165537    -0.3904297865     2.1239173681
   33      C      -3.5117008605    -3.8740468964    -0.1600357581
   34      C      -4.3072028451     0.2639892199    -0.2917105258
   35      C      -4.6913575658     1.7781239820    -0.0625481431
   36      C      -3.2889804436     2.4846942965    -0.2092440015
   37      C      -2.3453755757     1.2532845490    -0.4589681010
   38      O      -3.2017125927     0.3537965841    -1.2792842558
   39      H      -4.1224794092     0.0465320000     1.9270380484
   40      H      -2.0912876283     1.1858821474     1.7429422114
   41      H      -4.2478079204    -4.3594874954     0.5127733155
   42      H      -5.1171075183    -0.3842663988    -0.6775620903
   43      H      -5.3979356978     2.1177662512    -0.8365880449
   44      H      -5.1467107139     1.9406078721     0.9273155612
   45      H      -3.2705971886     3.1634296078    -1.0768411920
   46      H      -3.0019592673     3.0530042030     0.6895882449
   47      H      -1.3741844146     1.4249338349    -0.9798285208
   48      H      -2.4912327343    -4.1379812872     0.1850539469
   49      H      -3.6615033109    -4.2349966522    -1.1941879987
   50      H       3.6390109389     4.9800837151    -0.7246312164
   51      H       4.1883183057     4.5401418913     0.9434329438
   52      H       2.4495248574     4.3840977828     0.5017804936
   53      H       0.9694869043    -1.2555770624    -2.0984936131
   54      H      -0.3614613877    -0.5734938597    -3.0961064947
   55      H      -2.0499686712    -0.8892506160    -1.2910312632
   56      H      -1.1500397731    -2.4520664544    -1.5934174317
 ----------------------------------------------------------------

    9   -1510.2780728977      4.52E-09 Convergence criterion met
 Total energy in the final basis set = -1510.27807290
 Final energy is   -1510.27807289766
 **  OPTIMIZATION CONVERGED  **

                    Orbital Energies (a.u.)
 --------------------------------------------------------------

 Alpha MOs
 -- Occupied --
-18.943 -18.941 -18.934 -18.912 -18.912 -18.891 -18.882 -18.880
-18.877 -18.855 -10.110 -10.104 -10.101 -10.083 -10.081 -10.072
-10.069 -10.056 -10.055 -10.048 -10.048 -10.045 -10.040 -10.040
-10.036 -10.028 -10.027 -10.025 -10.013 -10.012  -1.020  -1.017
 -1.005  -0.991  -0.987  -0.959  -0.949  -0.941  -0.935  -0.917
 -0.770  -0.755  -0.728  -0.715  -0.712  -0.711  -0.696  -0.667
 -0.649  -0.607  -0.600  -0.593  -0.556  -0.545  -0.536  -0.530
 -0.524  -0.508  -0.489  -0.477  -0.473  -0.454  -0.448  -0.443
 -0.436  -0.432  -0.424  -0.418  -0.413  -0.411  -0.403  -0.399
 -0.395  -0.388  -0.381  -0.379  -0.362  -0.356  -0.351  -0.346
 -0.343  -0.340  -0.332  -0.326  -0.325  -0.321  -0.320  -0.316
 -0.310  -0.309  -0.306  -0.297  -0.296  -0.290  -0.285  -0.272
 -0.270  -0.262  -0.253  -0.244  -0.238  -0.235  -0.220  -0.195
 -0.183  -0.171  -0.161  -0.158  -0.158  -0.153  -0.147  -0.135
 -0.133

          Ground-State Mulliken Net Atomic Charges

     Atom                 Charge (a.u.)
  ----------------------------------------
      1 O                    -0.206998
      2 C                     0.204805
      3 C                    -0.082480
      4 C                    -0.085601
      5 C                     0.203225
      6 O                    -0.181787
      7 C                    -0.077822
      8 C                    -0.054266
      9 O                    -0.178494
     10 C                     0.214578
     11 C                    -0.085898
     12 C                    -0.079605
     13 C                     0.215911
     14 O                    -0.213380
     15 O                    -0.171510
     16 O                    -0.178751
     17 O                    -0.190155
     18 C                    -0.128794
     19 C                     0.007288
     20 C                    -0.145502
     21 C                    -0.144955
     22 C                     0.025424
     23 O                    -0.181518
     24 H                     0.077571
     25 H                     0.081491
     26 H                     0.105759
     27 H                     0.077324
     28 H                     0.065832
     29 H                     0.077151
     30 H                     0.070376
     31 H                     0.087673
     32 O                    -0.180839
     33 C                    -0.128817
     34 C                     0.026225
     35 C                    -0.143183
     36 C                    -0.142740
     37 C                     0.007984
     38 O                    -0.188900
     39 H                     0.089745
     40 H                     0.094366
     41 H                     0.090290
     42 H                     0.091153
     43 H                     0.079671
     44 H                     0.076404
     45 H                     0.080973
     46 H                     0.079536
     47 H                     0.113389
     48 H                     0.093456
     49 H                     0.089774
     50 H                     0.084432
     51 H                     0.086481
     52 H                     0.091354
     53 H                     0.085830
     54 H                     0.091689
     55 H                     0.124788
     56 H                     0.080047
  ----------------------------------------
  Sum of atomic charges =     0.000000

                    Cartesian Multipole Moments
 -----------------------------------------------------------------
    Charge (ESU x 10^10)
                 0.0000
    Dipole Moment (Debye)
         X      -2.1218      Y      -1.0278      Z      -4.6000
       Tot       5.1690
    Quadrupole Moments (Debye-Ang)
        XX    -143.2236     XY      -3.9179     YY    -152.3752
        XZ      -7.0270     YZ       6.4441     ZZ    -170.6314

 Total job time:  146.00s(wall), 6964.07s(cpu)
        *  Thank you very much for using Q-Chem.  Have a nice day.  *
