 Q-Chem 5.0, Q-Chem, Inc., Pleasanton, CA (2017)
 Q-Chem 5.0.1 for Intel X86 EM64T Linux

User input:
--------------------------------------------------------------
$molecule
0  1
O -3.94934 -3.66094 2.70899
C -3.26408 -4.56952 2.26188
C -3.36658 -6.02376 2.66595
C -4.41631 -6.88207 1.94122
C -5.12384 -6.23632 0.77054
O -5.1749 -4.8831 0.94829
C -3.99654 -4.21035 0.49208
C -4.10237 -3.91921 -1.00129
O -3.52759 -2.63536 -1.29155
C -4.17495 -1.90633 -2.2342
C -3.52311 -0.56908 -2.49408
C -4.49965 0.58884 -2.74682
C -5.94194 0.33377 -2.35767
O -6.85456 0.09602 -3.13559
O -1.95789 -4.21534 1.95737
O -6.18934 0.19333 -1.02646
O -4.98039 -2.38941 -3.02179
C -7.4223 -0.10864 -0.48778
C -2.6784 0.03907 -1.34637
C -1.65097 1.01049 -1.92826
C -2.54907 2.15272 -2.36184
C -3.89762 1.66152 -1.82464
O -3.55593 0.9145 -0.68008
H -2.86455 -0.72956 -3.37777
H -4.51003 0.87172 -3.82309
H -2.15899 -0.70948 -0.71108
H -1.02028 1.36057 -1.07945
H -0.99304 0.59588 -2.72201
H -2.22424 3.07552 -1.83192
H -2.58999 2.33557 -3.45757
H -4.5946 2.51356 -1.66465
O -5.94002 -6.82725 0.08084
C -1.4483 -2.93396 1.82982
C -2.09904 -6.87353 2.37912
C -2.08958 -8.13217 3.25101
C -3.14052 -8.96543 2.55543
C -3.52805 -8.02476 1.41524
O -2.32103 -7.38208 1.08906
H -3.54125 -6.01488 3.76508
H -5.20957 -7.26611 2.62068
H -0.63283 -2.79175 2.56789
H -1.13906 -6.33817 2.53748
H -1.10487 -8.63746 3.12788
H -2.27203 -7.93624 4.32955
H -2.64919 -9.8689 2.12923
H -4.00382 -9.26923 3.18605
H -4.00806 -8.60298 0.59495
H -2.21578 -2.14805 1.99158
H -1.03257 -2.8105 0.80848
H -7.33371 -0.15827 0.61683
H -7.77352 -1.09342 -0.86322
H -8.15826 0.68035 -0.75288
H -3.825 -4.70459 -1.75421
H -5.20701 -3.8346 -1.15951
H -3.11375 -4.86527 0.1267
H -4.14258 -3.10221 0.70477
$end

$opt
CONSTRAINT
tors           1           2           3           4     +85.263
tors           3           4           5           6     -28.421
tors           4           5           6           7     +85.263
tors           5           6           7           8     +85.263
tors           6           7           8           9    +142.105
tors           7           8           9          10    -142.105
tors           8           9          10          11    -180.000
tors           9          10          11          12    -142.105
tors          11          12          13          14    -104.211
ENDCONSTRAINT
$end

$rem
JOBTYPE                   OPT
METHOD                    B3LYP
DFT_D                     d3_op
BASIS                     STO-3G
GEOM_OPT_MAX_CYCLES       100
GEOM_OPT_TOL_GRADIENT     300
GEOM_OPT_TOL_DISPLACEMENT 1200
GEOM_OPT_TOL_ENERGY       100
SYMMETRY                  False
THRESH                    12
SCF_CONVERGENCE           8
MAX_SUB_FILE_NUM          128
MEM_STATIC                400
MEM_TOTAL                 4000
$end
--------------------------------------------------------------

   15   -1509.9576325959      8.20E-09 Convergence criterion met
 Total energy in the final basis set = -1509.95763260
   13   -1510.0468210296      8.68E-09 Convergence criterion met
 Total energy in the final basis set = -1510.04682103
   13   -1510.1093009696      7.48E-09 Convergence criterion met
 Total energy in the final basis set = -1510.10930097
   13   -1510.1529476181      8.98E-09 Convergence criterion met
 Total energy in the final basis set = -1510.15294762
   14   -1510.1831888421      5.03E-09 Convergence criterion met
 Total energy in the final basis set = -1510.18318884
   14   -1510.2043768495      3.99E-09 Convergence criterion met
 Total energy in the final basis set = -1510.20437685
   14   -1510.2193118044      3.19E-09 Convergence criterion met
 Total energy in the final basis set = -1510.21931180
   13   -1510.2298047372      7.82E-09 Convergence criterion met
   10   -1510.2510473809      6.19E-09 Convergence criterion met
 Total energy in the final basis set = -1510.25104738
   11   -1510.2510599432      2.27E-09 Convergence criterion met
 Total energy in the final basis set = -1510.25105994
   10   -1510.2510701106      9.01E-09 Convergence criterion met
 Total energy in the final basis set = -1510.25107011
   10   -1510.2510785372      8.32E-09 Convergence criterion met
 Total energy in the final basis set = -1510.25107854
    9   -1510.2510823262      9.16E-09 Convergence criterion met
 Total energy in the final basis set = -1510.25108233
    9   -1510.2510839621      5.40E-09 Convergence criterion met
 Total energy in the final basis set = -1510.25108396

             Standard Nuclear Orientation (Angstroms)
    I     Atom           X                Y                Z
 ----------------------------------------------------------------
    1      O       2.7156135666     1.6778620798     2.6428535112
    2      C       3.1471328856     1.5873813359     1.4733431811
    3      C       4.3755993896     0.7441498648     0.9958966866
    4      C       4.2029171635    -0.7997125668     0.6359221030
    5      C       2.8177690544    -1.5624051823     0.4014583836
    6      O       1.5994379573    -1.1227670469     1.0557658552
    7      C       0.9538534490    -0.0522517318     0.2634371043
    8      C       0.0316870290    -0.6554953196    -0.8660688487
    9      O      -1.1720106204     0.2067806331    -0.9669417047
   10      C      -2.3394328739    -0.5791943011    -1.2110549369
   11      C      -3.5956565045     0.3626608562    -1.3125469770
   12      C      -4.8929485133    -0.2717295243    -0.6479179415
   13      C      -4.6997586221    -1.7491813999    -0.1557285298
   14      O      -5.1263335639    -2.7839596709    -0.7121476068
   15      O       2.6220562593     2.3428928441     0.3654572474
   16      O      -3.9492872789    -1.7351812407     1.0643811789
   17      O      -2.3354591498    -1.8269525123    -1.3077069727
   18      C      -3.6440251812    -3.1223466970     1.4800914828
   19      C      -3.4304898387     1.6778836982    -0.4432859195
   20      C      -4.5721895762     2.6972229818    -0.8345735451
   21      C      -5.8136391883     2.0598050291    -0.1072727326
   22      C      -5.1628709631     0.7663942475     0.5236322272
   23      O      -3.8097087846     1.2237005079     0.9148823836
   24      H      -3.7676565740     0.5908700329    -2.3811716022
   25      H      -5.7260183802    -0.2827840753    -1.3731231843
   26      H      -2.4015241784     2.0847346607    -0.4441679763
   27      H      -4.3446007683     3.7014213761    -0.4433133323
   28      H      -4.7077873253     2.7666461866    -1.9258013055
   29      H      -6.1969408890     2.7207012762     0.6864295994
   30      H      -6.6380899398     1.8206532996    -0.7976384910
   31      H      -5.6973063728     0.3455178763     1.3969358699
   32      O       2.8263944175    -2.6561179163    -0.2055624356
   33      C       1.5260696129     3.2349555905     0.8155153063
   34      C       5.0634213716     1.2928160825    -0.3340295533
   35      C       6.5960037571     0.9240320946    -0.2685303085
   36      C       6.5335800963    -0.6302889999    -0.5029332496
   37      C       4.9885349380    -0.8449843736    -0.7471807835
   38      O       4.5461418315     0.4086671566    -1.4013850960
   39      H       5.0919244210     0.7996159423     1.8363183820
   40      H       4.7241552910    -1.4024268798     1.4041384214
   41      H       1.8221608105     4.2858589682     0.6299193432
   42      H       4.8327575450     2.3510759160    -0.5598391629
   43      H       7.1459669458     1.4315882136    -1.0771857793
   44      H       7.0522614658     1.1965159892     0.6963100237
   45      H       7.1090635506    -0.9305101744    -1.3927515630
   46      H       6.8965827090    -1.2073859035     0.3625099994
   47      H       4.7232043250    -1.7269596609    -1.3627162869
   48      H       1.3417025719     3.0756426186     1.8972833327
   49      H       0.6134709245     3.0026180564     0.2331830914
   50      H      -3.0904629391    -3.0409670163     2.4335818663
   51      H      -3.0126326090    -3.6345085044     0.7250859538
   52      H      -4.5665494722    -3.7187724607     1.6336557555
   53      H       0.5550775278    -0.6778990801    -1.8458712609
   54      H      -0.2785529184    -1.6917943458    -0.6087597910
   55      H       1.6756010706     0.6746501559    -0.1657755881
   56      H       0.2976361639     0.4872910498     0.9783580667
 ----------------------------------------------------------------

    9   -1510.2510846000      4.15E-09 Convergence criterion met
 Total energy in the final basis set = -1510.25108460
 Final energy is   -1510.25108459997
 **  OPTIMIZATION CONVERGED  **

                    Orbital Energies (a.u.)
 --------------------------------------------------------------

 Alpha MOs
 -- Occupied --
-18.945 -18.936 -18.921 -18.912 -18.901 -18.893 -18.892 -18.885
-18.878 -18.862 -10.112 -10.111 -10.102 -10.089 -10.066 -10.065
-10.065 -10.064 -10.062 -10.057 -10.057 -10.052 -10.047 -10.044
-10.039 -10.032 -10.025 -10.024 -10.020 -10.018  -1.023  -1.016
 -1.010  -0.998  -0.976  -0.968  -0.948  -0.943  -0.936  -0.924
 -0.767  -0.761  -0.726  -0.723  -0.713  -0.710  -0.694  -0.667
 -0.650  -0.612  -0.603  -0.582  -0.550  -0.544  -0.543  -0.536
 -0.522  -0.511  -0.486  -0.477  -0.475  -0.464  -0.443  -0.439
 -0.436  -0.432  -0.429  -0.421  -0.419  -0.406  -0.402  -0.401
 -0.398  -0.386  -0.379  -0.367  -0.364  -0.358  -0.355  -0.345
 -0.341  -0.339  -0.337  -0.335  -0.331  -0.329  -0.320  -0.318
 -0.312  -0.310  -0.304  -0.302  -0.294  -0.294  -0.283  -0.279
 -0.273  -0.260  -0.253  -0.244  -0.242  -0.238  -0.232  -0.190
 -0.182  -0.172  -0.165  -0.161  -0.159  -0.155  -0.150  -0.143
 -0.139

          Ground-State Mulliken Net Atomic Charges

     Atom                 Charge (a.u.)
  ----------------------------------------
      1 O                    -0.204476
      2 C                     0.211541
      3 C                    -0.083553
      4 C                    -0.081190
      5 C                     0.217390
      6 O                    -0.187291
      7 C                    -0.060021
      8 C                    -0.056803
      9 O                    -0.174989
     10 C                     0.214786
     11 C                    -0.076841
     12 C                    -0.080843
     13 C                     0.211060
     14 O                    -0.213429
     15 O                    -0.171458
     16 O                    -0.171287
     17 O                    -0.211491
     18 C                    -0.128537
     19 C                     0.023115
     20 C                    -0.144864
     21 C                    -0.143727
     22 C                     0.026047
     23 O                    -0.188435
     24 H                     0.085318
     25 H                     0.082952
     26 H                     0.088518
     27 H                     0.076706
     28 H                     0.072760
     29 H                     0.077283
     30 H                     0.073677
     31 H                     0.085252
     32 O                    -0.183129
     33 C                    -0.137816
     34 C                     0.024170
     35 C                    -0.143448
     36 C                    -0.145092
     37 C                     0.022398
     38 O                    -0.192314
     39 H                     0.087137
     40 H                     0.087617
     41 H                     0.087345
     42 H                     0.089509
     43 H                     0.078833
     44 H                     0.073872
     45 H                     0.079723
     46 H                     0.074675
     47 H                     0.090830
     48 H                     0.104741
     49 H                     0.089079
     50 H                     0.089146
     51 H                     0.093088
     52 H                     0.086598
     53 H                     0.082758
     54 H                     0.104823
     55 H                     0.097434
     56 H                     0.090852
  ----------------------------------------
  Sum of atomic charges =     0.000000

                    Cartesian Multipole Moments
 -----------------------------------------------------------------
    Charge (ESU x 10^10)
                 0.0000
    Dipole Moment (Debye)
         X       2.0182      Y       3.5620      Z      -0.1589
       Tot       4.0971
    Quadrupole Moments (Debye-Ang)
        XX    -140.3721     XY      -7.3484     YY    -161.9073
        XZ       2.6077     YZ      -7.1902     ZZ    -165.5499

 Total job time:  75.55s(wall), 3593.50s(cpu)
        *  Thank you very much for using Q-Chem.  Have a nice day.  *
