 Q-Chem 5.0, Q-Chem, Inc., Pleasanton, CA (2017)
 Q-Chem 5.0.1 for Intel X86 EM64T Linux

User input:
--------------------------------------------------------------
$molecule
0  1
O 2.7156135666 1.6778620798 2.6428535112
C 3.1471328856 1.5873813359 1.4733431811
C 4.3755993896 0.7441498648 0.9958966866
C 4.2029171635 -0.7997125668 0.635922103
C 2.8177690544 -1.5624051823 0.4014583836
O 1.5994379573 -1.1227670469 1.0557658552
C 0.953853449 -0.0522517318 0.2634371043
C 0.031687029 -0.6554953196 -0.8660688487
O -1.1720106204 0.2067806331 -0.9669417047
C -2.3394328739 -0.5791943011 -1.2110549369
C -3.5956565045 0.3626608562 -1.312546977
C -4.8929485133 -0.2717295243 -0.6479179415
C -4.6997586221 -1.7491813999 -0.1557285298
O -5.1263335639 -2.7839596709 -0.7121476068
O 2.6220562593 2.3428928441 0.3654572474
O -3.9492872789 -1.7351812407 1.0643811789
O -2.3354591498 -1.8269525123 -1.3077069727
C -3.6440251812 -3.122346697 1.4800914828
C -3.4304898387 1.6778836982 -0.4432859195
C -4.5721895762 2.6972229818 -0.8345735451
C -5.8136391883 2.0598050291 -0.1072727326
C -5.1628709631 0.7663942475 0.5236322272
O -3.8097087846 1.2237005079 0.9148823836
H -3.767656574 0.5908700329 -2.3811716022
H -5.7260183802 -0.2827840753 -1.3731231843
H -2.4015241784 2.0847346607 -0.4441679763
H -4.3446007683 3.7014213761 -0.4433133323
H -4.7077873253 2.7666461866 -1.9258013055
H -6.196940889 2.7207012762 0.6864295994
H -6.6380899398 1.8206532996 -0.797638491
H -5.6973063728 0.3455178763 1.3969358699
O 2.8263944175 -2.6561179163 -0.2055624356
C 1.5260696129 3.2349555905 0.8155153063
C 5.0634213716 1.2928160825 -0.3340295533
C 6.5960037571 0.9240320946 -0.2685303085
C 6.5335800963 -0.6302889999 -0.5029332496
C 4.988534938 -0.8449843736 -0.7471807835
O 4.5461418315 0.4086671566 -1.401385096
H 5.091924421 0.7996159423 1.836318382
H 4.724155291 -1.4024268798 1.4041384214
H 1.8221608105 4.2858589682 0.6299193432
H 4.832757545 2.351075916 -0.5598391629
H 7.1459669458 1.4315882136 -1.0771857793
H 7.0522614658 1.1965159892 0.6963100237
H 7.1090635506 -0.9305101744 -1.392751563
H 6.896582709 -1.2073859035 0.3625099994
H 4.723204325 -1.7269596609 -1.3627162869
H 1.3417025719 3.0756426186 1.8972833327
H 0.6134709245 3.0026180564 0.2331830914
H -3.0904629391 -3.0409670163 2.4335818663
H -3.012632609 -3.6345085044 0.7250859538
H -4.5665494722 -3.7187724607 1.6336557555
H 0.5550775278 -0.6778990801 -1.8458712609
H -0.2785529184 -1.6917943458 -0.608759791
H 1.6756010706 0.6746501559 -0.1657755881
H 0.2976361639 0.4872910498 0.9783580667
$end

$rem
JOBTYPE                   OPT
METHOD                    B3LYP
DFT_D                     d3_op
BASIS                     STO-3G
GEOM_OPT_MAX_CYCLES       100
GEOM_OPT_TOL_GRADIENT     300
GEOM_OPT_TOL_DISPLACEMENT 1200
GEOM_OPT_TOL_ENERGY       100
SYMMETRY                  False
THRESH                    12
SCF_CONVERGENCE           8
MAX_SUB_FILE_NUM          128
MEM_STATIC                400
MEM_TOTAL                 4000
$end
--------------------------------------------------------------

   16   -1510.2511463251      4.04E-09 Convergence criterion met
 Total energy in the final basis set = -1510.25114633
   15   -1510.2521207276      2.09E-09 Convergence criterion met
 Total energy in the final basis set = -1510.25212073
   14   -1510.2554851006      3.44E-09 Convergence criterion met
 Total energy in the final basis set = -1510.25548510
   13   -1510.2597414848      9.67E-09 Convergence criterion met
 Total energy in the final basis set = -1510.25974148
   14   -1510.2635625726      7.34E-09 Convergence criterion met
 Total energy in the final basis set = -1510.26356257
   14   -1510.2663386344      7.60E-09 Convergence criterion met
 Total energy in the final basis set = -1510.26633863
   13   -1510.2682249019      9.37E-09 Convergence criterion met
 Total energy in the final basis set = -1510.26822490
   14   -1510.2703246609      2.38E-09 Convergence criterion met
   11   -1510.2957185500      7.54E-09 Convergence criterion met
 Total energy in the final basis set = -1510.29571855
   11   -1510.2957266498      7.61E-09 Convergence criterion met
 Total energy in the final basis set = -1510.29572665
   11   -1510.2957254704      9.26E-09 Convergence criterion met
 Total energy in the final basis set = -1510.29572547
   10   -1510.2957294796      5.96E-09 Convergence criterion met
 Total energy in the final basis set = -1510.29572948
    9   -1510.2957316318      5.33E-09 Convergence criterion met
 Total energy in the final basis set = -1510.29573163
    9   -1510.2957296129      6.79E-09 Convergence criterion met
 Total energy in the final basis set = -1510.29572961

             Standard Nuclear Orientation (Angstroms)
    I     Atom           X                Y                Z
 ----------------------------------------------------------------
    1      O      -1.5396985037     0.4347654772     2.5098890103
    2      C      -2.1378019008    -0.1008392732     1.5459273666
    3      C      -3.5587873586     0.2969451863     1.0145184507
    4      C      -3.6181502724     0.5899509814    -0.5449451176
    5      C      -2.2386126113     0.3785018839    -1.2574872301
    6      O      -1.2690573179     1.2085845248    -0.5993663530
    7      C       0.0934621945     0.8544681212    -1.0524703125
    8      C       0.7582457795     1.9502122714    -1.9674359257
    9      O       2.0923132951     1.4045617893    -2.3331052079
   10      C       2.9456904542     1.4526960673    -1.1776853304
   11      C       3.8655574200     0.1780881857    -1.1118086945
   12      C       3.9863903648    -0.3525683659     0.3832309689
   13      C       3.3032932473     0.5563320006     1.4680465485
   14      O       3.8974973148     1.2266734925     2.3382169581
   15      O      -1.6603585342    -1.2219695010     0.8079501670
   16      O       1.8643003735     0.4385841009     1.4048031337
   17      O       2.9037899346     2.3560811619    -0.3120953416
   18      C       1.2409762749     1.3373598055     2.4100988509
   19      C       3.1846512277    -1.0681597798    -1.8170502658
   20      C       4.2468570012    -2.2278159070    -1.9507215272
   21      C       4.3149857148    -2.7524548609    -0.4685887163
   22      C       3.2976741232    -1.7787422604     0.2452166668
   23      O       2.2499085330    -1.5627690018    -0.7784372599
   24      H       4.8595563010     0.4085452196    -1.5371712458
   25      H       5.0464570689    -0.4453519399     0.6776131390
   26      H       2.6328385315    -0.8051316885    -2.7394649089
   27      H       3.8817505035    -3.0063945278    -2.6391962675
   28      H       5.2183769202    -1.8595093252    -2.3169102609
   29      H       3.9647477377    -3.7943171882    -0.3928446488
   30      H       5.3265798206    -2.6873200769    -0.0373467458
   31      H       2.8508117759    -2.1647895053     1.1814702498
   32      O      -1.9905707801    -0.3742743341    -2.2225453021
   33      C      -0.3594561375    -1.7073446673     1.3343560120
   34      C      -4.5916827362    -0.9111027758     1.1195964026
   35      C      -6.0538108677    -0.3294605420     0.9736211770
   36      C      -6.1095017550    -0.0290270498    -0.5705365830
   37      C      -4.6698391217    -0.4929402101    -1.0224790867
   38      O      -4.3850656686    -1.6517738542    -0.1435371518
   39      H      -3.8934136192     1.1704114261     1.6008103153
   40      H      -3.9662156015     1.6216048761    -0.7365255729
   41      H      -0.1041347095    -2.5859646558     0.7144590579
   42      H      -4.4339783570    -1.5765229280     1.9905122779
   43      H      -6.7975853610    -1.0883984785     1.2645682460
   44      H      -6.2084069557     0.5711531481     1.5890883321
   45      H      -6.8841176203    -0.6311583383    -1.0713717327
   46      H      -6.2913511477     1.0349040286    -0.7911712696
   47      H      -4.5622743559    -0.7810001234    -2.0862629629
   48      H      -0.4539837167    -2.0162937954     2.3951539418
   49      H       0.4532103177    -0.9516975054     1.2475658938
   50      H       0.1762800835     1.0149888631     2.4947559293
   51      H       1.3032651355     2.3902610821     2.0696705421
   52      H       1.7542690204     1.2495972737     3.3867225299
   53      H       0.2028991205     2.0875078248    -2.9165654417
   54      H       0.8449156428     2.9225154355    -1.4371776524
   55      H       0.0520950259    -0.0974830536    -1.6218039512
   56      H       0.7287163236     0.7160580629    -0.1454430042
 ----------------------------------------------------------------

    9   -1510.2957287341      5.90E-09 Convergence criterion met
 Total energy in the final basis set = -1510.29572873
 Final energy is   -1510.29572873410
 **  OPTIMIZATION CONVERGED  **

                    Orbital Energies (a.u.)
 --------------------------------------------------------------

 Alpha MOs
 -- Occupied --
-18.936 -18.933 -18.931 -18.928 -18.891 -18.891 -18.887 -18.877
-18.877 -18.876 -10.108 -10.104 -10.100 -10.099 -10.070 -10.064
-10.061 -10.061 -10.057 -10.050 -10.049 -10.043 -10.040 -10.038
-10.037 -10.037 -10.024 -10.023 -10.021 -10.019  -1.019  -1.015
 -1.006  -1.004  -0.975  -0.969  -0.945  -0.936  -0.935  -0.933
 -0.766  -0.763  -0.727  -0.724  -0.713  -0.706  -0.693  -0.656
 -0.646  -0.617  -0.597  -0.581  -0.548  -0.545  -0.541  -0.537
 -0.514  -0.511  -0.487  -0.475  -0.473  -0.463  -0.447  -0.442
 -0.437  -0.435  -0.427  -0.422  -0.408  -0.404  -0.398  -0.394
 -0.391  -0.379  -0.376  -0.365  -0.361  -0.358  -0.356  -0.348
 -0.342  -0.339  -0.334  -0.331  -0.327  -0.325  -0.323  -0.317
 -0.309  -0.309  -0.305  -0.304  -0.293  -0.289  -0.284  -0.281
 -0.276  -0.258  -0.254  -0.243  -0.241  -0.238  -0.234  -0.189
 -0.177  -0.174  -0.165  -0.161  -0.159  -0.152  -0.151  -0.148
 -0.143

          Ground-State Mulliken Net Atomic Charges

     Atom                 Charge (a.u.)
  ----------------------------------------
      1 O                    -0.220101
      2 C                     0.219458
      3 C                    -0.078216
      4 C                    -0.078108
      5 C                     0.217107
      6 O                    -0.179373
      7 C                    -0.070763
      8 C                    -0.050904
      9 O                    -0.176929
     10 C                     0.214514
     11 C                    -0.079074
     12 C                    -0.081488
     13 C                     0.214156
     14 O                    -0.205906
     15 O                    -0.165236
     16 O                    -0.181113
     17 O                    -0.202396
     18 C                    -0.149030
     19 C                     0.022491
     20 C                    -0.144518
     21 C                    -0.143516
     22 C                     0.024293
     23 O                    -0.192436
     24 H                     0.087403
     25 H                     0.086433
     26 H                     0.094416
     27 H                     0.079473
     28 H                     0.074306
     29 H                     0.078514
     30 H                     0.074774
     31 H                     0.083213
     32 O                    -0.208617
     33 C                    -0.140267
     34 C                     0.026092
     35 C                    -0.143729
     36 C                    -0.144229
     37 C                     0.024828
     38 O                    -0.185440
     39 H                     0.085487
     40 H                     0.084969
     41 H                     0.092896
     42 H                     0.082540
     43 H                     0.078134
     44 H                     0.073847
     45 H                     0.078259
     46 H                     0.073065
     47 H                     0.090564
     48 H                     0.080885
     49 H                     0.107782
     50 H                     0.115104
     51 H                     0.084099
     52 H                     0.086225
     53 H                     0.089645
     54 H                     0.092855
     55 H                     0.100112
     56 H                     0.103449
  ----------------------------------------
  Sum of atomic charges =     0.000000

                    Cartesian Multipole Moments
 -----------------------------------------------------------------
    Charge (ESU x 10^10)
                 0.0000
    Dipole Moment (Debye)
         X      -0.4110      Y      -0.6425      Z      -0.6901
       Tot       1.0285
    Quadrupole Moments (Debye-Ang)
        XX    -143.3994     XY     -15.8027     YY    -162.4079
        XZ      -9.1501     YZ      -7.9129     ZZ    -163.5354

 Total job time:  157.26s(wall), 7497.17s(cpu)
        *  Thank you very much for using Q-Chem.  Have a nice day.  *
