 Q-Chem 5.0, Q-Chem, Inc., Pleasanton, CA (2017)
 Q-Chem 5.0.1 for Intel X86 EM64T Linux

User input:
--------------------------------------------------------------
$molecule
0  1
O -3.94934 -3.66094 2.70899
C -3.26408 -4.56952 2.26188
C -3.36658 -6.02376 2.66595
C -3.63629 -7.04588 1.54953
C -3.59671 -6.52161 0.1312
O -2.43316 -6.9047 -0.47279
C -2.13249 -8.29192 -0.28709
C -1.52139 -8.87206 -1.55836
O -1.62773 -10.30431 -1.54302
C -0.45687 -10.9773 -1.66679
C 0.25561 -11.16579 -0.34865
C 0.56029 -12.62518 0.01961
C 0.44171 -13.62996 -1.10868
O 0.91756 -13.49921 -2.22718
O -2.25762 -4.26208 1.40122
O -0.30472 -14.73381 -0.84262
O 0.03155 -11.20283 -2.76299
C -0.54506 -15.74615 -1.74789
C 1.66634 -10.55188 -0.31614
C 2.07277 -10.27755 1.13107
C 2.27574 -11.69147 1.63982
C 2.06019 -12.48459 0.34469
O 2.51687 -11.61545 -0.66497
H -0.36171 -10.69343 0.4496
H -0.02726 -12.99395 0.89017
H 1.75666 -9.62786 -0.92789
H 3.06132 -9.76565 1.09969
H 1.35958 -9.6594 1.71823
H 3.3271 -11.78956 1.99052
H 1.57448 -12.01482 2.43935
H 2.56971 -13.47218 0.40324
O -4.29214 -5.61072 -0.29066
C -1.98787 -2.99071 0.94065
C -2.17885 -6.60635 3.45244
C -2.72976 -7.49077 4.55809
C -3.39408 -8.55881 3.71421
C -2.83729 -8.19844 2.31013
O -1.61963 -7.56138 2.59538
H -4.24934 -6.00325 3.35074
H -4.6983 -7.37363 1.60452
H -1.74214 -2.31918 1.79087
H -1.47408 -5.84417 3.85003
H -1.84577 -7.92255 5.08132
H -3.39557 -7.00695 5.30498
H -3.0437 -9.54774 4.08638
H -4.50517 -8.52984 3.69973
H -2.78913 -9.19591 1.83602
H -2.86418 -2.5915 0.3865
H -1.11827 -3.0303 0.25316
H -1.18007 -16.51937 -1.26895
H 0.4126 -16.2137 -2.06207
H -1.07764 -15.34608 -2.63712
H -2.13567 -8.52945 -2.419
H -0.48616 -8.487 -1.71657
H -3.07433 -8.88828 -0.19477
H -1.31081 -8.45332 0.4358
$end

$opt
CONSTRAINT
tors           1           2           3           4    +123.158
tors           3           4           5           6    +104.211
tors           4           5           6           7     +47.368
tors           5           6           7           8    +142.105
tors           6           7           8           9    -161.053
tors           7           8           9          10    -123.158
tors           8           9          10          11     +85.263
tors           9          10          11          12    +123.158
tors          11          12          13          14     +47.368
ENDCONSTRAINT
$end

$rem
JOBTYPE                   OPT
METHOD                    B3LYP
DFT_D                     d3_op
BASIS                     STO-3G
GEOM_OPT_MAX_CYCLES       100
GEOM_OPT_TOL_GRADIENT     300
GEOM_OPT_TOL_DISPLACEMENT 1200
GEOM_OPT_TOL_ENERGY       100
SYMMETRY                  False
THRESH                    12
SCF_CONVERGENCE           8
MAX_SUB_FILE_NUM          128
MEM_STATIC                400
MEM_TOTAL                 4000
$end
--------------------------------------------------------------

   15   -1510.0569023651      8.41E-09 Convergence criterion met
 Total energy in the final basis set = -1510.05690237
   14   -1510.1363353495      8.63E-09 Convergence criterion met
 Total energy in the final basis set = -1510.13633535
   14   -1510.1820873835      6.22E-09 Convergence criterion met
 Total energy in the final basis set = -1510.18208738
   14   -1510.2088483503      6.27E-09 Convergence criterion met
 Total energy in the final basis set = -1510.20884835
   14   -1510.2209150767      3.02E-09 Convergence criterion met
 Total energy in the final basis set = -1510.22091508
   14   -1510.2260328878      2.36E-09 Convergence criterion met
 Total energy in the final basis set = -1510.22603289
   13   -1510.2280378361      7.37E-09 Convergence criterion met
 Total energy in the final basis set = -1510.22803784
   12   -1510.2286541573      8.69E-09 Convergence criterion met
    9   -1510.2298300849      6.87E-09 Convergence criterion met
 Total energy in the final basis set = -1510.22983008
    9   -1510.2298311615      8.39E-09 Convergence criterion met
 Total energy in the final basis set = -1510.22983116
    9   -1510.2298351861      7.01E-09 Convergence criterion met
 Total energy in the final basis set = -1510.22983519
    9   -1510.2298374105      9.17E-09 Convergence criterion met
 Total energy in the final basis set = -1510.22983741
    9   -1510.2298395868      6.95E-09 Convergence criterion met
 Total energy in the final basis set = -1510.22983959
    9   -1510.2298415792      4.54E-09 Convergence criterion met
 Total energy in the final basis set = -1510.22984158

             Standard Nuclear Orientation (Angstroms)
    I     Atom           X                Y                Z
 ----------------------------------------------------------------
    1      O      -6.4872706020    -0.3533417127    -0.6701786090
    2      C      -5.3164016157     0.0236995559    -0.4506932904
    3      C      -4.7709503820     0.7257793539     0.8376701018
    4      C      -3.5539711288    -0.0358625753     1.5411656169
    5      C      -3.2406374758    -1.3845489192     0.7389234175
    6      O      -2.1179525803    -1.5412680865    -0.1456198343
    7      C      -0.8093744767    -1.0876647312     0.3678914725
    8      C       0.2753569447    -2.1134976724    -0.1436796244
    9      O       1.4874474419    -1.9723717929     0.7002193508
   10      C       2.6358505397    -1.6681658770    -0.1602223589
   11      C       2.7466924638    -0.1221486121    -0.4491100646
   12      C       4.1067632742     0.6014978196    -0.0589995691
   13      C       5.2694117349    -0.3173748305     0.4520378567
   14      O       5.7039862857    -1.3832635371    -0.0315025162
   15      O      -4.2354037259    -0.1069513741    -1.3801035755
   16      O       5.8037723320     0.2957826291     1.6364483854
   17      O       3.4190239664    -2.5588512943    -0.5404424709
   18      C       6.9248689917    -0.5172934624     2.1622486222
   19      C       2.6706195185     0.1989744628    -2.0110521673
   20      C       2.1997283281     1.6970962460    -2.1694323510
   21      C       3.5041461307     2.4648061803    -1.7381876676
   22      C       4.4915593191     1.2629024526    -1.4576473817
   23      O       4.0848983426     0.2323348946    -2.4380147467
   24      H       1.9092213034     0.3609912628     0.0834944202
   25      H       3.9297310173     1.3696053206     0.7139609134
   26      H       2.1046406196    -0.5403665387    -2.6103389647
   27      H       1.9352801553     1.9071068002    -3.2181033996
   28      H       1.3320123512     1.9320427571    -1.5321658499
   29      H       3.8900407685     3.0975451870    -2.5530837014
   30      H       3.3528441795     3.0923922521    -0.8453257745
   31      H       5.5670859065     1.5007444281    -1.5705106160
   32      O      -4.0955772130    -2.3001718763     0.7268115824
   33      C      -4.6771123891    -0.8548341363    -2.5784661911
   34      C      -4.1096846658     2.1389095180     0.5199271414
   35      C      -4.1098345015     2.9777055202     1.8540058056
   36      C      -3.0153191240     2.2067570131     2.6767432778
   37      C      -2.5026055823     1.1483913828     1.6140357669
   38      O      -2.6749141767     1.8334065122     0.3128559129
   39      H      -5.6201464060     0.8332532118     1.5350828817
   40      H      -3.8532909950    -0.3566485009     2.5560960811
   41      H      -5.5301368780    -0.3555432859    -3.0819641464
   42      H      -4.5261321539     2.6535937570    -0.3675636977
   43      H      -3.8063157147     4.0178029866     1.6539697173
   44      H      -5.0944141589     2.9840504694     2.3478275723
   45      H      -2.1912428281     2.8713133289     2.9807625769
   46      H      -3.4244101756     1.7206829437     3.5769198599
   47      H      -1.4516400264     0.8563428584     1.7683315032
   48      H      -4.9752343774    -1.8912102654    -2.3181959218
   49      H      -3.8062141519    -0.8812637314    -3.2586310449
   50      H       7.2644582715    -0.0107017696     3.0842316205
   51      H       7.7640795880    -0.5727242391     1.4389721262
   52      H       6.6017013135    -1.5506768899     2.4028696598
   53      H      -0.1306836566    -3.1427789822    -0.0205367461
   54      H       0.4670507990    -1.9525597691    -1.2243552865
   55      H      -0.7687366177    -1.0869782105     1.4766752292
   56      H      -0.5730171123    -0.0666253421    -0.0035874066
 ----------------------------------------------------------------

    9   -1510.2298425657      5.31E-09 Convergence criterion met
 Total energy in the final basis set = -1510.22984257
 Final energy is   -1510.22984256575
 **  OPTIMIZATION CONVERGED  **

                    Orbital Energies (a.u.)
 --------------------------------------------------------------

 Alpha MOs
 -- Occupied --
-18.934 -18.932 -18.926 -18.913 -18.898 -18.897 -18.896 -18.879
-18.878 -18.876 -10.110 -10.105 -10.099 -10.097 -10.078 -10.074
-10.068 -10.068 -10.067 -10.066 -10.063 -10.061 -10.043 -10.043
-10.042 -10.040 -10.027 -10.027 -10.026 -10.026  -1.014  -1.012
 -1.006  -1.003  -0.978  -0.978  -0.943  -0.936  -0.935  -0.933
 -0.768  -0.768  -0.727  -0.727  -0.713  -0.712  -0.706  -0.664
 -0.659  -0.609  -0.602  -0.592  -0.554  -0.551  -0.545  -0.543
 -0.525  -0.519  -0.491  -0.475  -0.469  -0.464  -0.455  -0.443
 -0.441  -0.435  -0.432  -0.416  -0.413  -0.411  -0.411  -0.408
 -0.398  -0.387  -0.376  -0.369  -0.368  -0.362  -0.358  -0.350
 -0.346  -0.345  -0.339  -0.338  -0.332  -0.329  -0.326  -0.317
 -0.314  -0.313  -0.312  -0.304  -0.300  -0.291  -0.285  -0.280
 -0.279  -0.255  -0.253  -0.248  -0.246  -0.241  -0.235  -0.178
 -0.177  -0.174  -0.168  -0.160  -0.155  -0.151  -0.150  -0.146
 -0.143

          Ground-State Mulliken Net Atomic Charges

     Atom                 Charge (a.u.)
  ----------------------------------------
      1 O                    -0.208295
      2 C                     0.208584
      3 C                    -0.079838
      4 C                    -0.081016
      5 C                     0.213449
      6 O                    -0.175786
      7 C                    -0.044706
      8 C                    -0.047659
      9 O                    -0.201304
     10 C                     0.217913
     11 C                    -0.084258
     12 C                    -0.079139
     13 C                     0.203900
     14 O                    -0.199137
     15 O                    -0.168456
     16 O                    -0.172513
     17 O                    -0.159522
     18 C                    -0.129743
     19 C                     0.025595
     20 C                    -0.143459
     21 C                    -0.144050
     22 C                     0.026962
     23 O                    -0.182439
     24 H                     0.079706
     25 H                     0.087271
     26 H                     0.081794
     27 H                     0.080017
     28 H                     0.074811
     29 H                     0.079625
     30 H                     0.074857
     31 H                     0.084969
     32 O                    -0.199533
     33 C                    -0.127304
     34 C                     0.026209
     35 C                    -0.143162
     36 C                    -0.144471
     37 C                     0.018524
     38 O                    -0.190324
     39 H                     0.086331
     40 H                     0.084774
     41 H                     0.088319
     42 H                     0.084685
     43 H                     0.078334
     44 H                     0.076161
     45 H                     0.077220
     46 H                     0.074612
     47 H                     0.080626
     48 H                     0.093455
     49 H                     0.091582
     50 H                     0.089393
     51 H                     0.088463
     52 H                     0.090799
     53 H                     0.090440
     54 H                     0.081569
     55 H                     0.083920
     56 H                     0.081246
  ----------------------------------------
  Sum of atomic charges =    -0.000000

                    Cartesian Multipole Moments
 -----------------------------------------------------------------
    Charge (ESU x 10^10)
                -0.0000
    Dipole Moment (Debye)
         X       0.3068      Y       4.6834      Z       1.8235
       Tot       5.0352
    Quadrupole Moments (Debye-Ang)
        XX    -175.6949     XY       1.3009     YY    -166.8394
        XZ       6.0567     YZ       0.4657     ZZ    -152.2017

 Total job time:  61.93s(wall), 2947.56s(cpu)
        *  Thank you very much for using Q-Chem.  Have a nice day.  *
