 Q-Chem 5.0, Q-Chem, Inc., Pleasanton, CA (2017)
 Q-Chem 5.0.1 for Intel X86 EM64T Linux

User input:
--------------------------------------------------------------
$molecule
0  1
O -3.94934 -3.66094 2.70899
C -3.26408 -4.56952 2.26188
C -3.36658 -6.02376 2.66595
C -2.40867 -7.01244 1.98128
C -1.33566 -6.41165 1.10049
O -0.17315 -7.11483 1.2402
C -0.38357 -8.48722 1.58879
C 0.68234 -8.94775 2.57766
O 1.65165 -9.76752 1.90589
C 2.65587 -10.24029 2.68511
C 2.75868 -11.74681 2.66255
C 1.59398 -12.46475 1.96519
C 0.70491 -11.59487 1.09942
O 0.20883 -11.92841 0.03301
O -2.26294 -4.11636 1.46747
O -0.30159 -11.25709 1.96321
O 3.41493 -9.51392 3.30961
C -1.64833 -11.56545 1.8135
C 3.97387 -12.25464 1.87708
C 4.33657 -13.6601 2.34998
C 3.18016 -14.45352 1.77958
C 2.4387 -13.35074 1.01264
O 3.46563 -12.48627 0.58903
H 2.81853 -12.06151 3.72884
H 0.98236 -13.12102 2.62849
H 4.85493 -11.5796 1.94533
H 5.2695 -13.95771 1.81958
H 4.4871 -13.76269 3.44629
H 3.59095 -15.20669 1.07053
H 2.52784 -14.95278 2.52823
H 1.83173 -13.81245 0.20302
O -1.5835 -5.89948 0.01777
C -2.06959 -2.8078 1.06382
C -3.33549 -6.1417 4.16673
C -3.98149 -7.44964 4.60862
C -2.93436 -8.41244 4.14041
C -1.9377 -7.42967 3.50803
O -1.99322 -6.3094 4.34572
H -4.39898 -6.26687 2.32398
H -2.97971 -7.80757 1.4475
H -1.91179 -2.15141 1.94632
H -3.79633 -5.2806 4.69991
H -4.03772 -7.47757 5.72029
H -4.99233 -7.60297 4.17197
H -2.47326 -8.87298 5.04533
H -3.28348 -9.20903 3.4516
H -0.98984 -7.85649 3.72673
H -2.94813 -2.45468 0.48166
H -1.17017 -2.75645 0.41616
H -2.0592 -11.10949 0.8872
H -2.20717 -11.18021 2.68867
H -1.77984 -12.66818 1.77495
H 1.19422 -8.05934 3.01395
H 0.24544 -9.52223 3.42646
H -0.13033 -9.00206 0.63729
H -1.33618 -9.02182 1.69702
$end

$opt
CONSTRAINT
tors           1           2           3           4    -180.000
tors           3           4           5           6    +142.105
tors           4           5           6           7     +28.421
tors           5           6           7           8    -142.105
tors           6           7           8           9    -104.211
tors           7           8           9          10    -180.000
tors           8           9          10          11    +123.158
tors           9          10          11          12      -9.474
tors          11          12          13          14    +142.105
ENDCONSTRAINT
$end

$rem
JOBTYPE                   OPT
METHOD                    B3LYP
DFT_D                     d3_op
BASIS                     STO-3G
GEOM_OPT_MAX_CYCLES       100
GEOM_OPT_TOL_GRADIENT     300
GEOM_OPT_TOL_DISPLACEMENT 1200
GEOM_OPT_TOL_ENERGY       100
SYMMETRY                  False
THRESH                    12
SCF_CONVERGENCE           8
MAX_SUB_FILE_NUM          128
MEM_STATIC                400
MEM_TOTAL                 4000
$end
--------------------------------------------------------------

   16   -1509.9540360619      3.20E-09 Convergence criterion met
 Total energy in the final basis set = -1509.95403606
   15   -1510.0474889339      2.53E-09 Convergence criterion met
 Total energy in the final basis set = -1510.04748893
   15   -1510.1048348784      2.38E-09 Convergence criterion met
 Total energy in the final basis set = -1510.10483488
   15   -1510.1415462847      4.01E-09 Convergence criterion met
 Total energy in the final basis set = -1510.14154628
   14   -1510.1693593619      7.93E-09 Convergence criterion met
 Total energy in the final basis set = -1510.16935936
   14   -1510.1859240455      3.50E-09 Convergence criterion met
 Total energy in the final basis set = -1510.18592405
   14   -1510.1972208657      4.19E-09 Convergence criterion met
 Total energy in the final basis set = -1510.19722087
   13   -1510.2055832511      6.17E-09 Convergence criterion met
   11   -1510.2321435643      6.68E-09 Convergence criterion met
 Total energy in the final basis set = -1510.23214356
   11   -1510.2321660354      4.87E-09 Convergence criterion met
 Total energy in the final basis set = -1510.23216604
   10   -1510.2321798610      8.31E-09 Convergence criterion met
 Total energy in the final basis set = -1510.23217986
    9   -1510.2321846722      7.72E-09 Convergence criterion met
 Total energy in the final basis set = -1510.23218467
    9   -1510.2321876606      5.54E-09 Convergence criterion met
 Total energy in the final basis set = -1510.23218766
    9   -1510.2321889287      4.07E-09 Convergence criterion met
 Total energy in the final basis set = -1510.23218893

             Standard Nuclear Orientation (Angstroms)
    I     Atom           X                Y                Z
 ----------------------------------------------------------------
    1      O      -6.2846855827     1.0843608730     0.3154834062
    2      C      -5.1225863289     0.7643132616    -0.0152426272
    3      C      -4.7099756027    -0.5190300737    -0.8352142803
    4      C      -3.1525632561    -0.6489524840    -1.0988626775
    5      C      -2.5466363474     0.7982567004    -1.4152604739
    6      O      -1.2576686683     1.2369328529    -0.9566572440
    7      C      -0.2436425631     0.1817479643    -0.7515228887
    8      C       0.6102099013     0.5286093165     0.5202260046
    9      O       1.9146234993     1.0313518019     0.0230523463
   10      C       2.7666176960     1.3758732669     1.1496466203
   11      C       4.1489038162     0.6101903621     1.1444127098
   12      C       4.2831870047    -0.5454417879     0.0844148380
   13      C       2.9828061891    -1.2970354171    -0.3551283708
   14      O       2.6980443840    -1.7078208508    -1.5001517986
   15      O      -3.9495971610     1.3977219335     0.5048673963
   16      O       2.3100127690    -1.7663356553     0.8370752296
   17      O       2.4271811844     2.1927405682     2.0315786182
   18      C       1.3461559799    -2.8350825953     0.4828324178
   19      C       5.2045190138     1.6375313931     0.5317743971
   20      C       6.6610137549     1.0201319992     0.5455254068
   21      C       6.6129504581     0.0743621975    -0.7127127460
   22      C       5.0840627127     0.1746658212    -1.0843785362
   23      O       4.8088477356     1.6185440208    -0.8985631785
   24      H       4.3842514896     0.2926561612     2.1754266539
   25      H       4.9223690099    -1.3372707550     0.5208811323
   26      H       5.1240174030     2.6619756394     0.9452133528
   27      H       7.4184329315     1.8118286555     0.4339214334
   28      H       6.8618467268     0.4710781930     1.4798166304
   29      H       7.2318348004     0.4700197961    -1.5341077518
   30      H       6.9323955861    -0.9563025696    -0.4905362333
   31      H       4.8018535010    -0.1557999209    -2.1031468841
   32      O      -3.1999971619     1.6086841076    -2.1102409706
   33      C      -4.3156053451     2.5635681818     1.3382429397
   34      C      -4.9329483745    -1.7241446772     0.1673833639
   35      C      -4.5162512521    -3.1012506169    -0.4889711666
   36      C      -2.9484703579    -3.0608727762    -0.3385869124
   37      C      -2.7550324350    -1.5763369237     0.1617858796
   38      O      -3.8523673098    -1.4403782464     1.1438441207
   39      H      -5.3132289337    -0.5868364933    -1.7579304364
   40      H      -2.9988463799    -1.2396348282    -2.0216124933
   41      H      -4.9808841918     2.2684555495     2.1751376242
   42      H      -5.9223125019    -1.7175981307     0.6647307098
   43      H      -4.9583274484    -3.9451797931     0.0635013632
   44      H      -4.8368962194    -3.1638889269    -1.5416343937
   45      H      -2.6033241168    -3.7708861532     0.4305786542
   46      H      -2.4189703575    -3.2718875265    -1.2817072170
   47      H      -1.8016775249    -1.3654825414     0.6758457080
   48      H      -4.8235725674     3.3462573315     0.7387439431
   49      H      -3.3647121518     2.9621450933     1.7368698872
   50      H       0.6890142607    -2.5451151976    -0.3604839378
   51      H       0.7357385574    -3.0160683360     1.3869050149
   52      H       1.8737130853    -3.7703438214     0.2040798400
   53      H       0.0798252774     1.2955678824     1.1280081962
   54      H       0.7868395704    -0.3770998897     1.1390265118
   55      H       0.4483811720     0.1865845830    -1.6257681555
   56      H      -0.6779475956    -0.8280993833    -0.6868105723
 ----------------------------------------------------------------

    9   -1510.2321893466      2.64E-09 Convergence criterion met
 Total energy in the final basis set = -1510.23218935
 Final energy is   -1510.23218934656
 **  OPTIMIZATION CONVERGED  **

                    Orbital Energies (a.u.)
 --------------------------------------------------------------

 Alpha MOs
 -- Occupied --
-18.938 -18.936 -18.925 -18.918 -18.897 -18.893 -18.890 -18.882
-18.872 -18.864 -10.109 -10.108 -10.100 -10.098 -10.075 -10.075
-10.071 -10.067 -10.065 -10.064 -10.062 -10.062 -10.044 -10.043
-10.040 -10.038 -10.029 -10.027 -10.024 -10.023  -1.019  -1.012
 -1.009  -0.998  -0.977  -0.973  -0.944  -0.942  -0.934  -0.929
 -0.768  -0.766  -0.729  -0.728  -0.710  -0.707  -0.705  -0.672
 -0.659  -0.609  -0.602  -0.591  -0.552  -0.551  -0.544  -0.542
 -0.522  -0.515  -0.493  -0.487  -0.474  -0.468  -0.447  -0.445
 -0.441  -0.437  -0.427  -0.416  -0.414  -0.414  -0.409  -0.403
 -0.393  -0.391  -0.382  -0.375  -0.368  -0.365  -0.360  -0.353
 -0.345  -0.340  -0.336  -0.335  -0.332  -0.326  -0.320  -0.317
 -0.315  -0.312  -0.309  -0.306  -0.297  -0.293  -0.290  -0.277
 -0.276  -0.261  -0.250  -0.245  -0.243  -0.237  -0.232  -0.188
 -0.176  -0.168  -0.165  -0.162  -0.157  -0.154  -0.151  -0.148
 -0.138

          Ground-State Mulliken Net Atomic Charges

     Atom                 Charge (a.u.)
  ----------------------------------------
      1 O                    -0.214207
      2 C                     0.216713
      3 C                    -0.073398
      4 C                    -0.086745
      5 C                     0.218759
      6 O                    -0.170841
      7 C                    -0.050271
      8 C                    -0.053573
      9 O                    -0.181972
     10 C                     0.220498
     11 C                    -0.077555
     12 C                    -0.078796
     13 C                     0.213764
     14 O                    -0.215450
     15 O                    -0.166171
     16 O                    -0.179095
     17 O                    -0.190243
     18 C                    -0.131985
     19 C                     0.024401
     20 C                    -0.145584
     21 C                    -0.141728
     22 C                     0.024508
     23 O                    -0.189018
     24 H                     0.089091
     25 H                     0.084145
     26 H                     0.085874
     27 H                     0.079604
     28 H                     0.073594
     29 H                     0.079248
     30 H                     0.073038
     31 H                     0.091385
     32 O                    -0.208013
     33 C                    -0.125385
     34 C                     0.022438
     35 C                    -0.145283
     36 C                    -0.142772
     37 C                     0.019460
     38 O                    -0.191487
     39 H                     0.089110
     40 H                     0.079730
     41 H                     0.091320
     42 H                     0.087694
     43 H                     0.079634
     44 H                     0.076027
     45 H                     0.076541
     46 H                     0.072169
     47 H                     0.079775
     48 H                     0.091944
     49 H                     0.093525
     50 H                     0.087669
     51 H                     0.088692
     52 H                     0.087201
     53 H                     0.094079
     54 H                     0.089156
     55 H                     0.095746
     56 H                     0.083043
  ----------------------------------------
  Sum of atomic charges =     0.000000

                    Cartesian Multipole Moments
 -----------------------------------------------------------------
    Charge (ESU x 10^10)
                 0.0000
    Dipole Moment (Debye)
         X       2.5162      Y      -4.7452      Z       1.5039
       Tot       5.5776
    Quadrupole Moments (Debye-Ang)
        XX    -156.0975     XY       4.4158     YY    -158.8820
        XZ       4.7803     YZ       5.2150     ZZ    -166.2211

 Total job time:  86.15s(wall), 4101.79s(cpu)
        *  Thank you very much for using Q-Chem.  Have a nice day.  *
