 Q-Chem 5.0, Q-Chem, Inc., Pleasanton, CA (2017)
 Q-Chem 5.0.1 for Intel X86 EM64T Linux

User input:
--------------------------------------------------------------
$molecule
0  1
O -6.2846855827 1.084360873 0.3154834062
C -5.1225863289 0.7643132616 -0.0152426272
C -4.7099756027 -0.5190300737 -0.8352142803
C -3.1525632561 -0.648952484 -1.0988626775
C -2.5466363474 0.7982567004 -1.4152604739
O -1.2576686683 1.2369328529 -0.956657244
C -0.2436425631 0.1817479643 -0.7515228887
C 0.6102099013 0.5286093165 0.5202260046
O 1.9146234993 1.0313518019 0.0230523463
C 2.766617696 1.3758732669 1.1496466203
C 4.1489038162 0.6101903621 1.1444127098
C 4.2831870047 -0.5454417879 0.084414838
C 2.9828061891 -1.2970354171 -0.3551283708
O 2.698044384 -1.7078208508 -1.5001517986
O -3.949597161 1.3977219335 0.5048673963
O 2.310012769 -1.7663356553 0.8370752296
O 2.4271811844 2.1927405682 2.0315786182
C 1.3461559799 -2.8350825953 0.4828324178
C 5.2045190138 1.6375313931 0.5317743971
C 6.6610137549 1.0201319992 0.5455254068
C 6.6129504581 0.0743621975 -0.712712746
C 5.0840627127 0.1746658212 -1.0843785362
O 4.8088477356 1.6185440208 -0.8985631785
H 4.3842514896 0.2926561612 2.1754266539
H 4.9223690099 -1.337270755 0.5208811323
H 5.124017403 2.6619756394 0.9452133528
H 7.4184329315 1.8118286555 0.4339214334
H 6.8618467268 0.471078193 1.4798166304
H 7.2318348004 0.4700197961 -1.5341077518
H 6.9323955861 -0.9563025696 -0.4905362333
H 4.801853501 -0.1557999209 -2.1031468841
O -3.1999971619 1.6086841076 -2.1102409706
C -4.3156053451 2.5635681818 1.3382429397
C -4.9329483745 -1.7241446772 0.1673833639
C -4.5162512521 -3.1012506169 -0.4889711666
C -2.9484703579 -3.0608727762 -0.3385869124
C -2.755032435 -1.5763369237 0.1617858796
O -3.8523673098 -1.4403782464 1.1438441207
H -5.3132289337 -0.5868364933 -1.7579304364
H -2.9988463799 -1.2396348282 -2.0216124933
H -4.9808841918 2.2684555495 2.1751376242
H -5.9223125019 -1.7175981307 0.6647307098
H -4.9583274484 -3.9451797931 0.0635013632
H -4.8368962194 -3.1638889269 -1.5416343937
H -2.6033241168 -3.7708861532 0.4305786542
H -2.4189703575 -3.2718875265 -1.281707217
H -1.8016775249 -1.3654825414 0.675845708
H -4.8235725674 3.3462573315 0.7387439431
H -3.3647121518 2.9621450933 1.7368698872
H 0.6890142607 -2.5451151976 -0.3604839378
H 0.7357385574 -3.016068336 1.3869050149
H 1.8737130853 -3.7703438214 0.20407984
H 0.0798252774 1.2955678824 1.1280081962
H 0.7868395704 -0.3770998897 1.1390265118
H 0.448381172 0.186584583 -1.6257681555
H -0.6779475956 -0.8280993833 -0.6868105723
$end

$rem
JOBTYPE                   OPT
METHOD                    B3LYP
DFT_D                     d3_op
BASIS                     STO-3G
GEOM_OPT_MAX_CYCLES       100
GEOM_OPT_TOL_GRADIENT     300
GEOM_OPT_TOL_DISPLACEMENT 1200
GEOM_OPT_TOL_ENERGY       100
SYMMETRY                  False
THRESH                    12
SCF_CONVERGENCE           8
MAX_SUB_FILE_NUM          128
MEM_STATIC                400
MEM_TOTAL                 4000
$end
--------------------------------------------------------------

   16   -1510.2321330156      5.93E-09 Convergence criterion met
 Total energy in the final basis set = -1510.23213302
   14   -1510.2380316084      3.01E-09 Convergence criterion met
 Total energy in the final basis set = -1510.23803161
   14   -1510.2444455013      2.50E-09 Convergence criterion met
 Total energy in the final basis set = -1510.24444550
   14   -1510.2490963085      2.28E-09 Convergence criterion met
 Total energy in the final basis set = -1510.24909631
   14   -1510.2528358095      2.57E-09 Convergence criterion met
 Total energy in the final basis set = -1510.25283581
   14   -1510.2556832956      2.74E-09 Convergence criterion met
 Total energy in the final basis set = -1510.25568330
   13   -1510.2578001810      9.63E-09 Convergence criterion met
 Total energy in the final basis set = -1510.25780018
   13   -1510.2597624278      7.09E-09 Convergence criterion met
   11   -1510.2945304257      8.91E-09 Convergence criterion met
 Total energy in the final basis set = -1510.29453043
   11   -1510.2945706825      7.73E-09 Convergence criterion met
 Total energy in the final basis set = -1510.29457068
   11   -1510.2945823505      3.58E-09 Convergence criterion met
 Total energy in the final basis set = -1510.29458235
   11   -1510.2945803320      6.21E-09 Convergence criterion met
 Total energy in the final basis set = -1510.29458033
   10   -1510.2945798730      7.52E-09 Convergence criterion met
 Total energy in the final basis set = -1510.29457987
    9   -1510.2945788264      9.97E-09 Convergence criterion met
 Total energy in the final basis set = -1510.29457883

             Standard Nuclear Orientation (Angstroms)
    I     Atom           X                Y                Z
 ----------------------------------------------------------------
    1      O      -1.0909564540     3.2980679916    -0.0868562116
    2      C      -1.9282568729     2.4024423311    -0.3396074347
    3      C      -1.6021981421     0.8998167447    -0.6559662758
    4      C      -1.4139420775    -0.0154771013     0.6232633841
    5      C      -1.7979189785     0.7180393701     1.9556499713
    6      O      -1.5481632934     0.0618745029     3.2172072478
    7      C      -0.6215625141    -1.0867121671     3.1794837150
    8      C       0.8884035194    -0.6488560933     3.1227174388
    9      O       1.3043162735    -0.5592327745     1.7012665392
   10      C       2.6651654519    -0.1047131743     1.6124342771
   11      C       3.1015730940    -0.0801502179     0.1112116012
   12      C       2.8273631551    -1.4370133148    -0.6677554263
   13      C       2.0556345925    -2.5081678893     0.1823684470
   14      O       0.9365168919    -3.0148702199    -0.0532660300
   15      O      -3.3323421473     2.6413715010    -0.5120460733
   16      O       2.8848220583    -2.8877718589     1.2850544679
   17      O       3.3522816526     0.2158338019     2.6044364645
   18      C       2.2088802296    -3.9307276652     2.0913341504
   19      C       2.2516978166     0.9405322423    -0.7689870022
   20      C       3.0559785379     1.2288340215    -2.0955588374
   21      C       2.8492104749    -0.1224076362    -2.8786742484
   22      C       1.9390118767    -0.9271562450    -1.8720568440
   23      O       1.1120621952     0.1237539805    -1.2365087305
   24      H       4.1745680933     0.1784652343     0.0914274882
   25      H       3.7763264434    -1.8885381627    -1.0104497259
   26      H       1.8854578623     1.8345493519    -0.2270222130
   27      H       2.6084869967     2.0795557606    -2.6337568188
   28      H       4.1170213608     1.4508577198    -1.8994664515
   29      H       2.3187737251     0.0395157237    -3.8305604977
   30      H       3.7971275001    -0.6438753151    -3.0872602839
   31      H       1.2917716060    -1.7066826802    -2.3186351134
   32      O      -2.3815720439     1.8238637302     2.0195960177
   33      C      -3.6472267347     4.0390986088    -0.1482447467
   34      C      -2.7445560078     0.1138364971    -1.4248153865
   35      C      -2.0844021815    -1.1534482114    -2.1004510131
   36      C      -1.8494362150    -2.0793067608    -0.8503743048
   37      C      -2.4486131767    -1.1830249926     0.3040046530
   38      O      -3.5714940801    -0.4686700738    -0.3416912723
   39      H      -0.6463587532     0.8656888504    -1.2158896958
   40      H      -0.3658210204    -0.3689124244     0.6808807334
   41      H      -3.0543180732     4.7635257155    -0.7437479981
   42      H      -3.3686186161     0.7396372727    -2.0908506303
   43      H      -2.7798177239    -1.6141085617    -2.8203493884
   44      H      -1.1499289564    -0.8985755689    -2.6248300199
   45      H      -2.4212006357    -3.0170578082    -0.9357867455
   46      H      -0.7843670464    -2.3258819683    -0.6767181187
   47      H      -2.8127165612    -1.7384807876     1.1903641356
   48      H      -3.4536952973     4.2247353086     0.9282278716
   49      H      -4.7237087097     4.1771901315    -0.3592606761
   50      H       1.1894531317    -3.6178404381     2.3938552868
   51      H       2.8374182030    -4.0799820803     2.9884363060
   52      H       2.1295997347    -4.8853144554     1.5318628117
   53      H       1.0157462313     0.3307563220     3.6335026162
   54      H       1.5198585453    -1.3949442141     3.6525114776
   55      H      -0.8342193999    -1.8017927395     2.3580084987
   56      H      -0.7905738208    -1.6087132996     4.1442397260
 ----------------------------------------------------------------

    9   -1510.2945784530      4.76E-09 Convergence criterion met
 Total energy in the final basis set = -1510.29457845
 Final energy is   -1510.29457845301
 **  OPTIMIZATION CONVERGED  **

                    Orbital Energies (a.u.)
 --------------------------------------------------------------

 Alpha MOs
 -- Occupied --
-18.952 -18.952 -18.928 -18.910 -18.906 -18.895 -18.895 -18.874
-18.869 -18.838 -10.120 -10.117 -10.093 -10.086 -10.085 -10.080
-10.076 -10.075 -10.073 -10.055 -10.053 -10.045 -10.041 -10.039
-10.033 -10.031 -10.013 -10.004 -10.002  -9.994  -1.034  -1.024
 -1.002  -0.990  -0.982  -0.955  -0.954  -0.952  -0.933  -0.907
 -0.780  -0.742  -0.739  -0.725  -0.713  -0.702  -0.688  -0.679
 -0.638  -0.623  -0.600  -0.581  -0.562  -0.552  -0.531  -0.529
 -0.520  -0.505  -0.498  -0.484  -0.473  -0.459  -0.450  -0.443
 -0.439  -0.433  -0.422  -0.420  -0.418  -0.409  -0.404  -0.393
 -0.390  -0.388  -0.381  -0.373  -0.371  -0.366  -0.360  -0.350
 -0.348  -0.341  -0.332  -0.325  -0.323  -0.320  -0.316  -0.314
 -0.313  -0.310  -0.304  -0.297  -0.292  -0.289  -0.285  -0.271
 -0.267  -0.263  -0.253  -0.244  -0.239  -0.227  -0.214  -0.195
 -0.195  -0.175  -0.171  -0.167  -0.163  -0.149  -0.143  -0.129
 -0.122

          Ground-State Mulliken Net Atomic Charges

     Atom                 Charge (a.u.)
  ----------------------------------------
      1 O                    -0.233653
      2 C                     0.211280
      3 C                    -0.093713
      4 C                    -0.097568
      5 C                     0.209943
      6 O                    -0.172760
      7 C                    -0.049282
      8 C                    -0.051145
      9 O                    -0.176696
     10 C                     0.214954
     11 C                    -0.079438
     12 C                    -0.078180
     13 C                     0.219747
     14 O                    -0.212796
     15 O                    -0.170605
     16 O                    -0.170825
     17 O                    -0.202667
     18 C                    -0.128793
     19 C                     0.027083
     20 C                    -0.142798
     21 C                    -0.144145
     22 C                     0.025746
     23 O                    -0.187903
     24 H                     0.090317
     25 H                     0.089311
     26 H                     0.095973
     27 H                     0.083672
     28 H                     0.077312
     29 H                     0.081299
     30 H                     0.076067
     31 H                     0.092023
     32 O                    -0.194860
     33 C                    -0.127129
     34 C                     0.024198
     35 C                    -0.144173
     36 C                    -0.156639
     37 C                     0.020416
     38 O                    -0.191599
     39 H                     0.101959
     40 H                     0.101903
     41 H                     0.083088
     42 H                     0.084682
     43 H                     0.071157
     44 H                     0.069286
     45 H                     0.068843
     46 H                     0.091731
     47 H                     0.072766
     48 H                     0.091388
     49 H                     0.084751
     50 H                     0.088655
     51 H                     0.093639
     52 H                     0.090951
     53 H                     0.099621
     54 H                     0.088656
     55 H                     0.092165
     56 H                     0.092786
  ----------------------------------------
  Sum of atomic charges =    -0.000000

                    Cartesian Multipole Moments
 -----------------------------------------------------------------
    Charge (ESU x 10^10)
                -0.0000
    Dipole Moment (Debye)
         X       4.4569      Y      -3.6041      Z      -1.3066
       Tot       5.8788
    Quadrupole Moments (Debye-Ang)
        XX    -166.1092     XY      -3.2994     YY    -156.0999
        XZ      -2.9207     YZ     -10.9798     ZZ    -154.4799

 Total job time:  238.92s(wall), 11389.11s(cpu)
        *  Thank you very much for using Q-Chem.  Have a nice day.  *
