 Q-Chem 5.0, Q-Chem, Inc., Pleasanton, CA (2017)
 Q-Chem 5.0.1 for Intel X86 EM64T Linux

User input:
--------------------------------------------------------------
$molecule
0  1
O 2.6536247333 2.0394057183 2.3583611996
C 2.6364314079 1.4557063603 1.2496243859
C 3.4987804346 0.1834535958 0.9396099314
C 3.0155996172 -0.9753336463 -0.0264316639
C 1.5112246121 -1.0903062981 -0.4817754418
O 1.323904442 -2.4837400215 -0.7881781532
C 0.1287932078 -3.1285658218 -0.1975272485
C -0.4025649678 -2.5819305767 1.1996809134
O -1.7861265326 -2.0278715209 1.2895998485
C -2.5089010199 -1.6909916651 0.108523806
C -3.5365861193 -0.5412056837 0.4379777104
C -3.1159262869 0.972978103 0.6776414903
C -1.6641865718 1.3762586646 0.2327408712
O -0.6175371763 1.2293549192 0.9016001781
O 2.1179063935 2.0620279012 0.0611116477
O -1.7540628153 1.8838164144 -1.0957884921
O -2.4034759029 -2.2601236362 -1.0063277548
C -0.438881551 2.1997325246 -1.6968071245
C -4.6421593262 -0.3827277245 -0.6979814789
C -5.9902816254 0.0348580067 0.0055596806
C -5.6417395164 1.5052124973 0.4444850632
C -4.2140005061 1.6980901194 -0.2116921305
O -4.2583755402 0.8474658332 -1.4234333558
H -4.02951171 -0.8801137554 1.3699173049
H -3.2162629915 1.2155422912 1.7509721269
H -4.6997689565 -1.242747841 -1.3932306702
H -6.8198778245 0.0180332158 -0.719610604
H -6.2492764112 -0.6180724816 0.8543985763
H -6.3579725065 2.2337408052 0.0330293716
H -5.6098673911 1.6234506096 1.5395856791
H -3.9580094825 2.7407683488 -0.4787134694
O 0.62512371 -0.2231101526 -0.5946698082
C 1.6352952881 3.4256571687 0.4013685838
C 4.7924711424 0.6772387661 0.1392747138
C 5.9088703658 -0.441633793 0.2101477175
C 5.3892380025 -1.4640547319 -0.8669486963
C 4.0163070314 -0.7966371071 -1.2629561838
O 4.3337619667 0.646502607 -1.2657855171
H 3.7783799917 -0.23933661 1.9208843692
H 3.2255805243 -1.9429755234 0.4612863328
H 1.5745902583 3.9805284888 -0.5514673191
H 5.1343229115 1.694339959 0.4132952027
H 6.8922346272 -0.0265193773 -0.0616218161
H 5.9778998634 -0.884460752 1.2166493684
H 6.0599878683 -1.503663814 -1.740210193
H 5.2635031644 -2.483689472 -0.4694821549
H 3.6014830461 -1.1084835222 -2.2411993175
H 2.3322879622 3.9330418074 1.0965158208
H 0.6327613526 3.3748040345 0.8717737379
H -0.3214247844 3.3000672911 -1.756237783
H -0.4468254335 1.7875585566 -2.7241013496
H 0.3920126342 1.7476101084 -1.1147909177
H -0.3798158953 -3.4043916545 1.946297527
H 0.2700786064 -1.7762383766 1.5705483055
H 0.4190213417 -4.192080753 -0.0824509702
H -0.7443434068 -3.0572940497 -0.8952897191
$end

$rem
JOBTYPE                   OPT
METHOD                    B3LYP
DFT_D                     d3_op
BASIS                     STO-3G
GEOM_OPT_MAX_CYCLES       100
GEOM_OPT_TOL_GRADIENT     300
GEOM_OPT_TOL_DISPLACEMENT 1200
GEOM_OPT_TOL_ENERGY       100
SYMMETRY                  False
THRESH                    12
SCF_CONVERGENCE           8
MAX_SUB_FILE_NUM          128
MEM_STATIC                400
MEM_TOTAL                 4000
$end
--------------------------------------------------------------

   16   -1510.2371477889      4.55E-09 Convergence criterion met
 Total energy in the final basis set = -1510.23714779
   15   -1510.2378820341      2.54E-09 Convergence criterion met
 Total energy in the final basis set = -1510.23788203
   13   -1510.2451458748      8.02E-09 Convergence criterion met
 Total energy in the final basis set = -1510.24514587
   15   -1510.2476653998      3.07E-09 Convergence criterion met
 Total energy in the final basis set = -1510.24766540
   14   -1510.2511149143      4.46E-09 Convergence criterion met
 Total energy in the final basis set = -1510.25111491
   14   -1510.2567629184      2.31E-09 Convergence criterion met
 Total energy in the final basis set = -1510.25676292
   14   -1510.2619145026      7.24E-09 Convergence criterion met
 Total energy in the final basis set = -1510.26191450
   14   -1510.2668955091      4.94E-09 Convergence criterion met
   12   -1510.2929795876      4.36E-09 Convergence criterion met
 Total energy in the final basis set = -1510.29297959
   13   -1510.2929864256      1.98E-09 Convergence criterion met
 Total energy in the final basis set = -1510.29298643
   13   -1510.2929839705      2.52E-09 Convergence criterion met
 Total energy in the final basis set = -1510.29298397
   12   -1510.2929856623      6.51E-09 Convergence criterion met
 Total energy in the final basis set = -1510.29298566
   11   -1510.2929876598      9.51E-09 Convergence criterion met
 Total energy in the final basis set = -1510.29298766
   11   -1510.2929929402      2.80E-09 Convergence criterion met
 Total energy in the final basis set = -1510.29299294

             Standard Nuclear Orientation (Angstroms)
    I     Atom           X                Y                Z
 ----------------------------------------------------------------
    1      O      -1.6478624900    -0.2335989483     1.9627319085
    2      C      -2.5332406832    -0.8236076296     1.3009300202
    3      C      -3.7159513319    -0.1321040589     0.5333237815
    4      C      -3.3242654125     1.2974023885    -0.0383901275
    5      C      -1.8020863409     1.6336982878     0.1243551443
    6      O      -1.6247951366     2.6802681737     1.0794436209
    7      C      -0.1712770249     2.9539799095     1.2491252628
    8      C       0.4831330555     1.8472218821     2.1711075234
    9      O       1.9287629650     1.5598156420     1.9586180001
   10      C       2.3363671286     1.4121420059     0.5965777136
   11      C       3.6386751522     0.5346064990     0.5929927109
   12      C       3.3142332891    -1.0154210173     0.3972194364
   13      C       1.7715108047    -1.2886542404     0.2383777060
   14      O       0.9497191064    -1.3495275724     1.1863684582
   15      O      -2.6181890618    -2.2346101491     1.1657358531
   16      O       1.4475595167    -1.4399048111    -1.1321314087
   17      O       1.7945433210     1.9120512619    -0.4177634891
   18      C      -0.0235272592    -1.5413375060    -1.3332317427
   19      C       4.5507958390     0.8084839355    -0.6738293041
   20      C       5.9776972609     0.1931372853    -0.3934673236
   21      C       5.6795246084    -1.3442981181    -0.5520143917
   22      C       4.1416413545    -1.3235148250    -0.9184071328
   23      O       3.9882391158    -0.0832650199    -1.7134988303
   24      H       4.1750570189     0.7037778660     1.5435815518
   25      H       3.6718206263    -1.5972104023     1.2657396555
   26      H       4.5427922077     1.8589917956    -1.0232847112
   27      H       6.7020505628     0.5432144586    -1.1462264345
   28      H       6.3556409024     0.4533773361     0.6082538234
   29      H       6.2641723589    -1.7868163812    -1.3739717955
   30      H       5.8791420258    -1.9137697658     0.3699766128
   31      H       3.7777783586    -2.1977748959    -1.4906964234
   32      O      -0.8591198652     1.1237096760    -0.5260635794
   33      C      -1.4761527602    -2.8779887945     1.8689232201
   34      C      -4.1449815534    -0.8895452780    -0.7942783180
   35      C      -5.5756312468    -0.3757091305    -1.2169389588
   36      C      -5.2333094468     1.0640296841    -1.7527003625
   37      C      -3.6637634261     1.0920314266    -1.5767254447
   38      O      -3.2527109946    -0.3093690508    -1.8242549046
   39      H      -4.5671241338    -0.0486527234     1.2350272830
   40      H      -3.9219921765     2.0996897806     0.4274933834
   41      H      -1.4538789847    -3.9234007378     1.5107346120
   42      H      -4.0211910267    -1.9882413266    -0.7418032640
   43      H      -5.9914650533    -1.0135688669    -2.0130771201
   44      H      -6.2811178110    -0.3609856653    -0.3709323897
   45      H      -5.5050895137     1.1759553245    -2.8142933709
   46      H      -5.7276199228     1.8615775208    -1.1752567881
   47      H      -3.1226027790     1.7769130666    -2.2577641964
   48      H      -1.6394805968    -2.8699695638     2.9654812194
   49      H      -0.5205725265    -2.3486452147     1.6297058259
   50      H      -0.4543910832    -2.3844765491    -0.7588653447
   51      H      -0.1582889886    -1.7278343641    -2.4136960804
   52      H      -0.5204557271    -0.5800524397    -1.0490478442
   53      H       0.4179616766     2.1406198361     3.2380929897
   54      H      -0.0987255274     0.9024371547     2.0403705511
   55      H      -0.1022514648     3.9609396848     1.7022778344
   56      H       0.3617114350     2.9040697218     0.2717917021
 ----------------------------------------------------------------

   11   -1510.2929927888      2.35E-09 Convergence criterion met
 Total energy in the final basis set = -1510.29299279
 Final energy is   -1510.29299278877
 **  OPTIMIZATION CONVERGED  **

                    Orbital Energies (a.u.)
 --------------------------------------------------------------

 Alpha MOs
 -- Occupied --
-18.938 -18.931 -18.931 -18.924 -18.888 -18.881 -18.879 -18.877
-18.872 -18.869 -10.104 -10.099 -10.097 -10.097 -10.061 -10.059
-10.053 -10.053 -10.049 -10.047 -10.043 -10.040 -10.038 -10.033
-10.033 -10.030 -10.021 -10.020 -10.016 -10.014  -1.016  -1.008
 -1.005  -0.999  -0.971  -0.962  -0.938  -0.934  -0.929  -0.929
 -0.764  -0.757  -0.724  -0.718  -0.709  -0.702  -0.686  -0.654
 -0.644  -0.612  -0.592  -0.577  -0.545  -0.541  -0.537  -0.531
 -0.511  -0.504  -0.477  -0.468  -0.460  -0.455  -0.453  -0.438
 -0.434  -0.428  -0.428  -0.417  -0.407  -0.405  -0.394  -0.388
 -0.382  -0.375  -0.370  -0.360  -0.358  -0.355  -0.351  -0.348
 -0.339  -0.334  -0.330  -0.325  -0.324  -0.321  -0.318  -0.312
 -0.305  -0.304  -0.300  -0.296  -0.288  -0.282  -0.277  -0.276
 -0.269  -0.264  -0.250  -0.240  -0.235  -0.228  -0.226  -0.183
 -0.177  -0.169  -0.161  -0.159  -0.148  -0.147  -0.145  -0.137
 -0.136

          Ground-State Mulliken Net Atomic Charges

     Atom                 Charge (a.u.)
  ----------------------------------------
      1 O                    -0.214651
      2 C                     0.216587
      3 C                    -0.078860
      4 C                    -0.080339
      5 C                     0.217016
      6 O                    -0.168049
      7 C                    -0.070738
      8 C                    -0.065077
      9 O                    -0.173678
     10 C                     0.211956
     11 C                    -0.078077
     12 C                    -0.077333
     13 C                     0.212288
     14 O                    -0.222858
     15 O                    -0.170023
     16 O                    -0.161064
     17 O                    -0.199543
     18 C                    -0.145462
     19 C                     0.025024
     20 C                    -0.143916
     21 C                    -0.144630
     22 C                     0.025679
     23 O                    -0.184026
     24 H                     0.085169
     25 H                     0.083298
     26 H                     0.085112
     27 H                     0.077006
     28 H                     0.072330
     29 H                     0.077002
     30 H                     0.071915
     31 H                     0.088015
     32 O                    -0.215632
     33 C                    -0.147400
     34 C                     0.022990
     35 C                    -0.143611
     36 C                    -0.144381
     37 C                     0.025753
     38 O                    -0.188920
     39 H                     0.085623
     40 H                     0.086461
     41 H                     0.081508
     42 H                     0.092144
     43 H                     0.078407
     44 H                     0.073375
     45 H                     0.078672
     46 H                     0.073966
     47 H                     0.085883
     48 H                     0.080435
     49 H                     0.121658
     50 H                     0.077176
     51 H                     0.087265
     52 H                     0.120277
     53 H                     0.082413
     54 H                     0.115009
     55 H                     0.081282
     56 H                     0.119569
  ----------------------------------------
  Sum of atomic charges =    -0.000000

                    Cartesian Multipole Moments
 -----------------------------------------------------------------
    Charge (ESU x 10^10)
                 0.0000
    Dipole Moment (Debye)
         X      -1.1650      Y      -0.5876      Z       1.5013
       Tot       1.9891
    Quadrupole Moments (Debye-Ang)
        XX    -135.7733     XY      -3.5978     YY    -152.9571
        XZ       4.7466     YZ      -0.1774     ZZ    -165.5567

 Total job time:  208.18s(wall), 9934.14s(cpu)
        *  Thank you very much for using Q-Chem.  Have a nice day.  *
