 Q-Chem 5.0, Q-Chem, Inc., Pleasanton, CA (2017)
 Q-Chem 5.0.1 for Intel X86 EM64T Linux

User input:
--------------------------------------------------------------
$molecule
0  1
O -3.94934 -3.66094 2.70899
C -3.26408 -4.56952 2.26188
C -3.36658 -6.02376 2.66595
C -3.08097 -7.07601 1.58195
C -2.55178 -6.55872 0.26269
O -2.86994 -7.431 -0.73897
C -3.45174 -6.79079 -1.87953
C -4.22465 -5.54885 -1.44786
O -3.66757 -4.38309 -2.0752
C -2.4407 -4.54886 -2.62878
C -1.6338 -3.2728 -2.66395
C -1.07244 -2.82428 -1.30675
C -1.08713 -3.86802 -0.20807
O -2.03921 -4.12215 0.51548
O -1.98509 -4.24812 2.70937
O 0.18041 -4.28963 0.12169
O -2.2532 -5.28076 -3.58957
C 0.71273 -4.93834 1.21924
C -0.3326 -3.30268 -3.51081
C -0.0004 -1.88756 -3.97975
C 0.40212 -1.24656 -2.6703
C 0.37169 -2.47153 -1.74758
O 0.69656 -3.54998 -2.5879
H -2.30451 -2.50311 -3.11101
H -1.58813 -1.92859 -0.89581
H -0.36817 -3.97842 -4.39189
H 0.90204 -1.96971 -4.6279
H -0.80091 -1.358 -4.53978
H 1.43514 -0.84768 -2.77956
H -0.27926 -0.45019 -2.30021
H 1.05281 -2.29601 -0.88608
O -1.35745 -6.36824 0.27913
C -1.50077 -3.01365 3.1329
C -2.40564 -6.55294 3.77786
C -2.9931 -7.79136 4.45807
C -2.78884 -8.83077 3.3787
C -2.07746 -7.99153 2.31643
O -1.31303 -7.08461 3.0703
H -4.39366 -6.12459 3.08438
H -4.02043 -7.6263 1.34278
H -0.42814 -3.11347 3.39573
H -2.17014 -5.79481 4.55682
H -2.33617 -8.04799 5.32015
H -4.0381 -7.67267 4.81602
H -2.09252 -9.60835 3.76555
H -3.71548 -9.31083 2.99703
H -1.51504 -8.64992 1.61837
H -2.04954 -2.67203 4.03592
H -1.60303 -2.25886 2.32482
H 1.48385 -4.28977 1.68225
H 1.20233 -5.87571 0.88274
H -0.02892 -5.19439 1.98135
H -5.22803 -5.62252 -1.92792
H -4.50426 -5.38305 -0.38622
H -4.3096 -7.48305 -2.03626
H -3.00067 -7.11802 -2.82942
$end

$opt
CONSTRAINT
tors           1           2           3           4    +146.662
tors           3           4           5           6    -154.432
tors           4           5           6           7    +131.415
tors           5           6           7           8     -30.301
tors           6           7           8           9    +119.599
tors           7           8           9          10     -14.960
tors           8           9          10          11    -152.227
tors           9          10          11          12     +74.015
tors          11          12          13          14     -84.120
ENDCONSTRAINT
$end

$rem
JOBTYPE                   OPT
METHOD                    B3LYP
DFT_D                     d3_op
BASIS                     STO-3G
GEOM_OPT_MAX_CYCLES       100
GEOM_OPT_TOL_GRADIENT     300
GEOM_OPT_TOL_DISPLACEMENT 1200
GEOM_OPT_TOL_ENERGY       100
SYMMETRY                  False
THRESH                    12
SCF_CONVERGENCE           8
MAX_SUB_FILE_NUM          128
MEM_STATIC                400
MEM_TOTAL                 4000
$end
--------------------------------------------------------------

   16   -1509.8897771503      7.81E-09 Convergence criterion met
 Total energy in the final basis set = -1509.88977715
   15   -1509.9763619756      8.07E-09 Convergence criterion met
 Total energy in the final basis set = -1509.97636198
   14   -1510.0489984490      9.42E-09 Convergence criterion met
 Total energy in the final basis set = -1510.04899845
    2   -1510.0489984488      4.19E-09 Convergence criterion met
 Total energy in the final basis set = -1510.04899845
   15   -1510.1015731720      2.87E-09 Convergence criterion met
 Total energy in the final basis set = -1510.10157317
   15   -1510.1377379331      2.48E-09 Convergence criterion met
 Total energy in the final basis set = -1510.13773793
   15   -1510.1629285829      3.27E-09 Convergence criterion met
 Total energy in the final basis set = -1510.16292858
   14   -1510.1790858400      7.83E-09 Convergence criterion met
   10   -1510.2373674712      7.84E-09 Convergence criterion met
 Total energy in the final basis set = -1510.23736747
   10   -1510.2373702749      8.53E-09 Convergence criterion met
 Total energy in the final basis set = -1510.23737027
    9   -1510.2373729400      6.48E-09 Convergence criterion met
 Total energy in the final basis set = -1510.23737294
    9   -1510.2373755540      8.33E-09 Convergence criterion met
 Total energy in the final basis set = -1510.23737555
    9   -1510.2373775468      5.14E-09 Convergence criterion met
 Total energy in the final basis set = -1510.23737755
    9   -1510.2373788098      5.87E-09 Convergence criterion met
 Total energy in the final basis set = -1510.23737881

             Standard Nuclear Orientation (Angstroms)
    I     Atom           X                Y                Z
 ----------------------------------------------------------------
    1      O       2.6536247333     2.0394057183     2.3583611996
    2      C       2.6364314079     1.4557063603     1.2496243859
    3      C       3.4987804346     0.1834535958     0.9396099314
    4      C       3.0155996172    -0.9753336463    -0.0264316639
    5      C       1.5112246121    -1.0903062981    -0.4817754418
    6      O       1.3239044420    -2.4837400215    -0.7881781532
    7      C       0.1287932078    -3.1285658218    -0.1975272485
    8      C      -0.4025649678    -2.5819305767     1.1996809134
    9      O      -1.7861265326    -2.0278715209     1.2895998485
   10      C      -2.5089010199    -1.6909916651     0.1085238060
   11      C      -3.5365861193    -0.5412056837     0.4379777104
   12      C      -3.1159262869     0.9729781030     0.6776414903
   13      C      -1.6641865718     1.3762586646     0.2327408712
   14      O      -0.6175371763     1.2293549192     0.9016001781
   15      O       2.1179063935     2.0620279012     0.0611116477
   16      O      -1.7540628153     1.8838164144    -1.0957884921
   17      O      -2.4034759029    -2.2601236362    -1.0063277548
   18      C      -0.4388815510     2.1997325246    -1.6968071245
   19      C      -4.6421593262    -0.3827277245    -0.6979814789
   20      C      -5.9902816254     0.0348580067     0.0055596806
   21      C      -5.6417395164     1.5052124973     0.4444850632
   22      C      -4.2140005061     1.6980901194    -0.2116921305
   23      O      -4.2583755402     0.8474658332    -1.4234333558
   24      H      -4.0295117100    -0.8801137554     1.3699173049
   25      H      -3.2162629915     1.2155422912     1.7509721269
   26      H      -4.6997689565    -1.2427478410    -1.3932306702
   27      H      -6.8198778245     0.0180332158    -0.7196106040
   28      H      -6.2492764112    -0.6180724816     0.8543985763
   29      H      -6.3579725065     2.2337408052     0.0330293716
   30      H      -5.6098673911     1.6234506096     1.5395856791
   31      H      -3.9580094825     2.7407683488    -0.4787134694
   32      O       0.6251237100    -0.2231101526    -0.5946698082
   33      C       1.6352952881     3.4256571687     0.4013685838
   34      C       4.7924711424     0.6772387661     0.1392747138
   35      C       5.9088703658    -0.4416337930     0.2101477175
   36      C       5.3892380025    -1.4640547319    -0.8669486963
   37      C       4.0163070314    -0.7966371071    -1.2629561838
   38      O       4.3337619667     0.6465026070    -1.2657855171
   39      H       3.7783799917    -0.2393366100     1.9208843692
   40      H       3.2255805243    -1.9429755234     0.4612863328
   41      H       1.5745902583     3.9805284888    -0.5514673191
   42      H       5.1343229115     1.6943399590     0.4132952027
   43      H       6.8922346272    -0.0265193773    -0.0616218161
   44      H       5.9778998634    -0.8844607520     1.2166493684
   45      H       6.0599878683    -1.5036638140    -1.7402101930
   46      H       5.2635031644    -2.4836894720    -0.4694821549
   47      H       3.6014830461    -1.1084835222    -2.2411993175
   48      H       2.3322879622     3.9330418074     1.0965158208
   49      H       0.6327613526     3.3748040345     0.8717737379
   50      H      -0.3214247844     3.3000672911    -1.7562377830
   51      H      -0.4468254335     1.7875585566    -2.7241013496
   52      H       0.3920126342     1.7476101084    -1.1147909177
   53      H      -0.3798158953    -3.4043916545     1.9462975270
   54      H       0.2700786064    -1.7762383766     1.5705483055
   55      H       0.4190213417    -4.1920807530    -0.0824509702
   56      H      -0.7443434068    -3.0572940497    -0.8952897191
 ----------------------------------------------------------------

    9   -1510.2373794431      3.36E-09 Convergence criterion met
 Total energy in the final basis set = -1510.23737944
 Final energy is   -1510.23737944313
 **  OPTIMIZATION CONVERGED  **

                    Orbital Energies (a.u.)
 --------------------------------------------------------------

 Alpha MOs
 -- Occupied --
-18.934 -18.933 -18.919 -18.908 -18.897 -18.892 -18.887 -18.880
-18.865 -18.862 -10.112 -10.107 -10.094 -10.088 -10.079 -10.062
-10.062 -10.060 -10.053 -10.053 -10.051 -10.039 -10.037 -10.034
-10.034 -10.033 -10.022 -10.021 -10.015 -10.014  -1.013  -1.008
 -1.004  -0.995  -0.974  -0.963  -0.943  -0.937  -0.927  -0.923
 -0.763  -0.758  -0.724  -0.720  -0.713  -0.704  -0.694  -0.656
 -0.644  -0.623  -0.597  -0.585  -0.545  -0.540  -0.537  -0.532
 -0.515  -0.508  -0.477  -0.473  -0.459  -0.454  -0.443  -0.435
 -0.432  -0.431  -0.426  -0.416  -0.410  -0.407  -0.399  -0.390
 -0.387  -0.374  -0.368  -0.366  -0.361  -0.354  -0.350  -0.347
 -0.343  -0.338  -0.332  -0.331  -0.325  -0.323  -0.319  -0.316
 -0.310  -0.309  -0.301  -0.298  -0.295  -0.288  -0.278  -0.271
 -0.269  -0.257  -0.248  -0.237  -0.231  -0.227  -0.225  -0.178
 -0.176  -0.172  -0.160  -0.156  -0.148  -0.146  -0.144  -0.137
 -0.134

          Ground-State Mulliken Net Atomic Charges

     Atom                 Charge (a.u.)
  ----------------------------------------
      1 O                    -0.216885
      2 C                     0.212034
      3 C                    -0.079882
      4 C                    -0.080767
      5 C                     0.216260
      6 O                    -0.194501
      7 C                    -0.068968
      8 C                    -0.051028
      9 O                    -0.177072
     10 C                     0.220545
     11 C                    -0.079220
     12 C                    -0.076591
     13 C                     0.210224
     14 O                    -0.214699
     15 O                    -0.158669
     16 O                    -0.168313
     17 O                    -0.204277
     18 C                    -0.142598
     19 C                     0.023417
     20 C                    -0.143043
     21 C                    -0.146089
     22 C                     0.027457
     23 O                    -0.184847
     24 H                     0.082466
     25 H                     0.082697
     26 H                     0.087917
     27 H                     0.076921
     28 H                     0.071424
     29 H                     0.076685
     30 H                     0.071536
     31 H                     0.086875
     32 O                    -0.185250
     33 C                    -0.128558
     34 C                     0.026811
     35 C                    -0.144876
     36 C                    -0.142499
     37 C                     0.027338
     38 O                    -0.185527
     39 H                     0.084691
     40 H                     0.084658
     41 H                     0.087359
     42 H                     0.082786
     43 H                     0.078608
     44 H                     0.074319
     45 H                     0.078607
     46 H                     0.075119
     47 H                     0.086057
     48 H                     0.091075
     49 H                     0.092853
     50 H                     0.071845
     51 H                     0.084146
     52 H                     0.124612
     53 H                     0.088457
     54 H                     0.091278
     55 H                     0.084251
     56 H                     0.112832
  ----------------------------------------
  Sum of atomic charges =     0.000000

                    Cartesian Multipole Moments
 -----------------------------------------------------------------
    Charge (ESU x 10^10)
                -0.0000
    Dipole Moment (Debye)
         X       0.7246      Y      -1.1455      Z       1.8394
       Tot       2.2849
    Quadrupole Moments (Debye-Ang)
        XX    -144.3026     XY      -5.5136     YY    -150.9028
        XZ      -6.2861     YZ      -4.9100     ZZ    -168.2587

 Total job time:  120.78s(wall), 5761.60s(cpu)
        *  Thank you very much for using Q-Chem.  Have a nice day.  *
