 Q-Chem 5.0, Q-Chem, Inc., Pleasanton, CA (2017)
 Q-Chem 5.0.1 for Intel X86 EM64T Linux

User input:
--------------------------------------------------------------
$molecule
0  1
O -3.94934 -3.66094 2.70899
C -3.26408 -4.56952 2.26188
C -3.36658 -6.02376 2.66595
C -2.12857 -6.90591 2.43573
C -0.86813 -6.19676 1.99248
O -0.78167 -6.21261 0.62951
C -0.26378 -4.99468 0.0839
C -0.79413 -3.79959 0.86913
O -0.18877 -3.76179 2.17105
C -0.11565 -2.53513 2.74473
C 0.5957 -2.55003 4.0768
C 1.87239 -3.4024 4.11935
C 2.4387 -3.81181 2.77459
O 3.42167 -3.31947 2.23987
O -3.32217 -4.65738 0.8971
O 2.21529 -5.09877 2.42744
O -0.42238 -1.49616 2.1716
C 2.99212 -5.83564 1.54897
C 1.12565 -1.18864 4.56368
C 1.26751 -1.21029 6.08483
C 2.45339 -2.13925 6.24564
C 2.82097 -2.3756 4.77613
O 2.46578 -1.17069 4.13903
H -0.15295 -2.94387 4.80084
H 1.76318 -4.31988 4.74049
H 0.49717 -0.32665 4.25186
H 1.57305 -0.18682 6.40024
H 0.35347 -1.5075 6.64271
H 3.26491 -1.58354 6.76609
H 2.24334 -3.09303 6.77635
H 3.88921 -2.67519 4.69458
O 0.1128 -6.18727 2.7092
C -4.10455 -3.87434 0.0621
C -3.49758 -6.15762 4.20381
C -4.17564 -7.48068 4.55558
C -3.07373 -8.45704 4.2139
C -1.94544 -7.48205 3.85769
O -2.18687 -6.36069 4.66663
H -4.30417 -6.43728 2.22452
H -2.33139 -7.72477 1.7085
H -3.87489 -2.79566 0.19499
H -4.05436 -5.3207 4.67944
H -4.32343 -7.48586 5.6596
H -5.1507 -7.67031 4.05733
H -2.82228 -9.03676 5.12984
H -3.29539 -9.14999 3.37352
H -0.96325 -7.98527 3.99598
H -5.1794 -4.04981 0.27855
H -3.90205 -4.156 -0.99157
H 2.54672 -6.84373 1.42327
H 4.0196 -5.94853 1.95515
H 3.04733 -5.33813 0.55772
H -0.26745 -3.01633 0.27403
H -1.73723 -3.28308 0.80961
H -0.55655 -4.92368 -0.98559
H 0.84013 -5.0157 0.12627
$end

$opt
CONSTRAINT
tors           1           2           3           4    -157.039
tors           3           4           5           6     -93.786
tors           4           5           6           7    +141.676
tors           5           6           7           8     -37.960
tors           6           7           8           9     +70.951
tors           7           8           9          10    +153.753
tors           8           9          10          11    -176.921
tors           9          10          11          12     +43.108
tors          11          12          13          14    +104.211
ENDCONSTRAINT
$end

$rem
JOBTYPE                   OPT
METHOD                    B3LYP
DFT_D                     d3_op
BASIS                     STO-3G
GEOM_OPT_MAX_CYCLES       100
GEOM_OPT_TOL_GRADIENT     300
GEOM_OPT_TOL_DISPLACEMENT 1200
GEOM_OPT_TOL_ENERGY       100
SYMMETRY                  False
THRESH                    12
SCF_CONVERGENCE           8
MAX_SUB_FILE_NUM          128
MEM_STATIC                400
MEM_TOTAL                 4000
$end
--------------------------------------------------------------

   16   -1510.0340847083      3.52E-09 Convergence criterion met
 Total energy in the final basis set = -1510.03408471
   15   -1510.1149016858      3.15E-09 Convergence criterion met
 Total energy in the final basis set = -1510.11490169
   15   -1510.1654628327      1.84E-09 Convergence criterion met
 Total energy in the final basis set = -1510.16546283
   14   -1510.1964293112      5.17E-09 Convergence criterion met
 Total energy in the final basis set = -1510.19642931
   14   -1510.2151869276      4.91E-09 Convergence criterion met
 Total energy in the final basis set = -1510.21518693
   14   -1510.2280099949      5.51E-09 Convergence criterion met
 Total energy in the final basis set = -1510.22800999
   13   -1510.2371058567      4.98E-09 Convergence criterion met
 Total energy in the final basis set = -1510.23710586
   13   -1510.2435962057      8.12E-09 Convergence criterion met
   11   -1510.2519574283      6.42E-09 Convergence criterion met
 Total energy in the final basis set = -1510.25195743
   11   -1510.2519625174      2.28E-09 Convergence criterion met
 Total energy in the final basis set = -1510.25196252
    9   -1510.2519676393      7.79E-09 Convergence criterion met
 Total energy in the final basis set = -1510.25196764
    9   -1510.2519698932      5.61E-09 Convergence criterion met
 Total energy in the final basis set = -1510.25196989
   10   -1510.2519717250      4.42E-09 Convergence criterion met
 Total energy in the final basis set = -1510.25197173
    9   -1510.2519727996      8.71E-09 Convergence criterion met
 Total energy in the final basis set = -1510.25197280

             Standard Nuclear Orientation (Angstroms)
    I     Atom           X                Y                Z
 ----------------------------------------------------------------
    1      O       3.1462903225     1.1471642006     2.5174680650
    2      C       3.1274854182     0.2936813094     1.6037445110
    3      C       3.6851498312     0.5331268167     0.1573605783
    4      C       3.2417711860    -0.2745452385    -1.1390716214
    5      C       1.8212511392    -0.9671321169    -1.2022344131
    6      O       1.9148070272    -2.3371531221    -0.7842517555
    7      C       0.7826524478    -2.8491484737     0.0298423142
    8      C       0.1441913649    -1.8794785046     1.0770859167
    9      O      -0.6380143231    -0.7814867922     0.4454047233
   10      C      -1.6387327354    -0.3512206272     1.3759175079
   11      C      -2.5788732134     0.7588347741     0.7838627638
   12      C      -3.1448142516     0.6534650859    -0.6986489426
   13      C      -2.9994038734    -0.7264015575    -1.4380336230
   14      O      -3.9059497866    -1.5658629833    -1.6381692219
   15      O       2.8591258570    -1.0981941861     1.8480082811
   16      O      -1.6998998218    -0.8100297528    -2.0165635252
   17      O      -1.7386822064    -0.8088831919     2.5384493423
   18      C      -1.5701725008    -2.0573904998    -2.8028095825
   19      C      -3.9217698850     0.8824027000     1.6238821753
   20      C      -4.4269141330     2.3721167788     1.5162595032
   21      C      -4.9079760361     2.4104321761     0.0179500225
   22      C      -4.6864540536     0.9071204651    -0.4188289719
   23      O      -4.9164744282     0.1329835444     0.8237233378
   24      H      -2.0065135413     1.7038654623     0.8604994083
   25      H      -2.6872413681     1.4307078444    -1.3366583871
   26      H      -3.8404617463     0.4640806113     2.6463594525
   27      H      -5.2632770196     2.5447098505     2.2124424574
   28      H      -3.6312879328     3.1036946104     1.7297740943
   29      H      -5.9717021915     2.6848857574    -0.0617978527
   30      H      -4.3170003932     3.1075741978    -0.5976671701
   31      H      -5.3509819165     0.5410747334    -1.2251146001
   32      O       0.7837017435    -0.4162059831    -1.6227433465
   33      C       2.7533259715    -1.3314935749     3.3132240242
   34      C       3.5178628854     2.0409650768    -0.3298190535
   35      C       4.8196572985     2.4237283729    -1.1315239541
   36      C       4.6354502024     1.5301210807    -2.4150897687
   37      C       3.1913627734     0.9317670360    -2.1760920862
   38      O       2.4893924926     1.9747397262    -1.3899022381
   39      H       4.7677843600     0.3304685517     0.2838483081
   40      H       4.0067703892    -1.0316882432    -1.3897089804
   41      H       1.9270030737    -0.7478078106     3.7668207117
   42      H       3.2183769981     2.7401957603     0.4754173523
   43      H       4.8106359713     3.4961165688    -1.3845326327
   44      H       5.7438327843     2.1979167477    -0.5758783209
   45      H       4.6565165130     2.1322773588    -3.3369043024
   46      H       5.3996054076     0.7400595469    -2.4944564700
   47      H       2.6204684251     0.7001254750    -3.0957247978
   48      H       3.6983147466    -1.0679248537     3.8287957187
   49      H       2.5524957238    -2.4118491876     3.4317222424
   50      H      -0.5041087128    -2.1177312835    -3.0878688720
   51      H      -2.2014562346    -2.0291632643    -3.7150495019
   52      H      -1.8533632884    -2.9506182740    -2.2101581906
   53      H      -0.5028858683    -2.4564574268     1.7706712587
   54      H       0.9893594463    -1.4356112604     1.6455897751
   55      H       1.2159842507    -3.7048694505     0.5890808325
   56      H      -0.0149907130    -3.2476429830    -0.6386723017
 ----------------------------------------------------------------

    9   -1510.2519731433      4.24E-09 Convergence criterion met
 Total energy in the final basis set = -1510.25197314
 Final energy is   -1510.25197314330
 **  OPTIMIZATION CONVERGED  **

                    Orbital Energies (a.u.)
 --------------------------------------------------------------

 Alpha MOs
 -- Occupied --
-18.951 -18.932 -18.926 -18.914 -18.889 -18.887 -18.884 -18.878
-18.867 -18.859 -10.112 -10.097 -10.094 -10.086 -10.074 -10.074
-10.059 -10.059 -10.058 -10.054 -10.050 -10.049 -10.045 -10.038
-10.031 -10.029 -10.021 -10.020 -10.013 -10.012  -1.024  -1.010
 -0.999  -0.999  -0.970  -0.961  -0.948  -0.933  -0.930  -0.922
 -0.764  -0.754  -0.725  -0.717  -0.709  -0.703  -0.694  -0.672
 -0.654  -0.617  -0.597  -0.581  -0.546  -0.539  -0.533  -0.530
 -0.514  -0.503  -0.476  -0.473  -0.465  -0.456  -0.453  -0.441
 -0.434  -0.427  -0.422  -0.421  -0.415  -0.408  -0.404  -0.400
 -0.384  -0.381  -0.374  -0.365  -0.359  -0.356  -0.354  -0.350
 -0.342  -0.336  -0.332  -0.330  -0.326  -0.325  -0.321  -0.315
 -0.307  -0.304  -0.298  -0.296  -0.287  -0.284  -0.278  -0.272
 -0.266  -0.263  -0.248  -0.238  -0.234  -0.229  -0.226  -0.195
 -0.172  -0.166  -0.163  -0.161  -0.154  -0.145  -0.141  -0.138
 -0.135

          Ground-State Mulliken Net Atomic Charges

     Atom                 Charge (a.u.)
  ----------------------------------------
      1 O                    -0.207977
      2 C                     0.209694
      3 C                    -0.079354
      4 C                    -0.077588
      5 C                     0.210767
      6 O                    -0.186590
      7 C                    -0.043506
      8 C                    -0.068239
      9 O                    -0.160133
     10 C                     0.204447
     11 C                    -0.078371
     12 C                    -0.077061
     13 C                     0.206308
     14 O                    -0.217966
     15 O                    -0.167276
     16 O                    -0.151829
     17 O                    -0.221374
     18 C                    -0.125868
     19 C                     0.022523
     20 C                    -0.143047
     21 C                    -0.145467
     22 C                     0.025040
     23 O                    -0.189503
     24 H                     0.084924
     25 H                     0.088148
     26 H                     0.090171
     27 H                     0.076881
     28 H                     0.072425
     29 H                     0.076779
     30 H                     0.072706
     31 H                     0.086815
     32 O                    -0.179314
     33 C                    -0.130659
     34 C                     0.023834
     35 C                    -0.142223
     36 C                    -0.146478
     37 C                     0.025780
     38 O                    -0.186254
     39 H                     0.085818
     40 H                     0.083949
     41 H                     0.095831
     42 H                     0.089169
     43 H                     0.078397
     44 H                     0.072513
     45 H                     0.078288
     46 H                     0.072399
     47 H                     0.085861
     48 H                     0.090996
     49 H                     0.093023
     50 H                     0.092303
     51 H                     0.084216
     52 H                     0.084639
     53 H                     0.094427
     54 H                     0.096274
     55 H                     0.089707
     56 H                     0.081025
  ----------------------------------------
  Sum of atomic charges =     0.000000

                    Cartesian Multipole Moments
 -----------------------------------------------------------------
    Charge (ESU x 10^10)
                 0.0000
    Dipole Moment (Debye)
         X       3.9975      Y      -0.0464      Z      -0.1680
       Tot       4.0013
    Quadrupole Moments (Debye-Ang)
        XX    -158.0032     XY     -10.6915     YY    -155.1944
        XZ       1.3754     YZ      -2.3860     ZZ    -156.9706

 Total job time:  65.78s(wall), 3135.40s(cpu)
        *  Thank you very much for using Q-Chem.  Have a nice day.  *
