 Q-Chem 5.0, Q-Chem, Inc., Pleasanton, CA (2017)
 Q-Chem 5.0.1 for Intel X86 EM64T Linux

User input:
--------------------------------------------------------------
$molecule
0  1
O 3.1462903225 1.1471642006 2.517468065
C 3.1274854182 0.2936813094 1.603744511
C 3.6851498312 0.5331268167 0.1573605783
C 3.241771186 -0.2745452385 -1.1390716214
C 1.8212511392 -0.9671321169 -1.2022344131
O 1.9148070272 -2.3371531221 -0.7842517555
C 0.7826524478 -2.8491484737 0.0298423142
C 0.1441913649 -1.8794785046 1.0770859167
O -0.6380143231 -0.7814867922 0.4454047233
C -1.6387327354 -0.3512206272 1.3759175079
C -2.5788732134 0.7588347741 0.7838627638
C -3.1448142516 0.6534650859 -0.6986489426
C -2.9994038734 -0.7264015575 -1.438033623
O -3.9059497866 -1.5658629833 -1.6381692219
O 2.859125857 -1.0981941861 1.8480082811
O -1.6998998218 -0.8100297528 -2.0165635252
O -1.7386822064 -0.8088831919 2.5384493423
C -1.5701725008 -2.0573904998 -2.8028095825
C -3.921769885 0.8824027 1.6238821753
C -4.426914133 2.3721167788 1.5162595032
C -4.9079760361 2.4104321761 0.0179500225
C -4.6864540536 0.9071204651 -0.4188289719
O -4.9164744282 0.1329835444 0.8237233378
H -2.0065135413 1.7038654623 0.8604994083
H -2.6872413681 1.4307078444 -1.3366583871
H -3.8404617463 0.4640806113 2.6463594525
H -5.2632770196 2.5447098505 2.2124424574
H -3.6312879328 3.1036946104 1.7297740943
H -5.9717021915 2.6848857574 -0.0617978527
H -4.3170003932 3.1075741978 -0.5976671701
H -5.3509819165 0.5410747334 -1.2251146001
O 0.7837017435 -0.4162059831 -1.6227433465
C 2.7533259715 -1.3314935749 3.3132240242
C 3.5178628854 2.0409650768 -0.3298190535
C 4.8196572985 2.4237283729 -1.1315239541
C 4.6354502024 1.5301210807 -2.4150897687
C 3.1913627734 0.931767036 -2.1760920862
O 2.4893924926 1.9747397262 -1.3899022381
H 4.76778436 0.3304685517 0.2838483081
H 4.0067703892 -1.0316882432 -1.3897089804
H 1.9270030737 -0.7478078106 3.7668207117
H 3.2183769981 2.7401957603 0.4754173523
H 4.8106359713 3.4961165688 -1.3845326327
H 5.7438327843 2.1979167477 -0.5758783209
H 4.656516513 2.1322773588 -3.3369043024
H 5.3996054076 0.7400595469 -2.49445647
H 2.6204684251 0.700125475 -3.0957247978
H 3.6983147466 -1.0679248537 3.8287957187
H 2.5524957238 -2.4118491876 3.4317222424
H -0.5041087128 -2.1177312835 -3.087868872
H -2.2014562346 -2.0291632643 -3.7150495019
H -1.8533632884 -2.950618274 -2.2101581906
H -0.5028858683 -2.4564574268 1.7706712587
H 0.9893594463 -1.4356112604 1.6455897751
H 1.2159842507 -3.7048694505 0.5890808325
H -0.014990713 -3.247642983 -0.6386723017
$end

$rem
JOBTYPE                   OPT
METHOD                    B3LYP
DFT_D                     d3_op
BASIS                     STO-3G
GEOM_OPT_MAX_CYCLES       100
GEOM_OPT_TOL_GRADIENT     300
GEOM_OPT_TOL_DISPLACEMENT 1200
GEOM_OPT_TOL_ENERGY       100
SYMMETRY                  False
THRESH                    12
SCF_CONVERGENCE           8
MAX_SUB_FILE_NUM          128
MEM_STATIC                400
MEM_TOTAL                 4000
$end
--------------------------------------------------------------

   16   -1510.2519030272      7.84E-09 Convergence criterion met
 Total energy in the final basis set = -1510.25190303
   14   -1510.2549875575      5.49E-09 Convergence criterion met
 Total energy in the final basis set = -1510.25498756
   14   -1510.2609449284      2.68E-09 Convergence criterion met
 Total energy in the final basis set = -1510.26094493
   13   -1510.2650093843      4.44E-09 Convergence criterion met
 Total energy in the final basis set = -1510.26500938
   13   -1510.2682583156      8.89E-09 Convergence criterion met
 Total energy in the final basis set = -1510.26825832
   13   -1510.2708995146      6.28E-09 Convergence criterion met
 Total energy in the final basis set = -1510.27089951
   13   -1510.2732489232      9.48E-09 Convergence criterion met
 Total energy in the final basis set = -1510.27324892
   13   -1510.2756168780      4.76E-09 Convergence criterion met
   12   -1510.3049929034      7.61E-09 Convergence criterion met
 Total energy in the final basis set = -1510.30499290
   12   -1510.3050233252      5.99E-09 Convergence criterion met
 Total energy in the final basis set = -1510.30502333
   12   -1510.3050128190      5.35E-09 Convergence criterion met
 Total energy in the final basis set = -1510.30501282
   12   -1510.3050485693      6.29E-09 Convergence criterion met
 Total energy in the final basis set = -1510.30504857
   11   -1510.3050531016      4.55E-09 Convergence criterion met
 Total energy in the final basis set = -1510.30505310
    9   -1510.3050542914      7.24E-09 Convergence criterion met
 Total energy in the final basis set = -1510.30505429

             Standard Nuclear Orientation (Angstroms)
    I     Atom           X                Y                Z
 ----------------------------------------------------------------
    1      O       1.9695453636     0.4746999995     2.6307812876
    2      C       2.4481041916    -0.0164360361     1.5865965222
    3      C       3.8100227020     0.3390339717     0.8903570495
    4      C       3.6628080365     0.6628953260    -0.6583990644
    5      C       2.1731442809     0.6806087264    -1.1414245445
    6      O       1.9609971516    -0.3819073674    -2.0707308631
    7      C       0.5523735628    -0.3946109451    -2.5433191200
    8      C      -0.0430606754    -1.8432962655    -2.3795730460
    9      O      -0.9359978985    -1.9588587642    -1.2021857104
   10      C      -2.2658844623    -1.5022476587    -1.5337854569
   11      C      -3.1753182943    -1.6804860127    -0.2648567211
   12      C      -2.9621547025    -0.5906141406     0.8621103743
   13      C      -1.9334928246     0.5165755129     0.4509504632
   14      O      -1.5822426101     0.8042702229    -0.7175707473
   15      O       1.8230387111    -1.0211500745     0.7879344540
   16      O      -1.4567217948     1.1393882505     1.6362104622
   17      O      -2.6191156448    -1.1802331149    -2.6864947180
   18      C      -0.5248298239     2.2555374207     1.3255269204
   19      C      -4.7033928417    -1.4554295852    -0.6241700496
   20      C      -5.5818010304    -2.0864408273     0.5248150046
   21      C      -5.3606487192    -1.0407051967     1.6810609849
   22      C      -4.4302205639     0.0161793540     0.9648982871
   23      O      -4.8938742528     0.0028269744    -0.4399246376
   24      H      -2.9936374076    -2.6931299505     0.1386632596
   25      H      -2.6420747705    -1.0366758823     1.8197099156
   26      H      -4.9713663379    -1.7501429937    -1.6573255952
   27      H      -6.6392099097    -2.1308607723     0.2189113743
   28      H      -5.2492723242    -3.1011626243     0.7965574780
   29      H      -6.3084671288    -0.5719585318     1.9897509740
   30      H      -4.8791056399    -1.4826918812     2.5680834121
   31      H      -4.4715376764     1.0409920346     1.3826541957
   32      O       1.2985962628     1.5229948423    -0.8329368895
   33      C       0.4979179322    -1.4088994347     1.3277937951
   34      C       4.4158057962     1.6959206773     1.4360756941
   35      C       5.9418557871     1.7527117012     1.0384920393
   36      C       5.8386325746     2.0302623445    -0.5079611317
   37      C       4.2737504783     2.1290893538    -0.7006387688
   38      O       3.7964288845     2.7252260566     0.5677210761
   39      H       4.5053398711    -0.5071733141     1.0414603163
   40      H       4.2273951315    -0.0530420008    -1.2805503472
   41      H       0.0323476001    -0.5650602566     1.8753134789
   42      H       4.1810213575     1.8944206840     2.4999996564
   43      H       6.4465200081     2.5794821378     1.5634502994
   44      H       6.4683311692     0.8128141904     1.2692731728
   45      H       6.3205336322     2.9821885532    -0.7814972561
   46      H       6.2796274381     1.2240599262    -1.1158495294
   47      H       3.9408053913     2.7388215102    -1.5627904384
   48      H       0.6052572948    -2.2718690528     2.0153852118
   49      H      -0.1199867655    -1.6921770288     0.4430506092
   50      H       0.0182132972     2.4615396466     2.2658144507
   51      H      -1.0954027122     3.1560216225     1.0213193872
   52      H       0.1940343213     1.9833081825     0.5166489840
   53      H      -0.6071853727    -2.1161558204    -3.2960277785
   54      H       0.7787106936    -2.5693714919    -2.2124566038
   55      H       0.5448392591    -0.1035998470    -3.6146101178
   56      H      -0.0517934277     0.3365478857    -1.9537732674
 ----------------------------------------------------------------

    9   -1510.3050543354      5.89E-09 Convergence criterion met
 Total energy in the final basis set = -1510.30505434
 Final energy is   -1510.30505433538
 **  OPTIMIZATION CONVERGED  **

                    Orbital Energies (a.u.)
 --------------------------------------------------------------

 Alpha MOs
 -- Occupied --
-18.936 -18.935 -18.933 -18.928 -18.889 -18.887 -18.880 -18.877
-18.875 -18.874 -10.104 -10.103 -10.102 -10.097 -10.071 -10.062
-10.060 -10.059 -10.057 -10.057 -10.040 -10.038 -10.038 -10.037
-10.037 -10.037 -10.022 -10.021 -10.020 -10.020  -1.017  -1.012
 -1.008  -1.004  -0.971  -0.970  -0.940  -0.937  -0.934  -0.933
 -0.765  -0.763  -0.727  -0.723  -0.711  -0.706  -0.695  -0.654
 -0.650  -0.616  -0.597  -0.578  -0.547  -0.543  -0.539  -0.536
 -0.512  -0.509  -0.479  -0.472  -0.463  -0.460  -0.455  -0.451
 -0.435  -0.430  -0.426  -0.414  -0.412  -0.407  -0.404  -0.396
 -0.392  -0.374  -0.372  -0.365  -0.364  -0.360  -0.355  -0.345
 -0.343  -0.342  -0.336  -0.333  -0.330  -0.327  -0.319  -0.311
 -0.309  -0.306  -0.304  -0.299  -0.293  -0.287  -0.281  -0.276
 -0.269  -0.257  -0.252  -0.241  -0.236  -0.235  -0.233  -0.189
 -0.176  -0.170  -0.166  -0.160  -0.158  -0.152  -0.150  -0.145
 -0.143

          Ground-State Mulliken Net Atomic Charges

     Atom                 Charge (a.u.)
  ----------------------------------------
      1 O                    -0.212612
      2 C                     0.210245
      3 C                    -0.078568
      4 C                    -0.077845
      5 C                     0.221307
      6 O                    -0.170290
      7 C                    -0.064592
      8 C                    -0.050485
      9 O                    -0.179265
     10 C                     0.218480
     11 C                    -0.081418
     12 C                    -0.079186
     13 C                     0.216959
     14 O                    -0.210572
     15 O                    -0.176236
     16 O                    -0.170058
     17 O                    -0.208261
     18 C                    -0.148088
     19 C                     0.025303
     20 C                    -0.143882
     21 C                    -0.143743
     22 C                     0.025673
     23 O                    -0.187220
     24 H                     0.084280
     25 H                     0.087114
     26 H                     0.089704
     27 H                     0.078723
     28 H                     0.073071
     29 H                     0.078860
     30 H                     0.074214
     31 H                     0.085176
     32 O                    -0.219955
     33 C                    -0.155657
     34 C                     0.023459
     35 C                    -0.143558
     36 C                    -0.144219
     37 C                     0.025547
     38 O                    -0.187329
     39 H                     0.084654
     40 H                     0.086836
     41 H                     0.093943
     42 H                     0.090114
     43 H                     0.078297
     44 H                     0.073055
     45 H                     0.078310
     46 H                     0.073536
     47 H                     0.083975
     48 H                     0.074501
     49 H                     0.107778
     50 H                     0.091331
     51 H                     0.080193
     52 H                     0.121682
     53 H                     0.095122
     54 H                     0.094674
     55 H                     0.084579
     56 H                     0.122342
  ----------------------------------------
  Sum of atomic charges =     0.000000

                    Cartesian Multipole Moments
 -----------------------------------------------------------------
    Charge (ESU x 10^10)
                -0.0000
    Dipole Moment (Debye)
         X       1.5055      Y      -2.7376      Z       0.6943
       Tot       3.2005
    Quadrupole Moments (Debye-Ang)
        XX    -144.2496     XY       5.9446     YY    -158.3721
        XZ     -10.7422     YZ      -1.0568     ZZ    -162.8990

 Total job time:  164.30s(wall), 7847.24s(cpu)
        *  Thank you very much for using Q-Chem.  Have a nice day.  *
