 Q-Chem 5.0, Q-Chem, Inc., Pleasanton, CA (2017)
 Q-Chem 5.0.1 for Intel X86 EM64T Linux

User input:
--------------------------------------------------------------
$molecule
0  1
O 4.4251042129 -1.5820448619 -0.1748724291
C 4.3074262131 -0.6423884449 -0.9867820152
C 3.2953883625 0.5608600113 -0.9685338377
C 1.7350401154 0.2217901282 -0.9369449239
C 1.3215862383 -1.2767598751 -1.1884345397
O -0.0022260557 -1.6618052202 -1.6429226378
C -0.8559618882 -0.6998571626 -2.385221585
C -2.3816682381 -1.1692946757 -2.3131386245
O -3.5453895388 -0.8761930292 -1.4406824197
C -3.5331262802 -1.3182157698 -0.0763062465
C -2.2493575551 -1.0608332407 0.7848122045
C -1.9091690456 0.4991514427 0.9013067142
C -2.6811170226 1.6073906536 0.0874879525
O -3.1518833083 2.6602669682 0.5731004726
O 5.1393422358 -0.4812317947 -2.1467830937
O -2.5067604735 1.4261494191 -1.3209779824
O -4.6172792648 -1.7261593675 0.3969264937
C -3.1459063842 2.5333699527 -2.0661121256
C -2.5284477417 -1.4141180566 2.298735818
C -1.1673384945 -1.3767837531 3.1032700495
C -0.9722092339 0.1720010779 3.3032072571
C -2.1736609378 0.7335472769 2.4542337987
O -3.2640704075 -0.2182535457 2.7712185552
H -1.3874673563 -1.6075168868 0.3521234782
H -0.8581046489 0.6556075667 0.641807187
H -3.1428876999 -2.3249427448 2.434333526
H -1.2693291567 -1.9029044871 4.0654811443
H -0.3429505618 -1.8368722545 2.5336047195
H -1.1055294125 0.4591819942 4.3586040143
H 0.0116975835 0.533463264 2.9692998656
H -2.4883744828 1.7699056806 2.685048242
O 2.0416507933 -2.256586195 -0.8946955844
C 6.1175974431 -1.5910456408 -2.2165330342
C 3.4706471843 1.3110459429 0.4160631978
C 2.663527708 2.6709472996 0.4121539539
C 1.19214443 2.1617547982 0.643902444
C 1.4259437391 0.6032291119 0.590191178
O 2.6967017167 0.4307624996 1.313793601
H 3.5333759917 1.2084107484 -1.8322414997
H 1.2025855722 0.8972591189 -1.6247315396
H 5.6094654171 -2.5758527064 -2.2598722674
H 4.5203450872 1.389875463 0.7591228665
H 3.0017488939 3.3267571521 1.229044215
H 2.777683956 3.2115012114 -0.5408394346
H 0.8099219688 2.4615723923 1.6323840946
H 0.4901083811 2.5161507489 -0.1271056548
H 0.6719397491 -0.0422515509 1.0682147688
H 6.80375059 -1.5897985878 -1.3447395107
H 6.6977418633 -1.4288172665 -3.1434127785
H -2.904861459 2.3624044205 -3.1316298942
H -2.7548052999 3.5209166148 -1.7460590256
H -4.2466983128 2.5289307084 -1.9336731743
H -2.7890808553 -0.8344040603 -3.2920995486
H -2.3100101756 -2.2822284074 -2.3793879832
H -0.5951168305 -0.7457835499 -3.4650689946
H -0.7568578121 0.349675836 -2.0320962387
$end

$rem
JOBTYPE                   OPT
METHOD                    B3LYP
DFT_D                     d3_op
BASIS                     STO-3G
GEOM_OPT_MAX_CYCLES       100
GEOM_OPT_TOL_GRADIENT     300
GEOM_OPT_TOL_DISPLACEMENT 1200
GEOM_OPT_TOL_ENERGY       100
SYMMETRY                  False
THRESH                    12
SCF_CONVERGENCE           8
MAX_SUB_FILE_NUM          128
MEM_STATIC                400
MEM_TOTAL                 4000
$end
--------------------------------------------------------------

   16   -1510.2211541127      6.80E-09 Convergence criterion met
 Total energy in the final basis set = -1510.22115411
   15   -1510.2237219418      4.52E-09 Convergence criterion met
 Total energy in the final basis set = -1510.22372194
   14   -1510.2385376967      7.69E-09 Convergence criterion met
 Total energy in the final basis set = -1510.23853770
   15   -1510.2474490806      1.47E-09 Convergence criterion met
 Total energy in the final basis set = -1510.24744908
   15   -1510.2526294441      4.55E-09 Convergence criterion met
 Total energy in the final basis set = -1510.25262944
   14   -1510.2558059499      9.94E-09 Convergence criterion met
 Total energy in the final basis set = -1510.25580595
   14   -1510.2587678274      9.79E-09 Convergence criterion met
 Total energy in the final basis set = -1510.25876783
   13   -1510.2610564765      4.50E-09 Convergence criterion met
   12   -1510.2793026432      4.02E-09 Convergence criterion met
 Total energy in the final basis set = -1510.27930264
   12   -1510.2793216978      4.81E-09 Convergence criterion met
 Total energy in the final basis set = -1510.27932170
   11   -1510.2793274829      8.58E-09 Convergence criterion met
 Total energy in the final basis set = -1510.27932748
   11   -1510.2793357940      3.55E-09 Convergence criterion met
 Total energy in the final basis set = -1510.27933579
    9   -1510.2793365826      4.70E-09 Convergence criterion met
 Total energy in the final basis set = -1510.27933658
    9   -1510.2793382779      4.48E-09 Convergence criterion met
 Total energy in the final basis set = -1510.27933828

             Standard Nuclear Orientation (Angstroms)
    I     Atom           X                Y                Z
 ----------------------------------------------------------------
    1      O      -4.1231128425    -1.7594548345     0.5460048914
    2      C      -3.9098780664    -0.5813998593     0.1906278522
    3      C      -3.3172653421    -0.0961511561    -1.1855983582
    4      C      -1.9250803576     0.6587627008    -1.0946141694
    5      C      -1.3537849175     0.6095242516     0.3705046974
    6      O      -0.3659522426     1.5667730753     0.7894917313
    7      C       0.3647326158     2.2794805652    -0.2879456632
    8      C       1.5510193805     3.0247130013     0.4438681898
    9      O       2.8914530967     2.5095392020     0.1032175078
   10      C       3.1788432574     1.1356778580     0.4449266880
   11      C       2.1252258479     0.2424900190     1.2090642470
   12      C       1.7425159083    -1.0473374366     0.3610213417
   13      C       2.3919038714    -1.0637524256    -1.0592774536
   14      O       3.1961387062    -1.8763513806    -1.5508883878
   15      O      -4.3316996864     0.5813070817     0.9217488981
   16      O       1.8689056520     0.0760974160    -1.7930184778
   17      O       4.2992550559     0.7128431057     0.0802874170
   18      C       2.5157482432     0.1812294401    -3.1204787902
   19      C       2.7815977218    -0.4455553056     2.4808174067
   20      C       1.6215273616    -1.0914220970     3.3395909122
   21      C       1.2865048330    -2.3735775159     2.4891577706
   22      C       2.2945263210    -2.2072456894     1.2857689141
   23      O       3.4956368427    -1.6115961951     1.9148646579
   24      H       1.2019820771     0.7981052910     1.4571327779
   25      H       0.6462856832    -1.1209326168     0.2371710871
   26      H       3.4830839190     0.2005888002     3.0433560668
   27      H       1.9862215493    -1.3548694245     4.3450930460
   28      H       0.7573558183    -0.4151942653     3.4400043019
   29      H       1.5010203405    -3.2978461233     3.0488775896
   30      H       0.2374381817    -2.3950258653     2.1522453772
   31      H       2.5605256772    -3.1336122614     0.7406698103
   32      O      -1.7322709564    -0.2068834834     1.2433148262
   33      C      -4.8573887354     0.1746266417     2.2431769574
   34      C      -2.9460823855    -1.3252945198    -2.1148950384
   35      C      -2.8821587608    -0.8149957394    -3.6044399090
   36      C      -1.5588082504     0.0350934100    -3.5666777055
   37      C      -1.0532085439    -0.2306855849    -2.0914924717
   38      O      -1.5258516767    -1.5981202177    -1.7900801434
   39      H      -4.0682376684     0.5577882479    -1.6646059350
   40      H      -2.0081305356     1.7053353918    -1.4351902089
   41      H      -4.0634204244    -0.2881431627     2.8647183671
   42      H      -3.5640682755    -2.2258307141    -1.9316977516
   43      H      -2.7942371852    -1.6660609805    -4.2985925816
   44      H      -3.7666232045    -0.2204356736    -3.8834548246
   45      H      -0.8195000005    -0.3315512607    -4.2965111270
   46      H      -1.7368281948     1.1058411730    -3.7557749792
   47      H       0.0510932660    -0.1543543027    -1.9603497815
   48      H      -5.6955823236    -0.5456800758     2.1481608283
   49      H      -5.2165043968     1.0997971087     2.7304493455
   50      H       2.0263880913     1.0282101972    -3.6354490547
   51      H       2.3793254530    -0.7467276999    -3.7118541466
   52      H       3.6008013698     0.3838014771    -3.0157709099
   53      H       1.5825026242     4.0852734089     0.1211490188
   54      H       1.3584647200     3.0038316769     1.5397696060
   55      H      -0.2961597717     3.0082813202    -0.8019715681
   56      H       0.8001971869     1.5677349215    -1.0287348010
 ----------------------------------------------------------------

    8   -1510.2793373955      6.06E-09 Convergence criterion met
 Total energy in the final basis set = -1510.27933740
 Final energy is   -1510.27933739552
 **  OPTIMIZATION CONVERGED  **

                    Orbital Energies (a.u.)
 --------------------------------------------------------------

 Alpha MOs
 -- Occupied --
-18.954 -18.953 -18.932 -18.922 -18.900 -18.897 -18.889 -18.883
-18.872 -18.864 -10.119 -10.114 -10.098 -10.094 -10.086 -10.084
-10.077 -10.059 -10.057 -10.056 -10.055 -10.055 -10.047 -10.039
-10.037 -10.026 -10.025 -10.023 -10.014 -10.012  -1.028  -1.026
 -1.005  -1.001  -0.973  -0.966  -0.956  -0.954  -0.936  -0.928
 -0.767  -0.762  -0.727  -0.721  -0.719  -0.708  -0.701  -0.672
 -0.657  -0.616  -0.605  -0.596  -0.551  -0.549  -0.542  -0.535
 -0.525  -0.510  -0.495  -0.479  -0.472  -0.466  -0.461  -0.456
 -0.439  -0.435  -0.425  -0.423  -0.420  -0.416  -0.408  -0.406
 -0.399  -0.393  -0.387  -0.379  -0.368  -0.363  -0.359  -0.354
 -0.351  -0.339  -0.335  -0.334  -0.329  -0.327  -0.317  -0.311
 -0.310  -0.307  -0.303  -0.301  -0.297  -0.289  -0.286  -0.281
 -0.278  -0.267  -0.259  -0.248  -0.244  -0.238  -0.229  -0.195
 -0.190  -0.174  -0.170  -0.168  -0.164  -0.149  -0.147  -0.145
 -0.139

          Ground-State Mulliken Net Atomic Charges

     Atom                 Charge (a.u.)
  ----------------------------------------
      1 O                    -0.216069
      2 C                     0.216010
      3 C                    -0.080618
      4 C                    -0.084353
      5 C                     0.214577
      6 O                    -0.174311
      7 C                    -0.062714
      8 C                    -0.047744
      9 O                    -0.172232
     10 C                     0.200742
     11 C                    -0.099610
     12 C                    -0.081924
     13 C                     0.221341
     14 O                    -0.189762
     15 O                    -0.179359
     16 O                    -0.181473
     17 O                    -0.201560
     18 C                    -0.128642
     19 C                     0.025261
     20 C                    -0.144265
     21 C                    -0.143905
     22 C                     0.025979
     23 O                    -0.185442
     24 H                     0.101371
     25 H                     0.089278
     26 H                     0.081958
     27 H                     0.076817
     28 H                     0.077649
     29 H                     0.077761
     30 H                     0.081395
     31 H                     0.089907
     32 O                    -0.194327
     33 C                    -0.128836
     34 C                     0.024608
     35 C                    -0.143753
     36 C                    -0.145749
     37 C                     0.004192
     38 O                    -0.193353
     39 H                     0.083013
     40 H                     0.079596
     41 H                     0.091362
     42 H                     0.091405
     43 H                     0.078408
     44 H                     0.073163
     45 H                     0.075240
     46 H                     0.069682
     47 H                     0.096379
     48 H                     0.087582
     49 H                     0.086349
     50 H                     0.090583
     51 H                     0.094618
     52 H                     0.100406
     53 H                     0.093111
     54 H                     0.090865
     55 H                     0.082015
     56 H                     0.107376
  ----------------------------------------
  Sum of atomic charges =     0.000000

                    Cartesian Multipole Moments
 -----------------------------------------------------------------
    Charge (ESU x 10^10)
                -0.0000
    Dipole Moment (Debye)
         X      -3.3958      Y       3.8385      Z      -1.8627
       Tot       5.4530
    Quadrupole Moments (Debye-Ang)
        XX    -181.0607     XY      -2.0871     YY    -161.7077
        XZ       2.2829     YZ      -1.4197     ZZ    -147.0816

 Total job time:  153.43s(wall), 7317.73s(cpu)
        *  Thank you very much for using Q-Chem.  Have a nice day.  *
