 Q-Chem 5.0, Q-Chem, Inc., Pleasanton, CA (2017)
 Q-Chem 5.0.1 for Intel X86 EM64T Linux

User input:
--------------------------------------------------------------
$molecule
0  1
O -3.3766756833 1.4428494003 2.3459623028
C -3.3706821865 1.4959550329 1.0986195932
C -4.4717575576 0.9504757602 0.1108636464
C -4.0126990752 -0.2814824632 -0.7704215663
C -2.6186442264 -0.838942157 -0.3245040732
O -2.2524231184 -1.9107226293 -1.1944744866
C -0.8466293683 -2.3614077172 -0.9998093388
C 0.221500822 -1.2065162273 -0.9950122902
O 1.4414188624 -1.7495897583 -0.3454596328
C 2.3388320746 -0.6597342929 -0.0607587481
C 3.8276379625 -1.12460366 -0.214716144
C 4.7743676607 0.090823111 -0.577693474
C 4.0141266089 1.4070680202 -0.9800617893
O 4.1833964794 2.554449021 -0.5185607442
O -2.4031307463 2.2081558595 0.3097237975
O 3.1879993337 1.1017353015 -2.1172376484
O 1.9611108886 0.4982151433 0.2280266007
C 2.3965403794 2.291231992 -2.499112695
C 4.4217383348 -1.5278718115 1.2061446797
C 5.858293153 -2.1572978315 1.0047591285
C 6.7290358349 -0.8688712366 0.7584861792
C 5.6137728961 0.2464633266 0.7578084947
O 4.6876675616 -0.2088171845 1.8218348553
H 3.8790829074 -1.9494288396 -0.9464217815
H 5.4296981112 -0.1823493072 -1.4256119705
H 3.7322453743 -2.1218579863 1.8374849471
H 6.175053402 -2.6957267736 1.9118392216
H 5.8833490804 -2.8548860859 0.1523695706
H 7.4381912922 -0.7002857438 1.5845442388
H 7.2895287748 -0.9052513119 -0.1891940619
H 5.9545722861 1.2812758499 0.9565701226
O -1.9468462459 -0.4571949145 0.6615057961
C -1.278042211 2.6442526085 1.1660184031
C -5.7135424243 0.3327276043 0.8792085339
C -6.9406389236 0.3016332281 -0.112091748
C -6.5080661565 -0.8578638504 -1.0858089477
C -5.1554674271 -1.3316368751 -0.4203979279
O -5.3659979897 -1.1017058021 1.0260084327
H -4.7785560298 1.7877823633 -0.5417528501
H -3.9812652431 -0.045890983 -1.8491096292
H -0.7194440911 1.772080158 1.5643484497
H -5.9006842207 0.7865519072 1.8717053698
H -7.8653737041 0.0468805799 0.4298865536
H -7.0873150086 1.2627593771 -0.6303247347
H -7.2429162562 -1.6786248743 -1.0926799999
H -6.3585461778 -0.5098363452 -2.1204745369
H -4.8760112655 -2.3855295949 -0.6148257397
H -1.6253514505 3.2634668763 2.0179919544
H -0.6106175271 3.2425199157 0.5186438607
H 1.8625544102 2.0215714657 -3.4289929293
H 3.0418000392 3.1744132643 -2.6822856797
H 1.6591149241 2.5496856311 -1.711011673
H 0.453281262 -0.8765281977 -2.0309756488
H -0.167567477 -0.344913822 -0.4135917122
H -0.6590250556 -3.07109793 -1.8295839248
H -0.7558696141 -2.9114350506 -0.0359666926
$end

$rem
JOBTYPE                   OPT
METHOD                    B3LYP
DFT_D                     d3_op
BASIS                     STO-3G
GEOM_OPT_MAX_CYCLES       100
GEOM_OPT_TOL_GRADIENT     300
GEOM_OPT_TOL_DISPLACEMENT 1200
GEOM_OPT_TOL_ENERGY       100
SYMMETRY                  False
THRESH                    12
SCF_CONVERGENCE           8
MAX_SUB_FILE_NUM          128
MEM_STATIC                400
MEM_TOTAL                 4000
$end
--------------------------------------------------------------

   15   -1510.2747502787      8.92E-09 Convergence criterion met
 Total energy in the final basis set = -1510.27475028
   14   -1510.2789226348      1.95E-09 Convergence criterion met
 Total energy in the final basis set = -1510.27892263
   14   -1510.2822961454      2.23E-09 Convergence criterion met
 Total energy in the final basis set = -1510.28229615
   13   -1510.2842474719      8.30E-09 Convergence criterion met
 Total energy in the final basis set = -1510.28424747
   13   -1510.2856642713      6.40E-09 Convergence criterion met
 Total energy in the final basis set = -1510.28566427
   13   -1510.2864360451      5.90E-09 Convergence criterion met
 Total energy in the final basis set = -1510.28643605
   13   -1510.2868868674      5.93E-09 Convergence criterion met
 Total energy in the final basis set = -1510.28688687
   14   -1510.2872671395      1.07E-09 Convergence criterion met
   12   -1510.3008523590      2.99E-09 Convergence criterion met
 Total energy in the final basis set = -1510.30085236
   11   -1510.3008508348      4.71E-09 Convergence criterion met
 Total energy in the final basis set = -1510.30085083
   11   -1510.3008576107      4.26E-09 Convergence criterion met
 Total energy in the final basis set = -1510.30085761
    9   -1510.3008593147      7.38E-09 Convergence criterion met
 Total energy in the final basis set = -1510.30085931
    9   -1510.3008595949      2.58E-09 Convergence criterion met
 Total energy in the final basis set = -1510.30085959
    9   -1510.3008626879      5.82E-09 Convergence criterion met
 Total energy in the final basis set = -1510.30086269

             Standard Nuclear Orientation (Angstroms)
    I     Atom           X                Y                Z
 ----------------------------------------------------------------
    1      O      -1.0272294976     0.9267332692     2.0226774355
    2      C      -1.6649994618     1.0901602446     0.9601332555
    3      C      -3.1291900709     0.5952216181     0.6554545819
    4      C      -3.2571590158    -0.5016880147    -0.4766111908
    5      C      -1.8895355099    -1.0805087261    -0.9657333520
    6      O      -2.0956975491    -1.6200602841    -2.2762347161
    7      C      -0.9317255168    -2.4137341512    -2.7375019982
    8      C       0.3493187585    -1.5689950324    -3.1009079374
    9      O       1.3656753017    -1.7338091832    -2.0365653867
   10      C       1.7357632815    -0.4630155276    -1.4899780560
   11      C       2.6726602828    -0.7216612105    -0.2690140815
   12      C       3.7130857109     0.4399156978     0.0123615096
   13      C       3.5507822240     1.6725804180    -0.9495675683
   14      O       3.1217922120     2.8101660135    -0.6641295020
   15      O      -1.2276786350     1.8435492235    -0.1671610914
   16      O       4.0545057115     1.2935109587    -2.2378977656
   17      O       1.3422485729     0.6360398831    -1.9410513085
   18      C       3.8144219344     2.3831364452    -3.2100257435
   19      C       1.8435767629    -0.7297110265     1.0946467172
   20      C       2.7255654282    -1.4319136322     2.1954340050
   21      C       3.8174116402    -0.3274503698     2.4632689394
   22      C       3.3378269324     0.8264439873     1.4994075223
   23      O       1.8619376272     0.6882333511     1.5193871373
   24      H       3.1761732808    -1.6914199631    -0.4256845234
   25      H       4.7485717674     0.0635140455    -0.0718332092
   26      H       0.7970657435    -1.0808956285     0.9791380703
   27      H       2.1234194372    -1.6294159538     3.0967146894
   28      H       3.1568859740    -2.3815312642     1.8407215842
   29      H       3.7994437332     0.0122066669     3.5109221867
   30      H       4.8356824187    -0.6700191973     2.2189370054
   31      H       3.6292691901     1.8544061534     1.7895408246
   32      O      -0.8118122257    -1.1461514866    -0.3362463871
   33      C       0.0886841453     2.4785188433     0.0995023569
   34      C      -3.7681769898    -0.1617911199     1.8933502058
   35      C      -5.3374791005    -0.1311868946     1.7320007088
   36      C      -5.5343464687    -1.1513400047     0.5494914777
   37      C      -4.0490951527    -1.6382418730     0.3117583496
   38      O      -3.4340516586    -1.5866823854     1.6549784265
   39      H      -3.7282166893     1.4824728112     0.3814430064
   40      H      -3.8231419960    -0.1410045464    -1.3530915290
   41      H       0.7901882756     1.7861899743     0.6317963289
   42      H      -3.3709823064     0.1662805089     2.8735950628
   43      H      -5.8266586626    -0.4851160968     2.6535638489
   44      H      -5.7151546934     0.8762069969     1.4947901581
   45      H      -6.1746412524    -1.9975103990     0.8451679432
   46      H      -5.9625918411    -0.6815329900    -0.3503761627
   47      H      -3.9520047533    -2.6509476467    -0.1262555501
   48      H      -0.0503784003     3.3980749694     0.7039590317
   49      H       0.5034744502     2.7499229471    -0.8875221667
   50      H       4.2681661712     2.0520340780    -4.1622382106
   51      H       4.2817599814     3.3349874886    -2.8851791335
   52      H       2.7276158935     2.5532879012    -3.3551407672
   53      H       0.7830416947    -1.9459374643    -4.0511158234
   54      H       0.1102240692    -0.4875831495    -3.2099704822
   55      H      -1.3004194988    -2.9366011440    -3.6426765517
   56      H      -0.6442663003    -3.1711216167    -1.9748577544
 ----------------------------------------------------------------

    9   -1510.3008632035      4.54E-09 Convergence criterion met
 Total energy in the final basis set = -1510.30086320
 Final energy is   -1510.30086320350
 **  OPTIMIZATION CONVERGED  **

                    Orbital Energies (a.u.)
 --------------------------------------------------------------

 Alpha MOs
 -- Occupied --
-18.939 -18.934 -18.924 -18.903 -18.898 -18.883 -18.883 -18.878
-18.867 -18.849 -10.106 -10.102 -10.093 -10.079 -10.077 -10.071
-10.059 -10.058 -10.057 -10.052 -10.051 -10.036 -10.036 -10.034
-10.025 -10.018 -10.018 -10.016 -10.015 -10.009  -1.020  -1.011
 -1.001  -0.984  -0.972  -0.966  -0.943  -0.938  -0.928  -0.910
 -0.762  -0.758  -0.726  -0.719  -0.711  -0.701  -0.694  -0.656
 -0.632  -0.618  -0.592  -0.576  -0.544  -0.539  -0.534  -0.531
 -0.512  -0.504  -0.481  -0.464  -0.459  -0.449  -0.448  -0.444
 -0.436  -0.428  -0.425  -0.412  -0.405  -0.401  -0.397  -0.391
 -0.378  -0.375  -0.374  -0.361  -0.354  -0.352  -0.349  -0.345
 -0.341  -0.334  -0.329  -0.328  -0.325  -0.320  -0.318  -0.307
 -0.305  -0.302  -0.297  -0.295  -0.294  -0.279  -0.272  -0.269
 -0.265  -0.257  -0.249  -0.246  -0.239  -0.230  -0.216  -0.190
 -0.172  -0.168  -0.160  -0.157  -0.154  -0.145  -0.141  -0.139
 -0.129

          Ground-State Mulliken Net Atomic Charges

     Atom                 Charge (a.u.)
  ----------------------------------------
      1 O                    -0.215173
      2 C                     0.209554
      3 C                    -0.081125
      4 C                    -0.077556
      5 C                     0.218675
      6 O                    -0.172136
      7 C                    -0.050286
      8 C                    -0.056656
      9 O                    -0.171127
     10 C                     0.221343
     11 C                    -0.079148
     12 C                    -0.080848
     13 C                     0.214539
     14 O                    -0.212675
     15 O                    -0.181273
     16 O                    -0.175591
     17 O                    -0.213965
     18 C                    -0.128872
     19 C                     0.022652
     20 C                    -0.142535
     21 C                    -0.143598
     22 C                     0.026930
     23 O                    -0.178270
     24 H                     0.087430
     25 H                     0.084838
     26 H                     0.112290
     27 H                     0.082575
     28 H                     0.073517
     29 H                     0.079742
     30 H                     0.072755
     31 H                     0.090343
     32 O                    -0.213667
     33 C                    -0.151815
     34 C                     0.024053
     35 C                    -0.143576
     36 C                    -0.144051
     37 C                     0.025105
     38 O                    -0.190290
     39 H                     0.082399
     40 H                     0.087550
     41 H                     0.118941
     42 H                     0.090590
     43 H                     0.077133
     44 H                     0.073396
     45 H                     0.077158
     46 H                     0.073487
     47 H                     0.080164
     48 H                     0.068924
     49 H                     0.085783
     50 H                     0.086897
     51 H                     0.087939
     52 H                     0.092259
     53 H                     0.085025
     54 H                     0.105865
     55 H                     0.090448
     56 H                     0.093938
  ----------------------------------------
  Sum of atomic charges =    -0.000000

                    Cartesian Multipole Moments
 -----------------------------------------------------------------
    Charge (ESU x 10^10)
                -0.0000
    Dipole Moment (Debye)
         X       0.0449      Y      -1.9862      Z      -2.3608
       Tot       3.0855
    Quadrupole Moments (Debye-Ang)
        XX    -140.1331     XY      -1.9342     YY    -159.6824
        XZ       1.8845     YZ       2.9036     ZZ    -154.6328

 Total job time:  144.04s(wall), 6870.12s(cpu)
        *  Thank you very much for using Q-Chem.  Have a nice day.  *
