 Q-Chem 5.0, Q-Chem, Inc., Pleasanton, CA (2017)
 Q-Chem 5.0.1 for Intel X86 EM64T Linux

User input:
--------------------------------------------------------------
$molecule
0  1
O -3.94934 -3.66094 2.70899
C -3.26408 -4.56952 2.26188
C -3.36658 -6.02376 2.66595
C -2.18121 -6.62309 3.44025
C -1.10406 -5.65595 3.87899
O -0.09987 -6.33438 4.50888
C 1.05412 -5.52573 4.76116
C 1.46848 -4.79027 3.49092
O 2.31137 -3.67589 3.82347
C 2.53748 -2.79513 2.81735
C 3.92082 -2.1911 2.86395
C 4.46966 -1.72499 1.50756
C 3.45228 -1.59747 0.39159
O 3.29662 -0.61319 -0.31658
O -2.3039 -4.27964 1.34469
O 2.84955 -2.75623 0.00837
O 1.59458 -2.24156 2.2659
C 1.96217 -2.8652 -1.04208
C 3.98707 -0.8665 3.65438
C 5.40887 -0.65613 4.17074
C 6.14103 -0.37885 2.87248
C 4.95663 -0.31664 1.89823
O 3.88495 0.14653 2.68321
H 4.59428 -2.9267 3.36205
H 5.27324 -2.39793 1.13595
H 3.25888 -0.81619 4.49334
H 5.38971 0.27884 4.77605
H 5.83335 -1.47758 4.78707
H 6.6497 0.60653 2.96123
H 6.86788 -1.16033 2.56126
H 5.21997 0.30459 1.01426
O -1.35397 -4.48582 4.15343
C -2.02747 -3.01094 0.88093
C -4.5034 -6.26487 3.68338
C -4.93223 -7.7321 3.65755
C -3.75373 -8.38133 4.34875
C -2.91795 -7.14512 4.69043
O -3.87681 -6.1466 4.93541
H -3.59378 -6.58932 1.73467
H -1.6804 -7.44174 2.87618
H -1.71153 -2.3572 1.72191
H -5.39022 -5.61522 3.51559
H -5.82576 -7.83379 4.31439
H -5.1706 -8.12926 2.64743
H -4.11662 -8.86246 5.28446
H -3.18937 -9.11881 3.73799
H -2.22985 -7.37404 5.53373
H -2.9234 -2.58068 0.38455
H -1.20128 -3.06639 0.1431
H 1.62133 -3.91774 -1.12226
H 2.45644 -2.57484 -1.99365
H 1.07879 -2.2156 -0.86392
H 1.97721 -5.48669 2.78935
H 0.62054 -4.36749 2.92242
H 1.88859 -6.12447 5.18243
H 0.77035 -4.7658 5.52419
$end

$opt
CONSTRAINT
tors           1           2           3           4    -112.120
tors           3           4           5           6    -177.851
tors           4           5           6           7    +170.440
tors           5           6           7           8     -49.592
tors           6           7           8           9    +161.053
tors           7           8           9          10    -167.870
tors           8           9          10          11    -145.776
tors           9          10          11          12    +153.554
tors          11          12          13          14    +128.626
ENDCONSTRAINT
$end

$rem
JOBTYPE                   OPT
METHOD                    B3LYP
DFT_D                     d3_op
BASIS                     STO-3G
GEOM_OPT_MAX_CYCLES       100
GEOM_OPT_TOL_GRADIENT     300
GEOM_OPT_TOL_DISPLACEMENT 1200
GEOM_OPT_TOL_ENERGY       100
SYMMETRY                  False
THRESH                    12
SCF_CONVERGENCE           8
MAX_SUB_FILE_NUM          128
MEM_STATIC                400
MEM_TOTAL                 4000
$end
--------------------------------------------------------------

   16   -1510.1235546656      1.97E-09 Convergence criterion met
 Total energy in the final basis set = -1510.12355467
   13   -1510.1953951539      9.60E-09 Convergence criterion met
 Total energy in the final basis set = -1510.19539515
   14   -1510.2348900079      1.44E-09 Convergence criterion met
 Total energy in the final basis set = -1510.23489001
   13   -1510.2547541186      7.16E-09 Convergence criterion met
 Total energy in the final basis set = -1510.25475412
   13   -1510.2633404226      7.83E-09 Convergence criterion met
 Total energy in the final basis set = -1510.26334042
   13   -1510.2677011497      4.75E-09 Convergence criterion met
 Total energy in the final basis set = -1510.26770115
   13   -1510.2701261718      3.69E-09 Convergence criterion met
 Total energy in the final basis set = -1510.27012617
    2   -1510.2701261717      9.40E-10 Convergence criterion met
   11   -1510.2746996462      6.50E-09 Convergence criterion met
 Total energy in the final basis set = -1510.27469965
   10   -1510.2747553407      9.58E-09 Convergence criterion met
 Total energy in the final basis set = -1510.27475534
   10   -1510.2747933101      6.40E-09 Convergence criterion met
 Total energy in the final basis set = -1510.27479331
   10   -1510.2748129510      5.66E-09 Convergence criterion met
 Total energy in the final basis set = -1510.27481295
    9   -1510.2748203233      6.94E-09 Convergence criterion met
 Total energy in the final basis set = -1510.27482032
    9   -1510.2748215642      4.13E-09 Convergence criterion met
 Total energy in the final basis set = -1510.27482156

             Standard Nuclear Orientation (Angstroms)
    I     Atom           X                Y                Z
 ----------------------------------------------------------------
    1      O      -3.3766756833     1.4428494003     2.3459623028
    2      C      -3.3706821865     1.4959550329     1.0986195932
    3      C      -4.4717575576     0.9504757602     0.1108636464
    4      C      -4.0126990752    -0.2814824632    -0.7704215663
    5      C      -2.6186442264    -0.8389421570    -0.3245040732
    6      O      -2.2524231184    -1.9107226293    -1.1944744866
    7      C      -0.8466293683    -2.3614077172    -0.9998093388
    8      C       0.2215008220    -1.2065162273    -0.9950122902
    9      O       1.4414188624    -1.7495897583    -0.3454596328
   10      C       2.3388320746    -0.6597342929    -0.0607587481
   11      C       3.8276379625    -1.1246036600    -0.2147161440
   12      C       4.7743676607     0.0908231110    -0.5776934740
   13      C       4.0141266089     1.4070680202    -0.9800617893
   14      O       4.1833964794     2.5544490210    -0.5185607442
   15      O      -2.4031307463     2.2081558595     0.3097237975
   16      O       3.1879993337     1.1017353015    -2.1172376484
   17      O       1.9611108886     0.4982151433     0.2280266007
   18      C       2.3965403794     2.2912319920    -2.4991126950
   19      C       4.4217383348    -1.5278718115     1.2061446797
   20      C       5.8582931530    -2.1572978315     1.0047591285
   21      C       6.7290358349    -0.8688712366     0.7584861792
   22      C       5.6137728961     0.2464633266     0.7578084947
   23      O       4.6876675616    -0.2088171845     1.8218348553
   24      H       3.8790829074    -1.9494288396    -0.9464217815
   25      H       5.4296981112    -0.1823493072    -1.4256119705
   26      H       3.7322453743    -2.1218579863     1.8374849471
   27      H       6.1750534020    -2.6957267736     1.9118392216
   28      H       5.8833490804    -2.8548860859     0.1523695706
   29      H       7.4381912922    -0.7002857438     1.5845442388
   30      H       7.2895287748    -0.9052513119    -0.1891940619
   31      H       5.9545722861     1.2812758499     0.9565701226
   32      O      -1.9468462459    -0.4571949145     0.6615057961
   33      C      -1.2780422110     2.6442526085     1.1660184031
   34      C      -5.7135424243     0.3327276043     0.8792085339
   35      C      -6.9406389236     0.3016332281    -0.1120917480
   36      C      -6.5080661565    -0.8578638504    -1.0858089477
   37      C      -5.1554674271    -1.3316368751    -0.4203979279
   38      O      -5.3659979897    -1.1017058021     1.0260084327
   39      H      -4.7785560298     1.7877823633    -0.5417528501
   40      H      -3.9812652431    -0.0458909830    -1.8491096292
   41      H      -0.7194440911     1.7720801580     1.5643484497
   42      H      -5.9006842207     0.7865519072     1.8717053698
   43      H      -7.8653737041     0.0468805799     0.4298865536
   44      H      -7.0873150086     1.2627593771    -0.6303247347
   45      H      -7.2429162562    -1.6786248743    -1.0926799999
   46      H      -6.3585461778    -0.5098363452    -2.1204745369
   47      H      -4.8760112655    -2.3855295949    -0.6148257397
   48      H      -1.6253514505     3.2634668763     2.0179919544
   49      H      -0.6106175271     3.2425199157     0.5186438607
   50      H       1.8625544102     2.0215714657    -3.4289929293
   51      H       3.0418000392     3.1744132643    -2.6822856797
   52      H       1.6591149241     2.5496856311    -1.7110116730
   53      H       0.4532812620    -0.8765281977    -2.0309756488
   54      H      -0.1675674770    -0.3449138220    -0.4135917122
   55      H      -0.6590250556    -3.0710979300    -1.8295839248
   56      H      -0.7558696141    -2.9114350506    -0.0359666926
 ----------------------------------------------------------------

    9   -1510.2748222107      2.63E-09 Convergence criterion met
 Total energy in the final basis set = -1510.27482221
 Final energy is   -1510.27482221066
 **  OPTIMIZATION CONVERGED  **

                    Orbital Energies (a.u.)
 --------------------------------------------------------------

 Alpha MOs
 -- Occupied --
-18.947 -18.929 -18.924 -18.914 -18.892 -18.888 -18.887 -18.886
-18.870 -18.858 -10.112 -10.105 -10.096 -10.087 -10.082 -10.072
-10.062 -10.062 -10.060 -10.057 -10.055 -10.048 -10.042 -10.040
-10.036 -10.031 -10.021 -10.021 -10.020 -10.019  -1.024  -1.015
 -1.002  -0.994  -0.970  -0.969  -0.949  -0.941  -0.931  -0.921
 -0.764  -0.762  -0.730  -0.723  -0.714  -0.705  -0.697  -0.659
 -0.650  -0.621  -0.597  -0.583  -0.547  -0.545  -0.538  -0.536
 -0.514  -0.509  -0.484  -0.471  -0.460  -0.456  -0.454  -0.452
 -0.440  -0.432  -0.430  -0.411  -0.409  -0.404  -0.400  -0.397
 -0.396  -0.383  -0.377  -0.368  -0.360  -0.356  -0.355  -0.346
 -0.343  -0.339  -0.336  -0.333  -0.331  -0.326  -0.324  -0.314
 -0.312  -0.307  -0.305  -0.302  -0.298  -0.283  -0.277  -0.276
 -0.273  -0.257  -0.253  -0.247  -0.241  -0.234  -0.234  -0.189
 -0.178  -0.170  -0.161  -0.160  -0.159  -0.149  -0.144  -0.144
 -0.138

          Ground-State Mulliken Net Atomic Charges

     Atom                 Charge (a.u.)
  ----------------------------------------
      1 O                    -0.215962
      2 C                     0.216170
      3 C                    -0.081722
      4 C                    -0.077415
      5 C                     0.218282
      6 O                    -0.170475
      7 C                    -0.048440
      8 C                    -0.057256
      9 O                    -0.179589
     10 C                     0.218794
     11 C                    -0.078144
     12 C                    -0.079950
     13 C                     0.216245
     14 O                    -0.211820
     15 O                    -0.180768
     16 O                    -0.180232
     17 O                    -0.200497
     18 C                    -0.129623
     19 C                     0.025486
     20 C                    -0.144398
     21 C                    -0.143141
     22 C                     0.024358
     23 O                    -0.187861
     24 H                     0.086565
     25 H                     0.083572
     26 H                     0.084139
     27 H                     0.078666
     28 H                     0.073319
     29 H                     0.078647
     30 H                     0.073065
     31 H                     0.091701
     32 O                    -0.202435
     33 C                    -0.129646
     34 C                     0.024215
     35 C                    -0.143418
     36 C                    -0.144133
     37 C                     0.024920
     38 O                    -0.189585
     39 H                     0.082974
     40 H                     0.086591
     41 H                     0.094842
     42 H                     0.090725
     43 H                     0.078205
     44 H                     0.073319
     45 H                     0.078229
     46 H                     0.073140
     47 H                     0.085076
     48 H                     0.087348
     49 H                     0.086036
     50 H                     0.085742
     51 H                     0.089466
     52 H                     0.090302
     53 H                     0.081081
     54 H                     0.108050
     55 H                     0.093059
     56 H                     0.094186
  ----------------------------------------
  Sum of atomic charges =     0.000000

                    Cartesian Multipole Moments
 -----------------------------------------------------------------
    Charge (ESU x 10^10)
                 0.0000
    Dipole Moment (Debye)
         X       0.2976      Y      -1.7649      Z      -4.5907
       Tot       4.9273
    Quadrupole Moments (Debye-Ang)
        XX    -143.7355     XY     -11.5785     YY    -157.8087
        XZ       5.6872     YZ      -1.7367     ZZ    -163.9665

 Total job time:  58.94s(wall), 2804.42s(cpu)
        *  Thank you very much for using Q-Chem.  Have a nice day.  *
