 Q-Chem 5.0, Q-Chem, Inc., Pleasanton, CA (2017)
 Q-Chem 5.0.1 for Intel X86 EM64T Linux

User input:
--------------------------------------------------------------
$molecule
0  1
O -3.94934 -3.66094 2.70899
C -3.26408 -4.56952 2.26188
C -3.36658 -6.02376 2.66595
C -4.6355 -6.45606 3.41882
C -5.73876 -5.42694 3.52752
O -6.77541 -5.93346 4.25842
C -7.02996 -5.19758 5.45964
C -7.81451 -6.05651 6.44598
O -7.87155 -5.40501 7.72472
C -6.78013 -5.57027 8.51253
C -6.91001 -4.88088 9.84989
C -8.14726 -3.98334 9.99804
C -9.2337 -4.17904 8.95975
O -10.41799 -4.36495 9.19945
O -2.24441 -4.25724 1.41876
O -9.01199 -3.3934 7.8513
O -5.82722 -6.28805 8.23434
C -9.93651 -3.06808 6.87066
C -7.08972 -5.84602 11.03275
C -6.62236 -5.1661 12.31741
C -7.71443 -4.13179 12.50165
C -8.65788 -4.51882 11.35498
O -8.48153 -5.90917 11.22129
H -5.97627 -4.28818 9.98026
H -7.89799 -2.89923 10.03983
H -6.56761 -6.8178 10.89377
H -6.70613 -5.9216 13.13147
H -5.58688 -4.76318 12.29799
H -8.1969 -4.30555 13.48911
H -7.3865 -3.07305 12.41725
H -9.69078 -4.17859 11.58757
O -6.07269 -4.7784 2.54542
C -1.97621 -2.98462 0.95982
C -3.47769 -6.93943 1.42382
C -3.02558 -8.35591 1.77711
C -4.18829 -8.81743 2.62797
C -5.11487 -7.60374 2.50807
O -4.85825 -7.10325 1.22095
H -2.42657 -6.27387 3.20678
H -4.40909 -6.80582 4.4511
H -1.75097 -2.30868 1.8122
H -2.90038 -6.57276 0.54719
H -3.02357 -8.94664 0.8329
H -2.0256 -8.42809 2.25632
H -4.64903 -9.70598 2.14154
H -3.94166 -9.04865 3.68688
H -6.16618 -7.90449 2.71133
H -2.84584 -2.59356 0.38937
H -1.09452 -3.01869 0.28754
H -9.56802 -3.4084 5.88412
H -10.06075 -1.96633 6.8405
H -10.93051 -3.53312 7.03945
H -8.84478 -6.17669 6.05005
H -7.38268 -7.07953 6.53519
H -7.52748 -4.23072 5.24135
H -6.05378 -4.97508 5.94922
$end

$opt
CONSTRAINT
tors           1           2           3           4     +16.052
tors           3           4           5           6    -177.851
tors           4           5           6           7    +118.010
tors           5           6           7           8    -159.767
tors           6           7           8           9    +170.281
tors           7           8           9          10     -82.132
tors           8           9          10          11    -179.079
tors           9          10          11          12      -7.618
tors          11          12          13          14    +128.626
ENDCONSTRAINT
$end

$rem
JOBTYPE                   OPT
METHOD                    B3LYP
DFT_D                     d3_op
BASIS                     STO-3G
GEOM_OPT_MAX_CYCLES       100
GEOM_OPT_TOL_GRADIENT     300
GEOM_OPT_TOL_DISPLACEMENT 1200
GEOM_OPT_TOL_ENERGY       100
SYMMETRY                  False
THRESH                    12
SCF_CONVERGENCE           8
MAX_SUB_FILE_NUM          128
MEM_STATIC                400
MEM_TOTAL                 4000
$end
--------------------------------------------------------------

   15   -1510.0867222696      7.56E-09 Convergence criterion met
 Total energy in the final basis set = -1510.08672227
   14   -1510.1604521499      8.94E-09 Convergence criterion met
 Total energy in the final basis set = -1510.16045215
   14   -1510.2007676131      5.20E-09 Convergence criterion met
 Total energy in the final basis set = -1510.20076761
   14   -1510.2251798067      7.33E-09 Convergence criterion met
 Total energy in the final basis set = -1510.22517981
   14   -1510.2369543204      3.44E-09 Convergence criterion met
 Total energy in the final basis set = -1510.23695432
   13   -1510.2437416594      9.05E-09 Convergence criterion met
 Total energy in the final basis set = -1510.24374166
   13   -1510.2481331504      4.74E-09 Convergence criterion met
 Total energy in the final basis set = -1510.24813315
   13   -1510.2510431614      6.81E-09 Convergence criterion met
   13   -1510.2568459188      2.65E-09 Convergence criterion met
 Total energy in the final basis set = -1510.25684592
   12   -1510.2571105625      4.26E-09 Convergence criterion met
 Total energy in the final basis set = -1510.25711056
   12   -1510.2572542742      4.72E-09 Convergence criterion met
 Total energy in the final basis set = -1510.25725427
   11   -1510.2573086056      6.99E-09 Convergence criterion met
 Total energy in the final basis set = -1510.25730861
   11   -1510.2573511255      4.21E-09 Convergence criterion met
 Total energy in the final basis set = -1510.25735113
   11   -1510.2573672530      2.96E-09 Convergence criterion met
 Total energy in the final basis set = -1510.25736725

             Standard Nuclear Orientation (Angstroms)
    I     Atom           X                Y                Z
 ----------------------------------------------------------------
    1      O       3.6025185408    -1.5938627373    -1.5998777826
    2      C       4.5079620827    -0.7757548940    -1.3360448747
    3      C       4.4253438634     0.5625719593    -0.5199632055
    4      C       3.1520970646     0.7851187174     0.3859337634
    5      C       2.4075349936    -0.5013485335     0.9074104616
    6      O       1.2403246363    -0.0685070162     1.6752177320
    7      C       0.0142502684    -0.5733173939     1.0180773212
    8      C      -1.1659561273     0.3241755864     1.5421048320
    9      O      -2.4171565676     0.0764924315     0.7889254780
   10      C      -2.4310952754     0.8098959457    -0.4394096029
   11      C      -3.7736549977     0.5539039256    -1.2129608119
   12      C      -4.7264484058    -0.5594026626    -0.6178196615
   13      C      -4.0757877597    -1.6182854747     0.3396515497
   14      O      -4.4685306759    -1.9473497058     1.4798160038
   15      O       5.8619502427    -0.9160302312    -1.7902478396
   16      O      -3.0621809232    -2.3154607581    -0.4052631048
   17      O      -1.5083941081     1.5709189138    -0.8045913590
   18      C      -2.5050835432    -3.4242896103     0.4013270676
   19      C      -4.6893539534     1.8385246434    -0.9799814492
   20      C      -5.9832196229     1.7548757357    -1.8837651793
   21      C      -6.8695066250     0.7401342908    -1.0686615948
   22      C      -5.8578194331     0.3202140945     0.0662192031
   23      O      -5.1875366340     1.6004328660     0.3948028547
   24      H      -3.5406819819     0.3861610036    -2.2794878492
   25      H      -5.1591717543    -1.1355428211    -1.4568859529
   26      H      -4.1386085695     2.7979989203    -1.0352419685
   27      H      -6.4624507187     2.7433605261    -1.9629738928
   28      H      -5.7510757561     1.3937744152    -2.8987264950
   29      H      -7.7527278438     1.2355622161    -0.6343478542
   30      H      -7.2038555270    -0.1174449397    -1.6739780221
   31      H      -6.2982072482    -0.1345623078     0.9751519953
   32      O       2.7572689590    -1.6934521548     0.8229954575
   33      C       5.9978302160    -2.1525619122    -2.5931132005
   34      C       5.6064524417     0.8337076926     0.5159419512
   35      C       5.8059910571     2.3970259219     0.5829082843
   36      C       4.4808597425     2.8268194981     1.3164938316
   37      C       3.8498384244     1.4215116483     1.6711484239
   38      O       5.0194858355     0.5251324492     1.8393932998
   39      H       4.4441798316     1.3627804356    -1.2854416447
   40      H       2.4109783347     1.4608352377    -0.0765049511
   41      H       5.3565740578    -2.1250913661    -3.4978921206
   42      H       6.5204261323     0.2354315482     0.3363720318
   43      H       6.6964467467     2.6442582775     1.1831766315
   44      H       5.9125093001     2.8520346137    -0.4147796513
   45      H       4.6886208768     3.4002602110     2.2336489667
   46      H       3.8146474086     3.4227552824     0.6717738609
   47      H       3.2121661079     1.4073155922     2.5765231648
   48      H       5.7332989095    -3.0539434978    -2.0033954999
   49      H       7.0600919930    -2.2056407678    -2.8949067040
   50      H      -1.4165788682    -3.2689425146     0.5343893587
   51      H      -2.6701853352    -4.3783647510    -0.1371505430
   52      H      -3.0097844011    -3.4528976656     1.3884749421
   53      H      -1.3958556786     0.0874311167     2.5999158428
   54      H      -0.8666693128     1.3903992379     1.4536356317
   55      H      -0.1740622504    -1.6434460727     1.2596539234
   56      H       0.0719879503    -0.4731173908    -0.0883227995
 ----------------------------------------------------------------

   10   -1510.2573664924      6.93E-09 Convergence criterion met
 Total energy in the final basis set = -1510.25736649
 Final energy is   -1510.25736649242
 **  OPTIMIZATION CONVERGED  **

                    Orbital Energies (a.u.)
 --------------------------------------------------------------

 Alpha MOs
 -- Occupied --
-18.946 -18.930 -18.922 -18.901 -18.900 -18.887 -18.887 -18.879
-18.875 -18.868 -10.106 -10.104 -10.098 -10.098 -10.075 -10.071
-10.062 -10.062 -10.060 -10.059 -10.058 -10.053 -10.042 -10.038
-10.037 -10.037 -10.022 -10.021 -10.020 -10.020  -1.021  -1.010
 -1.003  -1.002  -0.971  -0.971  -0.944  -0.936  -0.931  -0.929
 -0.765  -0.762  -0.728  -0.722  -0.711  -0.706  -0.696  -0.660
 -0.657  -0.613  -0.598  -0.586  -0.544  -0.544  -0.538  -0.538
 -0.517  -0.510  -0.490  -0.467  -0.460  -0.458  -0.455  -0.447
 -0.435  -0.432  -0.429  -0.410  -0.409  -0.408  -0.406  -0.397
 -0.394  -0.390  -0.374  -0.372  -0.365  -0.355  -0.351  -0.349
 -0.344  -0.339  -0.338  -0.332  -0.330  -0.321  -0.314  -0.312
 -0.311  -0.308  -0.307  -0.302  -0.298  -0.295  -0.291  -0.275
 -0.271  -0.254  -0.248  -0.244  -0.241  -0.235  -0.233  -0.186
 -0.176  -0.167  -0.162  -0.161  -0.158  -0.151  -0.146  -0.145
 -0.141

          Ground-State Mulliken Net Atomic Charges

     Atom                 Charge (a.u.)
  ----------------------------------------
      1 O                    -0.207224
      2 C                     0.210603
      3 C                    -0.081368
      4 C                    -0.078856
      5 C                     0.223191
      6 O                    -0.198850
      7 C                    -0.047744
      8 C                    -0.045615
      9 O                    -0.165679
     10 C                     0.214144
     11 C                    -0.076223
     12 C                    -0.079703
     13 C                     0.222291
     14 O                    -0.220062
     15 O                    -0.174049
     16 O                    -0.178153
     17 O                    -0.217185
     18 C                    -0.136846
     19 C                     0.024558
     20 C                    -0.145033
     21 C                    -0.142352
     22 C                     0.023814
     23 O                    -0.191303
     24 H                     0.088220
     25 H                     0.084002
     26 H                     0.084324
     27 H                     0.078718
     28 H                     0.073954
     29 H                     0.078309
     30 H                     0.073419
     31 H                     0.091542
     32 O                    -0.174350
     33 C                    -0.128502
     34 C                     0.025169
     35 C                    -0.141802
     36 C                    -0.145163
     37 C                     0.024384
     38 O                    -0.190919
     39 H                     0.083574
     40 H                     0.086921
     41 H                     0.087369
     42 H                     0.090765
     43 H                     0.078084
     44 H                     0.073801
     45 H                     0.078843
     46 H                     0.074425
     47 H                     0.087920
     48 H                     0.091415
     49 H                     0.089366
     50 H                     0.081572
     51 H                     0.083529
     52 H                     0.101128
     53 H                     0.095775
     54 H                     0.097683
     55 H                     0.080502
     56 H                     0.083668
  ----------------------------------------
  Sum of atomic charges =    -0.000000

                    Cartesian Multipole Moments
 -----------------------------------------------------------------
    Charge (ESU x 10^10)
                -0.0000
    Dipole Moment (Debye)
         X      -0.0348      Y       1.2802      Z      -2.8470
       Tot       3.1218
    Quadrupole Moments (Debye-Ang)
        XX    -148.6579     XY       5.5907     YY    -156.8683
        XZ       2.6762     YZ       2.8789     ZZ    -160.3082

 Total job time:  56.77s(wall), 2697.10s(cpu)
        *  Thank you very much for using Q-Chem.  Have a nice day.  *
