 Q-Chem 5.0, Q-Chem, Inc., Pleasanton, CA (2017)
 Q-Chem 5.0.1 for Intel X86 EM64T Linux

User input:
--------------------------------------------------------------
$molecule
0  1
O 3.6025185408 -1.5938627373 -1.5998777826
C 4.5079620827 -0.775754894 -1.3360448747
C 4.4253438634 0.5625719593 -0.5199632055
C 3.1520970646 0.7851187174 0.3859337634
C 2.4075349936 -0.5013485335 0.9074104616
O 1.2403246363 -0.0685070162 1.675217732
C 0.0142502684 -0.5733173939 1.0180773212
C -1.1659561273 0.3241755864 1.542104832
O -2.4171565676 0.0764924315 0.788925478
C -2.4310952754 0.8098959457 -0.4394096029
C -3.7736549977 0.5539039256 -1.2129608119
C -4.7264484058 -0.5594026626 -0.6178196615
C -4.0757877597 -1.6182854747 0.3396515497
O -4.4685306759 -1.9473497058 1.4798160038
O 5.8619502427 -0.9160302312 -1.7902478396
O -3.0621809232 -2.3154607581 -0.4052631048
O -1.5083941081 1.5709189138 -0.804591359
C -2.5050835432 -3.4242896103 0.4013270676
C -4.6893539534 1.8385246434 -0.9799814492
C -5.9832196229 1.7548757357 -1.8837651793
C -6.869506625 0.7401342908 -1.0686615948
C -5.8578194331 0.3202140945 0.0662192031
O -5.187536634 1.600432866 0.3948028547
H -3.5406819819 0.3861610036 -2.2794878492
H -5.1591717543 -1.1355428211 -1.4568859529
H -4.1386085695 2.7979989203 -1.0352419685
H -6.4624507187 2.7433605261 -1.9629738928
H -5.7510757561 1.3937744152 -2.898726495
H -7.7527278438 1.2355622161 -0.6343478542
H -7.203855527 -0.1174449397 -1.6739780221
H -6.2982072482 -0.1345623078 0.9751519953
O 2.757268959 -1.6934521548 0.8229954575
C 5.997830216 -2.1525619122 -2.5931132005
C 5.6064524417 0.8337076926 0.5159419512
C 5.8059910571 2.3970259219 0.5829082843
C 4.4808597425 2.8268194981 1.3164938316
C 3.8498384244 1.4215116483 1.6711484239
O 5.0194858355 0.5251324492 1.8393932998
H 4.4441798316 1.3627804356 -1.2854416447
H 2.4109783347 1.4608352377 -0.0765049511
H 5.3565740578 -2.1250913661 -3.4978921206
H 6.5204261323 0.2354315482 0.3363720318
H 6.6964467467 2.6442582775 1.1831766315
H 5.9125093001 2.8520346137 -0.4147796513
H 4.6886208768 3.400260211 2.2336489667
H 3.8146474086 3.4227552824 0.6717738609
H 3.2121661079 1.4073155922 2.5765231648
H 5.7332989095 -3.0539434978 -2.0033954999
H 7.060091993 -2.2056407678 -2.894906704
H -1.4165788682 -3.2689425146 0.5343893587
H -2.6701853352 -4.378364751 -0.137150543
H -3.0097844011 -3.4528976656 1.3884749421
H -1.3958556786 0.0874311167 2.5999158428
H -0.8666693128 1.3903992379 1.4536356317
H -0.1740622504 -1.6434460727 1.2596539234
H 0.0719879503 -0.4731173908 -0.0883227995
$end

$rem
JOBTYPE                   OPT
METHOD                    B3LYP
DFT_D                     d3_op
BASIS                     STO-3G
GEOM_OPT_MAX_CYCLES       100
GEOM_OPT_TOL_GRADIENT     300
GEOM_OPT_TOL_DISPLACEMENT 1200
GEOM_OPT_TOL_ENERGY       100
SYMMETRY                  False
THRESH                    12
SCF_CONVERGENCE           8
MAX_SUB_FILE_NUM          128
MEM_STATIC                400
MEM_TOTAL                 4000
$end
--------------------------------------------------------------

   16   -1510.2571759780      5.59E-09 Convergence criterion met
 Total energy in the final basis set = -1510.25717598
   13   -1510.2602713053      9.67E-09 Convergence criterion met
 Total energy in the final basis set = -1510.26027131
   14   -1510.2637626970      6.05E-09 Convergence criterion met
 Total energy in the final basis set = -1510.26376270
   14   -1510.2672888603      3.87E-09 Convergence criterion met
 Total energy in the final basis set = -1510.26728886
   14   -1510.2710489349      5.50E-09 Convergence criterion met
 Total energy in the final basis set = -1510.27104893
   14   -1510.2742448988      2.91E-09 Convergence criterion met
 Total energy in the final basis set = -1510.27424490
   13   -1510.2769448156      8.64E-09 Convergence criterion met
 Total energy in the final basis set = -1510.27694482
   13   -1510.2790604298      6.73E-09 Convergence criterion met
   12   -1510.2905498469      5.04E-09 Convergence criterion met
 Total energy in the final basis set = -1510.29054985
   12   -1510.2905731096      3.51E-09 Convergence criterion met
 Total energy in the final basis set = -1510.29057311
   12   -1510.2905737945      3.78E-09 Convergence criterion met
 Total energy in the final basis set = -1510.29057379
   10   -1510.2905792618      5.37E-09 Convergence criterion met
 Total energy in the final basis set = -1510.29057926
   11   -1510.2905790908      5.91E-09 Convergence criterion met
 Total energy in the final basis set = -1510.29057909
    9   -1510.2905816285      9.44E-09 Convergence criterion met
 Total energy in the final basis set = -1510.29058163

             Standard Nuclear Orientation (Angstroms)
    I     Atom           X                Y                Z
 ----------------------------------------------------------------
    1      O       4.2654410749    -1.9413745410    -1.6676519606
    2      C       4.0853159601    -1.3229251532    -0.5960977697
    3      C       4.6420170671     0.1032443274    -0.2337656046
    4      C       3.5547467590     1.2546132348    -0.2355096736
    5      C       2.1200436180     0.7573020057    -0.6135203052
    6      O       1.1833587300     1.7944924018    -0.3417224232
    7      C      -0.1799826901     1.3231115349    -0.6902456934
    8      C      -1.2090210291     2.4607456041    -0.3697022121
    9      O      -2.5621223472     1.8618544359    -0.2363252534
   10      C      -3.0341269068     1.4053468508    -1.5095737367
   11      C      -4.3133443727     0.5280838774    -1.2930708497
   12      C      -3.9682023833    -0.9527018875    -0.8056987135
   13      C      -2.4361012608    -1.2348239335    -0.6097446150
   14      O      -1.7348095832    -0.9692560536     0.3950697879
   15      O       3.4224442457    -1.8703773378     0.5516037010
   16      O      -1.9390040656    -1.8717337302    -1.7846705701
   17      O      -2.4727343765     1.6527658945    -2.5999156070
   18      C      -0.5181421662    -2.2730013704    -1.6097662594
   19      C      -5.2237103288     1.0284928572    -0.0916121235
   20      C      -6.6342139232     0.3252969535    -0.2117159292
   21      C      -6.2890838464    -1.1321683591     0.2727884578
   22      C      -4.7456328927    -0.9937376644     0.5777543848
   23      O      -4.6149131238     0.3865402033     1.0945463438
   24      H      -4.8656266792     0.4993887782    -2.2489024375
   25      H      -4.3614291246    -1.6935224804    -1.5242218744
   26      H      -5.2527335994     2.1278609545     0.0345866564
   27      H      -7.3630715956     0.8115135289     0.4559121117
   28      H      -7.0258002155     0.3508076308    -1.2412927066
   29      H      -6.8399700024    -1.3935375715     1.1902870507
   30      H      -6.4951340119    -1.8966163846    -0.4933858386
   31      H      -4.3373821140    -1.7177849875     1.3090663956
   32      O       1.8116854514    -0.3606740963    -1.0926546838
   33      C       2.8596430000    -3.1963001694     0.2159922690
   34      C       5.1536250582     0.1912663537     1.2682241683
   35      C       6.0505777171     1.4840359542     1.4186975308
   36      C       4.9568671955     2.6160723624     1.4262853486
   37      C       3.6378408740     1.7624496719     1.2687892404
   38      O       3.9292032139     0.5284858412     2.0309632966
   39      H       5.4473404330     0.3299781302    -0.9542186629
   40      H       3.8285832992     2.0625809864    -0.9390349944
   41      H       3.6558187206    -3.9337142372    -0.0158455017
   42      H       5.6039111441    -0.7430573280     1.6545820764
   43      H       6.6085939200     1.4556053470     2.3679984254
   44      H       6.7683729760     1.5904584485     0.5896952420
   45      H       4.9478281113     3.1629795674     2.3824732077
   46      H       5.0849038098     3.3398169810     0.6056355533
   47      H       2.7090309580     2.2423378681     1.6334418566
   48      H       2.1727244548    -3.1353203737    -0.6519584924
   49      H       2.3003571620    -3.5264518136     1.1107015108
   50      H       0.1744488733    -1.4126084947    -1.4574474194
   51      H      -0.2464095340    -2.8016394965    -2.5415176258
   52      H      -0.4117138179    -2.9668236638    -0.7515209278
   53      H      -0.9864683810     2.9127587995     0.6174287600
   54      H      -1.1906979385     3.2485087410    -1.1529495534
   55      H      -0.4629065755     0.4194815078    -0.0971385324
   56      H      -0.2361366650     1.0618171556    -1.7683811239
 ----------------------------------------------------------------

    9   -1510.2905815629      7.31E-09 Convergence criterion met
 Total energy in the final basis set = -1510.29058156
 Final energy is   -1510.29058156288
 **  OPTIMIZATION CONVERGED  **

                    Orbital Energies (a.u.)
 --------------------------------------------------------------

 Alpha MOs
 -- Occupied --
-18.945 -18.937 -18.936 -18.919 -18.889 -18.889 -18.887 -18.878
-18.877 -18.857 -10.111 -10.102 -10.101 -10.088 -10.074 -10.063
-10.062 -10.061 -10.060 -10.058 -10.053 -10.049 -10.041 -10.041
-10.039 -10.033 -10.022 -10.020 -10.020 -10.019  -1.023  -1.016
 -1.010  -0.996  -0.971  -0.969  -0.946  -0.939  -0.935  -0.922
 -0.765  -0.762  -0.729  -0.722  -0.714  -0.707  -0.695  -0.659
 -0.651  -0.616  -0.598  -0.581  -0.547  -0.545  -0.538  -0.536
 -0.517  -0.512  -0.483  -0.477  -0.464  -0.461  -0.451  -0.440
 -0.435  -0.433  -0.429  -0.415  -0.407  -0.404  -0.403  -0.398
 -0.391  -0.386  -0.370  -0.366  -0.363  -0.360  -0.352  -0.347
 -0.339  -0.337  -0.333  -0.332  -0.329  -0.327  -0.326  -0.315
 -0.309  -0.307  -0.306  -0.302  -0.293  -0.283  -0.281  -0.280
 -0.274  -0.264  -0.250  -0.248  -0.241  -0.235  -0.233  -0.191
 -0.178  -0.175  -0.162  -0.161  -0.159  -0.151  -0.144  -0.143
 -0.138

          Ground-State Mulliken Net Atomic Charges

     Atom                 Charge (a.u.)
  ----------------------------------------
      1 O                    -0.220304
      2 C                     0.213057
      3 C                    -0.081388
      4 C                    -0.077869
      5 C                     0.221150
      6 O                    -0.170158
      7 C                    -0.064232
      8 C                    -0.047370
      9 O                    -0.163002
     10 C                     0.203312
     11 C                    -0.078373
     12 C                    -0.078526
     13 C                     0.207147
     14 O                    -0.213869
     15 O                    -0.169482
     16 O                    -0.168210
     17 O                    -0.213895
     18 C                    -0.143301
     19 C                     0.026784
     20 C                    -0.144049
     21 C                    -0.143998
     22 C                     0.026301
     23 O                    -0.182654
     24 H                     0.086075
     25 H                     0.086985
     26 H                     0.085522
     27 H                     0.078339
     28 H                     0.073633
     29 H                     0.078412
     30 H                     0.073648
     31 H                     0.086070
     32 O                    -0.210401
     33 C                    -0.127328
     34 C                     0.026796
     35 C                    -0.144474
     36 C                    -0.143745
     37 C                     0.025126
     38 O                    -0.185899
     39 H                     0.083192
     40 H                     0.086797
     41 H                     0.084035
     42 H                     0.085591
     43 H                     0.077821
     44 H                     0.073474
     45 H                     0.078230
     46 H                     0.073187
     47 H                     0.088563
     48 H                     0.089952
     49 H                     0.088150
     50 H                     0.110347
     51 H                     0.087866
     52 H                     0.082126
     53 H                     0.095869
     54 H                     0.090741
     55 H                     0.108267
     56 H                     0.089958
  ----------------------------------------
  Sum of atomic charges =    -0.000000

                    Cartesian Multipole Moments
 -----------------------------------------------------------------
    Charge (ESU x 10^10)
                 0.0000
    Dipole Moment (Debye)
         X      -0.8860      Y       0.7644      Z      -0.1623
       Tot       1.1814
    Quadrupole Moments (Debye-Ang)
        XX    -138.3412     XY      10.1905     YY    -150.4830
        XZ       6.4156     YZ      -1.9727     ZZ    -171.9155

 Total job time:  149.23s(wall), 7108.22s(cpu)
        *  Thank you very much for using Q-Chem.  Have a nice day.  *
