 Q-Chem 5.0, Q-Chem, Inc., Pleasanton, CA (2017)
 Q-Chem 5.0.1 for Intel X86 EM64T Linux

User input:
--------------------------------------------------------------
$molecule
0  1
O -2.6944664173 -2.7697675596 -0.3953395078
C -2.5718930588 -1.7556505685 0.323150145
C -3.7172899198 -0.8299576255 0.866749617
C -3.4421902239 0.7178608324 0.7785250711
C -2.3827932334 1.0623242297 -0.3334475641
O -2.1526550193 2.4805442388 -0.3513830229
C -0.7170563943 2.8644759036 -0.2694839531
C 0.2997258264 1.7127039813 0.0669989517
O 1.5868517242 2.3236852249 0.4637242368
C 2.6957698281 1.7395911951 -0.2896999913
C 3.5694819462 0.7784716068 0.5924506573
C 3.3116084929 -0.7799950006 0.3989768038
C 2.6539819665 -1.2352903928 -0.9647470302
O 3.0891152709 -2.1277680071 -1.7236206296
O -1.3617296372 -1.4081973101 1.0209083604
O 1.4303354114 -0.5380220915 -1.1968308007
O 2.9237722682 2.0367841923 -1.4809019783
C 0.7861010433 -0.9644560875 -2.4621808422
C 5.1410621867 0.8586513205 0.3435891785
C 5.8411429421 0.4643723312 1.7012754463
C 5.5025683873 -1.0721841851 1.7658704575
C 4.8086487181 -1.2993183842 0.3647892072
O 5.4433346801 -0.2987204602 -0.5275074325
H 3.3404064542 1.0413466322 1.6410989398
H 2.7210164695 -1.1906464752 1.2387726425
H 5.4881193361 1.7997349777 -0.1252045669
H 6.9279311774 0.6327334088 1.6328496869
H 5.4468807032 1.02896177 2.5612191187
H 6.4126215822 -1.6864155518 1.851449082
H 4.8294812972 -1.322363435 2.6018093092
H 4.9089642809 -2.3146235023 -0.0656229906
O -1.8537614988 0.2354753775 -1.1117621956
C -0.3122273334 -2.405594861 0.7214122057
C -5.103401563 -0.952439506 0.1024349415
C -6.2348239331 -0.5952974803 1.1413511716
C -5.9732921607 0.9459132404 1.3345477742
C -4.8577362716 1.214202921 0.2461546912
O -5.1300327471 0.2129938155 -0.8135141902
H -3.850085336 -1.114729428 1.9275545483
H -3.1424869081 1.1754238257 1.7373294475
H -0.1341571316 -2.5020231994 -0.3669966914
H -5.2325301141 -1.8979768203 -0.4599000195
H -7.2287609932 -0.7807123237 0.7033266264
H -6.1465793081 -1.1682315273 2.0782705179
H -6.874008352 1.5429805055 1.1217072902
H -5.6195330991 1.1907139201 2.3490917419
H -4.8457121627 2.2380337566 -0.1761017448
H -0.5751635074 -3.4056944925 1.1242732267
H 0.6066759055 -2.040597042 1.2144242885
H -0.274090767 -0.6541458211 -2.3677685712
H 0.8632956016 -2.060335261 -2.603139374
H 1.2566148555 -0.4581949338 -3.3295907528
H -0.0892025413 1.1323476001 0.9362492367
H 0.4303114406 1.0009564243 -0.7696378745
H -0.6588255645 3.6376831163 0.5278690693
H -0.4179258827 3.3447294733 -1.2280581397
$end

$rem
JOBTYPE                   OPT
METHOD                    B3LYP
DFT_D                     d3_op
BASIS                     STO-3G
GEOM_OPT_MAX_CYCLES       100
GEOM_OPT_TOL_GRADIENT     300
GEOM_OPT_TOL_DISPLACEMENT 1200
GEOM_OPT_TOL_ENERGY       100
SYMMETRY                  False
THRESH                    12
SCF_CONVERGENCE           8
MAX_SUB_FILE_NUM          128
MEM_STATIC                400
MEM_TOTAL                 4000
$end
--------------------------------------------------------------

   16   -1510.2474819080      5.27E-09 Convergence criterion met
 Total energy in the final basis set = -1510.24748191
   15   -1510.2505655247      3.08E-09 Convergence criterion met
 Total energy in the final basis set = -1510.25056552
   14   -1510.2555186950      5.34E-09 Convergence criterion met
 Total energy in the final basis set = -1510.25551870
   14   -1510.2578205279      5.02E-09 Convergence criterion met
 Total energy in the final basis set = -1510.25782053
   13   -1510.2623229562      8.72E-09 Convergence criterion met
 Total energy in the final basis set = -1510.26232296
   14   -1510.2661021395      5.49E-09 Convergence criterion met
 Total energy in the final basis set = -1510.26610214
   13   -1510.2690629147      7.10E-09 Convergence criterion met
 Total energy in the final basis set = -1510.26906291
   13   -1510.2723845894      4.39E-09 Convergence criterion met
   11   -1510.2953493243      8.25E-09 Convergence criterion met
 Total energy in the final basis set = -1510.29534932
   12   -1510.2953729552      3.05E-09 Convergence criterion met
 Total energy in the final basis set = -1510.29537296
   11   -1510.2953816871      2.63E-09 Convergence criterion met
 Total energy in the final basis set = -1510.29538169
   11   -1510.2953835368      2.38E-09 Convergence criterion met
 Total energy in the final basis set = -1510.29538354
   10   -1510.2953851481      8.92E-09 Convergence criterion met
 Total energy in the final basis set = -1510.29538515
    9   -1510.2953856790      7.59E-09 Convergence criterion met
 Total energy in the final basis set = -1510.29538568

             Standard Nuclear Orientation (Angstroms)
    I     Atom           X                Y                Z
 ----------------------------------------------------------------
    1      O      -2.1009222195    -2.3113439358     0.0535977854
    2      C      -2.3309874560    -1.2980629080     0.7520284993
    3      C      -3.6974984374    -0.5155820352     0.8115553740
    4      C      -3.6501685465     0.9866306565     0.2928861220
    5      C      -2.1984556473     1.4242736967    -0.0795405778
    6      O      -1.8737232471     2.6169553936     0.6545672174
    7      C      -0.3986499472     2.7893900781     0.6868214118
    8      C       0.1238932153     1.8801301897     1.8702367558
    9      O       1.5711085957     1.5334736839     1.8740083828
   10      C       1.9593136136     0.8311760315     0.6938196132
   11      C       3.3036761054     0.0765199045     0.9499585956
   12      C       3.5656268627    -1.0389146882    -0.1438020506
   13      C       2.4587822101    -1.1474368559    -1.2638655338
   14      O       2.5814992103    -0.8309734947    -2.4647690646
   15      O      -1.3979957093    -0.7574560662     1.6959148743
   16      O       1.3148686966    -1.8447988233    -0.7319644641
   17      O       1.3275456942     0.8194571317    -0.3892301131
   18      C       0.2419045822    -1.9219565145    -1.7527003593
   19      C       4.5692105415     1.0171588124     0.7281788839
   20      C       5.8341482201     0.2871217885     1.3315052326
   21      C       6.0962491247    -0.8177441637     0.2421164595
   22      C       4.9256472369    -0.5268786133    -0.7752737720
   23      O       4.7872219736     0.9493778801    -0.7324829774
   24      H       3.2888198037    -0.3381244207     1.9734334960
   25      H       3.6742754323    -2.0309908675     0.3305517289
   26      H       4.4252104989     2.0647093102     1.0573341993
   27      H       6.6801704684     0.9884819942     1.4095377957
   28      H       5.6323579358    -0.1351857871     2.3288219777
   29      H       7.0742562315    -0.6793293037    -0.2455549659
   30      H       6.0470658927    -1.8395430532     0.6514292351
   31      H       5.0909072965    -0.8651010202    -1.8163667356
   32      O      -1.4178694849     0.8244844498    -0.8504346322
   33      C      -0.1808384652    -1.6143043187     1.7674476172
   34      C      -4.7138273686    -1.1545513889    -0.2232774168
   35      C      -6.1678653876    -0.6334170441     0.1032249875
   36      C      -6.0996660400     0.8360429414    -0.4561034319
   37      C      -4.6090596931     0.8932839658    -0.9739175382
   38      O      -4.3694478709    -0.4712178574    -1.4923847646
   39      H      -4.0744319051    -0.5574765900     1.8503100244
   40      H      -4.0432183433     1.6850421169     1.0518058611
   41      H       0.4172980572    -1.5990850539     0.8189293235
   42      H      -4.6046254468    -2.2505073544    -0.3366554563
   43      H      -6.9215800817    -1.2344478907    -0.4297576372
   44      H      -6.3873395682    -0.6679588319     1.1822748211
   45      H      -6.8018852274     0.9829248636    -1.2920711499
   46      H      -6.3026328598     1.5968326909     0.3144502565
   47      H      -4.4078228298     1.6483914471    -1.7582697083
   48      H      -0.4585881202    -2.6607638620     2.0012689726
   49      H       0.4179102850    -1.2002932031     2.5988213098
   50      H      -0.6572332821    -2.2841133560    -1.2100660943
   51      H       0.5172940555    -2.6194707004    -2.5686958856
   52      H       0.0326449235    -0.9210546379    -2.1797490602
   53      H      -0.0428845210     2.3845362472     2.8425012935
   54      H      -0.4814164057     0.9396603329     1.8447663726
   55      H      -0.1939203983     3.8637322194     0.8563364520
   56      H       0.0590681306     2.4295056109    -0.2590545627
 ----------------------------------------------------------------

    9   -1510.2953860188      6.44E-09 Convergence criterion met
 Total energy in the final basis set = -1510.29538602
 Final energy is   -1510.29538601882
 **  OPTIMIZATION CONVERGED  **

                    Orbital Energies (a.u.)
 --------------------------------------------------------------

 Alpha MOs
 -- Occupied --
-18.942 -18.939 -18.930 -18.919 -18.890 -18.889 -18.887 -18.885
-18.878 -18.860 -10.108 -10.107 -10.099 -10.089 -10.062 -10.062
-10.062 -10.060 -10.060 -10.056 -10.046 -10.042 -10.039 -10.039
-10.033 -10.031 -10.022 -10.021 -10.021 -10.019  -1.020  -1.016
 -1.008  -0.994  -0.972  -0.969  -0.945  -0.941  -0.936  -0.921
 -0.765  -0.762  -0.727  -0.723  -0.712  -0.705  -0.693  -0.659
 -0.642  -0.619  -0.595  -0.581  -0.548  -0.545  -0.539  -0.536
 -0.512  -0.508  -0.483  -0.473  -0.463  -0.456  -0.453  -0.452
 -0.436  -0.433  -0.432  -0.420  -0.409  -0.397  -0.392  -0.389
 -0.386  -0.379  -0.376  -0.369  -0.361  -0.356  -0.351  -0.348
 -0.342  -0.335  -0.335  -0.331  -0.329  -0.328  -0.323  -0.312
 -0.311  -0.307  -0.306  -0.301  -0.296  -0.289  -0.279  -0.274
 -0.270  -0.262  -0.259  -0.240  -0.236  -0.235  -0.233  -0.193
 -0.181  -0.169  -0.162  -0.159  -0.157  -0.150  -0.145  -0.144
 -0.139

          Ground-State Mulliken Net Atomic Charges

     Atom                 Charge (a.u.)
  ----------------------------------------
      1 O                    -0.208123
      2 C                     0.219414
      3 C                    -0.078308
      4 C                    -0.080486
      5 C                     0.207185
      6 O                    -0.174381
      7 C                    -0.063972
      8 C                    -0.064554
      9 O                    -0.173611
     10 C                     0.214983
     11 C                    -0.079872
     12 C                    -0.081602
     13 C                     0.220142
     14 O                    -0.211372
     15 O                    -0.175829
     16 O                    -0.182310
     17 O                    -0.196411
     18 C                    -0.141377
     19 C                     0.025576
     20 C                    -0.143443
     21 C                    -0.144344
     22 C                     0.025262
     23 O                    -0.187293
     24 H                     0.084283
     25 H                     0.082646
     26 H                     0.083939
     27 H                     0.078244
     28 H                     0.073138
     29 H                     0.078403
     30 H                     0.073170
     31 H                     0.091061
     32 O                    -0.202694
     33 C                    -0.150698
     34 C                     0.025081
     35 C                    -0.144554
     36 C                    -0.143460
     37 C                     0.026113
     38 O                    -0.185254
     39 H                     0.084681
     40 H                     0.086392
     41 H                     0.118261
     42 H                     0.090660
     43 H                     0.078931
     44 H                     0.072948
     45 H                     0.078928
     46 H                     0.073880
     47 H                     0.084967
     48 H                     0.082369
     49 H                     0.080081
     50 H                     0.106789
     51 H                     0.079007
     52 H                     0.099893
     53 H                     0.084632
     54 H                     0.101922
     55 H                     0.085294
     56 H                     0.115669
  ----------------------------------------
  Sum of atomic charges =     0.000000

                    Cartesian Multipole Moments
 -----------------------------------------------------------------
    Charge (ESU x 10^10)
                -0.0000
    Dipole Moment (Debye)
         X      -1.0106      Y       0.0650      Z       4.5501
       Tot       4.6615
    Quadrupole Moments (Debye-Ang)
        XX    -140.7359     XY      -7.1501     YY    -157.5787
        XZ       3.5810     YZ      -1.1215     ZZ    -164.8209

 Total job time:  147.58s(wall), 7043.45s(cpu)
        *  Thank you very much for using Q-Chem.  Have a nice day.  *
