 Q-Chem 5.0, Q-Chem, Inc., Pleasanton, CA (2017)
 Q-Chem 5.0.1 for Intel X86 EM64T Linux

User input:
--------------------------------------------------------------
$molecule
0  1
O -3.94934 -3.66094 2.70899
C -3.26408 -4.56952 2.26188
C -3.36658 -6.02376 2.66595
C -2.04995 -6.78278 2.89883
C -0.78248 -5.95752 2.87522
O 0.30108 -6.76562 3.07091
C 1.31435 -6.60028 2.07331
C 0.78939 -5.74024 0.92838
O 1.65336 -5.86355 -0.21233
C 2.07006 -4.69375 -0.75737
C 1.39562 -4.38424 -2.07266
C 0.25929 -3.3545 -1.9909
C 0.19943 -2.5363 -0.71667
O 0.13475 -1.31681 -0.65976
O -2.68383 -4.36629 1.05093
O -0.02473 -3.09447 0.48365
O 2.69517 -3.86131 -0.11409
C 0.04607 -2.33818 1.65737
C 2.31313 -3.72077 -3.1161
C 1.77509 -4.00107 -4.51783
C 0.51629 -3.15552 -4.51179
C 0.66989 -2.44057 -3.16239
O 2.06319 -2.34181 -2.98243
H 1.01956 -5.34903 -2.48666
H -0.73223 -3.83459 -2.12437
H 3.37537 -4.03894 -3.03449
H 2.50162 -3.55309 -5.23343
H 1.62461 -5.0715 -4.77556
H 0.57417 -2.43632 -5.35861
H -0.43797 -3.72406 -4.55644
H 0.10761 -1.48127 -3.17267
O -0.78231 -4.88003 3.44253
C -2.98789 -3.28173 0.24891
C -4.04409 -6.20897 4.03923
C -4.60832 -7.62492 4.16025
C -3.33401 -8.42192 4.33481
C -2.29883 -7.29435 4.33443
O -2.9722 -6.22222 4.94768
H -3.982 -6.51444 1.87861
H -1.90997 -7.62268 2.18158
H -2.73077 -2.33034 0.75786
H -4.84829 -5.4684 4.24072
H -5.19055 -7.67935 5.10791
H -5.25409 -7.93845 3.31192
H -3.3579 -8.90718 5.33621
H -3.13597 -9.18385 3.55023
H -1.36798 -7.63454 4.83899
H -4.07217 -3.28239 0.0067
H -2.43555 -3.35663 -0.70277
H -0.12834 -2.94244 2.54459
H -0.70999 -1.52466 1.65692
H 1.06106 -1.89574 1.76041
H -0.21371 -6.05673 0.562
H 0.86081 -4.7726 1.40577
H 1.5165 -7.6118 1.66089
H 2.25884 -6.20794 2.50967
$end

$opt
CONSTRAINT
tors           1           2           3           4    -136.586
tors           3           4           5           6    -178.895
tors           4           5           6           7    +128.083
tors           5           6           7           8     -10.039
tors           6           7           8           9    -164.856
tors           7           8           9          10    -129.146
tors           8           9          10          11    -106.629
tors           9          10          11          12    +101.424
tors          11          12          13          14    +128.626
ENDCONSTRAINT
$end

$rem
JOBTYPE                   OPT
METHOD                    B3LYP
DFT_D                     d3_op
BASIS                     STO-3G
GEOM_OPT_MAX_CYCLES       100
GEOM_OPT_TOL_GRADIENT     300
GEOM_OPT_TOL_DISPLACEMENT 1200
GEOM_OPT_TOL_ENERGY       100
SYMMETRY                  False
THRESH                    12
SCF_CONVERGENCE           8
MAX_SUB_FILE_NUM          128
MEM_STATIC                400
MEM_TOTAL                 4000
$end
--------------------------------------------------------------

   14   -1510.0693797444      9.73E-09 Convergence criterion met
 Total energy in the final basis set = -1510.06937974
   13   -1510.1492473616      9.41E-09 Convergence criterion met
 Total energy in the final basis set = -1510.14924736
   14   -1510.1774274888      4.14E-09 Convergence criterion met
 Total energy in the final basis set = -1510.17742749
   14   -1510.2164632999      3.45E-09 Convergence criterion met
 Total energy in the final basis set = -1510.21646330
   13   -1510.2290254121      7.33E-09 Convergence criterion met
 Total energy in the final basis set = -1510.22902541
   13   -1510.2339431213      7.86E-09 Convergence criterion met
 Total energy in the final basis set = -1510.23394312
   13   -1510.2406027924      5.47E-09 Convergence criterion met
 Total energy in the final basis set = -1510.24060279
   13   -1510.2437803415      4.55E-09 Convergence criterion met
   11   -1510.2474565636      2.80E-09 Convergence criterion met
 Total energy in the final basis set = -1510.24745656
   11   -1510.2474788788      3.09E-09 Convergence criterion met
 Total energy in the final basis set = -1510.24747888
    9   -1510.2474896364      8.03E-09 Convergence criterion met
 Total energy in the final basis set = -1510.24748964
   10   -1510.2474996036      7.41E-09 Convergence criterion met
 Total energy in the final basis set = -1510.24749960
   10   -1510.2475036706      4.89E-09 Convergence criterion met
 Total energy in the final basis set = -1510.24750367
    9   -1510.2475057544      6.05E-09 Convergence criterion met
 Total energy in the final basis set = -1510.24750575

             Standard Nuclear Orientation (Angstroms)
    I     Atom           X                Y                Z
 ----------------------------------------------------------------
    1      O      -2.6944664173    -2.7697675596    -0.3953395078
    2      C      -2.5718930588    -1.7556505685     0.3231501450
    3      C      -3.7172899198    -0.8299576255     0.8667496170
    4      C      -3.4421902239     0.7178608324     0.7785250711
    5      C      -2.3827932334     1.0623242297    -0.3334475641
    6      O      -2.1526550193     2.4805442388    -0.3513830229
    7      C      -0.7170563943     2.8644759036    -0.2694839531
    8      C       0.2997258264     1.7127039813     0.0669989517
    9      O       1.5868517242     2.3236852249     0.4637242368
   10      C       2.6957698281     1.7395911951    -0.2896999913
   11      C       3.5694819462     0.7784716068     0.5924506573
   12      C       3.3116084929    -0.7799950006     0.3989768038
   13      C       2.6539819665    -1.2352903928    -0.9647470302
   14      O       3.0891152709    -2.1277680071    -1.7236206296
   15      O      -1.3617296372    -1.4081973101     1.0209083604
   16      O       1.4303354114    -0.5380220915    -1.1968308007
   17      O       2.9237722682     2.0367841923    -1.4809019783
   18      C       0.7861010433    -0.9644560875    -2.4621808422
   19      C       5.1410621867     0.8586513205     0.3435891785
   20      C       5.8411429421     0.4643723312     1.7012754463
   21      C       5.5025683873    -1.0721841851     1.7658704575
   22      C       4.8086487181    -1.2993183842     0.3647892072
   23      O       5.4433346801    -0.2987204602    -0.5275074325
   24      H       3.3404064542     1.0413466322     1.6410989398
   25      H       2.7210164695    -1.1906464752     1.2387726425
   26      H       5.4881193361     1.7997349777    -0.1252045669
   27      H       6.9279311774     0.6327334088     1.6328496869
   28      H       5.4468807032     1.0289617700     2.5612191187
   29      H       6.4126215822    -1.6864155518     1.8514490820
   30      H       4.8294812972    -1.3223634350     2.6018093092
   31      H       4.9089642809    -2.3146235023    -0.0656229906
   32      O      -1.8537614988     0.2354753775    -1.1117621956
   33      C      -0.3122273334    -2.4055948610     0.7214122057
   34      C      -5.1034015630    -0.9524395060     0.1024349415
   35      C      -6.2348239331    -0.5952974803     1.1413511716
   36      C      -5.9732921607     0.9459132404     1.3345477742
   37      C      -4.8577362716     1.2142029210     0.2461546912
   38      O      -5.1300327471     0.2129938155    -0.8135141902
   39      H      -3.8500853360    -1.1147294280     1.9275545483
   40      H      -3.1424869081     1.1754238257     1.7373294475
   41      H      -0.1341571316    -2.5020231994    -0.3669966914
   42      H      -5.2325301141    -1.8979768203    -0.4599000195
   43      H      -7.2287609932    -0.7807123237     0.7033266264
   44      H      -6.1465793081    -1.1682315273     2.0782705179
   45      H      -6.8740083520     1.5429805055     1.1217072902
   46      H      -5.6195330991     1.1907139201     2.3490917419
   47      H      -4.8457121627     2.2380337566    -0.1761017448
   48      H      -0.5751635074    -3.4056944925     1.1242732267
   49      H       0.6066759055    -2.0405970420     1.2144242885
   50      H      -0.2740907670    -0.6541458211    -2.3677685712
   51      H       0.8632956016    -2.0603352610    -2.6031393740
   52      H       1.2566148555    -0.4581949338    -3.3295907528
   53      H      -0.0892025413     1.1323476001     0.9362492367
   54      H       0.4303114406     1.0009564243    -0.7696378745
   55      H      -0.6588255645     3.6376831163     0.5278690693
   56      H      -0.4179258827     3.3447294733    -1.2280581397
 ----------------------------------------------------------------

    9   -1510.2475060977      2.96E-09 Convergence criterion met
 Total energy in the final basis set = -1510.24750610
 Final energy is   -1510.24750609773
 **  OPTIMIZATION CONVERGED  **

                    Orbital Energies (a.u.)
 --------------------------------------------------------------

 Alpha MOs
 -- Occupied --
-18.945 -18.926 -18.920 -18.901 -18.900 -18.897 -18.890 -18.888
-18.885 -18.871 -10.114 -10.109 -10.108 -10.098 -10.071 -10.063
-10.063 -10.063 -10.062 -10.062 -10.060 -10.059 -10.048 -10.042
-10.040 -10.037 -10.024 -10.023 -10.023 -10.021  -1.021  -1.016
 -1.005  -1.003  -0.973  -0.972  -0.945  -0.944  -0.933  -0.932
 -0.767  -0.766  -0.728  -0.726  -0.712  -0.707  -0.694  -0.665
 -0.662  -0.616  -0.603  -0.585  -0.549  -0.548  -0.542  -0.539
 -0.513  -0.511  -0.492  -0.475  -0.461  -0.460  -0.455  -0.451
 -0.438  -0.434  -0.431  -0.423  -0.417  -0.411  -0.403  -0.400
 -0.396  -0.385  -0.373  -0.371  -0.366  -0.364  -0.358  -0.349
 -0.344  -0.342  -0.339  -0.335  -0.335  -0.331  -0.326  -0.316
 -0.312  -0.311  -0.309  -0.304  -0.303  -0.295  -0.285  -0.277
 -0.273  -0.264  -0.253  -0.245  -0.237  -0.236  -0.235  -0.186
 -0.175  -0.171  -0.167  -0.166  -0.155  -0.152  -0.150  -0.146
 -0.146

          Ground-State Mulliken Net Atomic Charges

     Atom                 Charge (a.u.)
  ----------------------------------------
      1 O                    -0.215993
      2 C                     0.215281
      3 C                    -0.081555
      4 C                    -0.076881
      5 C                     0.226891
      6 O                    -0.187933
      7 C                    -0.048985
      8 C                    -0.062760
      9 O                    -0.202931
     10 C                     0.221556
     11 C                    -0.084417
     12 C                    -0.076625
     13 C                     0.213293
     14 O                    -0.205770
     15 O                    -0.179334
     16 O                    -0.176682
     17 O                    -0.182767
     18 C                    -0.136167
     19 C                     0.024420
     20 C                    -0.142021
     21 C                    -0.145708
     22 C                     0.024296
     23 O                    -0.187211
     24 H                     0.084808
     25 H                     0.082092
     26 H                     0.086833
     27 H                     0.079116
     28 H                     0.073937
     29 H                     0.079552
     30 H                     0.072658
     31 H                     0.092182
     32 O                    -0.195294
     33 C                    -0.127697
     34 C                     0.023524
     35 C                    -0.142024
     36 C                    -0.144938
     37 C                     0.024266
     38 O                    -0.191212
     39 H                     0.083152
     40 H                     0.086587
     41 H                     0.091642
     42 H                     0.091400
     43 H                     0.078706
     44 H                     0.073178
     45 H                     0.079028
     46 H                     0.073487
     47 H                     0.087494
     48 H                     0.084734
     49 H                     0.082257
     50 H                     0.110346
     51 H                     0.094294
     52 H                     0.091218
     53 H                     0.075087
     54 H                     0.113531
     55 H                     0.088037
     56 H                     0.086020
  ----------------------------------------
  Sum of atomic charges =     0.000000

                    Cartesian Multipole Moments
 -----------------------------------------------------------------
    Charge (ESU x 10^10)
                 0.0000
    Dipole Moment (Debye)
         X      -0.6915      Y       0.1639      Z       4.6745
       Tot       4.7282
    Quadrupole Moments (Debye-Ang)
        XX    -159.2100     XY      -2.5275     YY    -164.0277
        XZ       2.4733     YZ      -2.6667     ZZ    -160.3879

 Total job time:  63.31s(wall), 3012.11s(cpu)
        *  Thank you very much for using Q-Chem.  Have a nice day.  *
