 Q-Chem 5.0, Q-Chem, Inc., Pleasanton, CA (2017)
 Q-Chem 5.0.1 for Intel X86 EM64T Linux

User input:
--------------------------------------------------------------
$molecule
0  1
O -2.1308884565 -2.4286793701 -0.3432155139
C -2.4329633793 -1.6112150857 0.5525302139
C -3.7698296428 -0.7681610011 0.6420587922
C -3.6126557987 0.7963026426 0.4412960254
C -2.138612836 1.1880655676 0.1093488624
O -1.9731941711 2.5914752186 0.1910579128
C -0.5611545099 3.0628216933 0.1136712211
C 0.4398090381 2.4053271216 1.1563697083
O 1.8341497455 2.5927487585 0.6985413327
C 2.6036864282 1.3635519041 0.5776007142
C 2.6205670911 0.6610722397 -0.8349619825
C 3.7771410834 -0.421357748 -0.9058053434
C 4.8748613244 -0.3122041629 0.2144558194
O 5.2800328448 -1.2255183861 0.9641310249
O -1.6927855075 -1.4164684418 1.7621033491
O 5.5067074518 0.973436821 0.0880737746
O 3.2535299679 0.9371059312 1.5587434948
C 6.5371604833 1.1280856794 1.137332986
C 1.3586952092 -0.2810236632 -0.9961694223
C 1.35678426 -0.9270631961 -2.4389601223
C 2.4165962711 -2.0798656976 -2.2806851756
C 2.9536168855 -1.7758360116 -0.8331977937
O 1.7189221095 -1.4038343386 -0.1010198927
H 2.691178984 1.4249642219 -1.629992998
H 4.2994052013 -0.3393945594 -1.8769507127
H 0.3809023874 0.1519605881 -0.6938863553
H 0.3559246308 -1.3238129893 -2.6720814665
H 1.6372294813 -0.1979881352 -3.2162475035
H 1.9379785338 -3.0718237829 -2.3130617472
H 3.2123620594 -2.0426727969 -3.0419469946
H 3.4849270937 -2.5990944686 -0.316572749
O -1.2535527169 0.3685797349 -0.2296204124
C -0.4701337571 -2.2592563924 1.7531644996
C -4.7385344803 -1.1298086883 -0.5596776193
C -6.1987613273 -0.6631976132 -0.1874026885
C -6.0627498111 0.8979171 -0.3354996054
C -4.5634161853 1.0317147142 -0.8152171831
O -4.3387620747 -0.1814948018 -1.6285649117
H -4.2383389768 -0.9805466979 1.6200101987
H -3.9491575941 1.3730646508 1.3210421217
H 0.2782787259 -1.9339851108 0.9883099579
H -4.6361614388 -2.1727299636 -0.9172730561
H -6.9288368447 -1.0731739896 -0.9033777126
H -6.4890566615 -0.9707361311 0.8299453766
H -6.7470407536 1.2943484826 -1.1024220901
H -6.2444627446 1.4330890868 0.6103601551
H -4.333729804 1.945459116 -1.3978002176
H -0.7239634138 -3.3231676933 1.5729671388
H -0.0318460986 -2.1548182247 2.7626521058
H 7.026982515 2.1009319914 0.9476910514
H 7.2922888965 0.3164463125 1.0961844745
H 6.0820312041 1.1342590219 2.1492546104
H 0.3201890522 2.9054059538 2.1429647197
H 0.1774980685 1.334665546 1.2824014744
H -0.6265265323 4.1568976844 0.2733826562
H -0.1613024384 2.8787038954 -0.9091422537
$end

$rem
JOBTYPE                   OPT
METHOD                    B3LYP
DFT_D                     d3_op
BASIS                     STO-3G
GEOM_OPT_MAX_CYCLES       100
GEOM_OPT_TOL_GRADIENT     300
GEOM_OPT_TOL_DISPLACEMENT 1200
GEOM_OPT_TOL_ENERGY       100
SYMMETRY                  False
THRESH                    12
SCF_CONVERGENCE           8
MAX_SUB_FILE_NUM          128
MEM_STATIC                400
MEM_TOTAL                 4000
$end
--------------------------------------------------------------

   16   -1510.2682700275      4.94E-09 Convergence criterion met
 Total energy in the final basis set = -1510.26827003
   14   -1510.2650520072      2.79E-09 Convergence criterion met
 Total energy in the final basis set = -1510.26505201
   14   -1510.2649436509      2.82E-09 Convergence criterion met
 Total energy in the final basis set = -1510.26494365
   14   -1510.2718963957      3.48E-09 Convergence criterion met
 Total energy in the final basis set = -1510.27189640
   14   -1510.2764722292      2.04E-09 Convergence criterion met
 Total energy in the final basis set = -1510.27647223
   13   -1510.2792937263      9.44E-09 Convergence criterion met
 Total energy in the final basis set = -1510.27929373
   13   -1510.2827537094      3.87E-09 Convergence criterion met
 Total energy in the final basis set = -1510.28275371
   13   -1510.2858595732      4.47E-09 Convergence criterion met
   12   -1510.3008595795      7.36E-09 Convergence criterion met
 Total energy in the final basis set = -1510.30085958
   10   -1510.3008698764      9.05E-09 Convergence criterion met
 Total energy in the final basis set = -1510.30086988
   12   -1510.3008749944      2.43E-09 Convergence criterion met
 Total energy in the final basis set = -1510.30087499
   12   -1510.3008763927      2.62E-09 Convergence criterion met
 Total energy in the final basis set = -1510.30087639
   11   -1510.3008745484      4.50E-09 Convergence criterion met
 Total energy in the final basis set = -1510.30087455
    9   -1510.3008761427      4.37E-09 Convergence criterion met
 Total energy in the final basis set = -1510.30087614

             Standard Nuclear Orientation (Angstroms)
    I     Atom           X                Y                Z
 ----------------------------------------------------------------
    1      O      -1.5322652861    -2.1282068367     0.2461675446
    2      C      -1.7848648651    -1.1684518727     1.0063649098
    3      C      -3.1611099612    -0.4129040721     1.1390271811
    4      C      -3.1821348730     1.0782093982     0.6101967879
    5      C      -1.8760702375     1.5158355036    -0.1291590343
    6      O      -1.7993904131     2.9440339586    -0.0628097225
    7      C      -0.7195155550     3.4789840270    -0.9264023493
    8      C       0.7434332025     3.2019823225    -0.4052178291
    9      O       1.3733536552     2.1526598541    -1.2382052463
   10      C       1.7416334196     1.0257117739    -0.4338580110
   11      C       2.2354739020    -0.1035750999    -1.3908349575
   12      C       3.3787752397    -1.0190519040    -0.7838974430
   13      C       3.7274869827    -0.6752627113     0.7096228675
   14      O       3.4843287703    -1.3595866786     1.7257019665
   15      O      -0.9016128855    -0.6295135998     1.9853066105
   16      O       4.4465576037     0.5652900955     0.7214064998
   17      O       1.6607066394     0.9986417607     0.8145489941
   18      C       4.6888061201     0.9866410144     2.1192356438
   19      C       1.0887527754    -1.1817542283    -1.6595387267
   20      C       1.4779304233    -1.9894418858    -2.9549035176
   21      C       2.6700143730    -2.8701987956    -2.4191210935
   22      C       2.7116659717    -2.4484521033    -0.8983820328
   23      O       1.2878301542    -2.1798756629    -0.5848907899
   24      H       2.5530547690     0.3689105287    -2.3364833917
   25      H       4.3008249756    -0.9415855107    -1.3877647221
   26      H       0.0617605046    -0.7640256152    -1.6107049702
   27      H       0.6314649316    -2.6142725388    -3.2817867447
   28      H       1.7739589098    -1.3295044488    -3.7859574686
   29      H       2.4543762562    -3.9459150041    -2.5169667625
   30      H       3.6207790358    -2.6510233687    -2.9309264720
   31      H       3.1219305474    -3.2002730126    -0.1968152722
   32      O      -1.0589926859     0.7910994408    -0.7374187641
   33      C       0.3585940065    -1.4147994292     2.0469795523
   34      C      -4.2782710483    -1.0783139342     0.2322004411
   35      C      -5.6894522257    -0.6509999567     0.7936098383
   36      C      -5.7388477920     0.8604344872     0.3554025331
   37      C      -4.3791153084     0.9943885536    -0.4404079985
   38      O      -4.1855254627    -0.3379398435    -1.0491310513
   39      H      -3.4489418461    -0.4341028016     2.2055530401
   40      H      -3.3951434009     1.8065459309     1.4119373472
   41      H       0.7289781548    -1.7012238797     1.0295017817
   42      H      -4.1296640418    -2.1619797508     0.0598202494
   43      H      -6.4898071553    -1.2355213836     0.3123729493
   44      H      -5.7625824937    -0.7807998739     1.8851559175
   45      H      -6.5950946554     1.0646339423    -0.3068921179
   46      H      -5.7821423459     1.5507442553     1.2127845899
   47      H      -4.3648586553     1.7853554785    -1.2159246065
   48      H       0.2017308741    -2.3305662354     2.6530341454
   49      H       1.0998973896    -0.7678028625     2.5485865488
   50      H       5.2784631165     1.9199578373     2.0614625821
   51      H       5.2560953497     0.2211100850     2.6868704570
   52      H       3.7320288800     1.1817388740     2.6459400750
   53      H       1.3526635728     4.1252510097    -0.4995006791
   54      H       0.7410571952     2.8663957686     0.6559733706
   55      H      -0.9060581856     4.5712109881    -0.9527274858
   56      H      -0.8036015408     3.0725273403    -1.9586955022
 ----------------------------------------------------------------

    9   -1510.3008758107      7.63E-09 Convergence criterion met
 Total energy in the final basis set = -1510.30087581
 Final energy is   -1510.30087581074
 **  OPTIMIZATION CONVERGED  **

                    Orbital Energies (a.u.)
 --------------------------------------------------------------

 Alpha MOs
 -- Occupied --
-18.939 -18.933 -18.925 -18.903 -18.898 -18.883 -18.883 -18.877
-18.868 -18.848 -10.106 -10.101 -10.093 -10.078 -10.076 -10.070
-10.059 -10.058 -10.057 -10.052 -10.051 -10.036 -10.036 -10.034
-10.025 -10.018 -10.018 -10.016 -10.015 -10.009  -1.020  -1.011
 -1.002  -0.983  -0.972  -0.966  -0.943  -0.937  -0.929  -0.909
 -0.762  -0.758  -0.726  -0.719  -0.711  -0.701  -0.694  -0.657
 -0.632  -0.618  -0.592  -0.576  -0.544  -0.539  -0.534  -0.531
 -0.511  -0.504  -0.481  -0.464  -0.459  -0.449  -0.448  -0.444
 -0.436  -0.428  -0.425  -0.412  -0.406  -0.401  -0.397  -0.390
 -0.378  -0.375  -0.373  -0.361  -0.353  -0.353  -0.348  -0.345
 -0.341  -0.334  -0.330  -0.328  -0.325  -0.321  -0.318  -0.307
 -0.305  -0.302  -0.297  -0.295  -0.294  -0.279  -0.271  -0.268
 -0.265  -0.257  -0.249  -0.246  -0.239  -0.230  -0.216  -0.189
 -0.172  -0.168  -0.160  -0.157  -0.153  -0.146  -0.141  -0.139
 -0.129

          Ground-State Mulliken Net Atomic Charges

     Atom                 Charge (a.u.)
  ----------------------------------------
      1 O                    -0.215898
      2 C                     0.209250
      3 C                    -0.081110
      4 C                    -0.077832
      5 C                     0.217820
      6 O                    -0.171987
      7 C                    -0.050521
      8 C                    -0.057070
      9 O                    -0.171401
     10 C                     0.221549
     11 C                    -0.079217
     12 C                    -0.080578
     13 C                     0.214201
     14 O                    -0.212114
     15 O                    -0.180366
     16 O                    -0.175278
     17 O                    -0.214340
     18 C                    -0.128857
     19 C                     0.023421
     20 C                    -0.142434
     21 C                    -0.143635
     22 C                     0.026871
     23 O                    -0.178232
     24 H                     0.087398
     25 H                     0.084895
     26 H                     0.112079
     27 H                     0.082618
     28 H                     0.073593
     29 H                     0.079607
     30 H                     0.072689
     31 H                     0.090240
     32 O                    -0.213943
     33 C                    -0.151362
     34 C                     0.024294
     35 C                    -0.143720
     36 C                    -0.143979
     37 C                     0.025350
     38 O                    -0.189876
     39 H                     0.082530
     40 H                     0.087346
     41 H                     0.119178
     42 H                     0.090358
     43 H                     0.077161
     44 H                     0.073436
     45 H                     0.077117
     46 H                     0.073447
     47 H                     0.080165
     48 H                     0.068406
     49 H                     0.085757
     50 H                     0.087147
     51 H                     0.088037
     52 H                     0.092591
     53 H                     0.085118
     54 H                     0.105778
     55 H                     0.090365
     56 H                     0.093941
  ----------------------------------------
  Sum of atomic charges =     0.000000

                    Cartesian Multipole Moments
 -----------------------------------------------------------------
    Charge (ESU x 10^10)
                -0.0000
    Dipole Moment (Debye)
         X       0.3797      Y       2.9340      Z      -0.8348
       Tot       3.0740
    Quadrupole Moments (Debye-Ang)
        XX    -144.2679     XY      -3.3645     YY    -153.5597
        XZ      -7.6331     YZ       1.5262     ZZ    -157.5270

 Total job time:  128.31s(wall), 6123.91s(cpu)
        *  Thank you very much for using Q-Chem.  Have a nice day.  *
