 Q-Chem 5.0, Q-Chem, Inc., Pleasanton, CA (2017)
 Q-Chem 5.0.1 for Intel X86 EM64T Linux

User input:
--------------------------------------------------------------
$molecule
0  1
O -3.94934 -3.66094 2.70899
C -3.26408 -4.56952 2.26188
C -3.36658 -6.02376 2.66595
C -2.18121 -6.62309 3.44025
C -1.10406 -5.65595 3.87899
O -0.01311 -6.34699 4.32364
C 1.12734 -5.51248 4.55217
C 1.44241 -4.69883 3.30123
O 2.26743 -3.57418 3.64384
C 1.78692 -2.36275 3.26876
C 0.97341 -1.69201 4.34995
C 0.70708 -0.19631 4.12583
C 0.96927 0.3189 2.72493
O 0.18434 0.96993 2.05068
O -2.32415 -4.2827 1.32196
O 2.26461 0.26232 2.30919
O 1.492 -2.20949 2.08999
C 2.72444 0.77302 1.11303
C -0.35039 -2.0769 5.00239
C -0.53531 -1.4168 6.38817
C -0.9469 -0.02353 5.99664
C -0.79572 -0.12139 4.48974
O -1.29312 -1.41426 4.20429
H 1.70115 -1.76435 5.19066
H 1.32708 0.4479 4.79077
H -0.4125 -3.12041 5.25261
H -1.38347 -1.88388 6.93877
H 0.3815 -1.47686 7.01408
H -2.03218 0.10622 6.21153
H -0.37136 0.79614 6.47832
H -1.33681 0.72487 4.01338
O -1.26084 -4.45841 3.8693
C -2.05948 -3.01572 0.84584
C -4.4911 -6.26963 3.69908
C -4.92696 -7.73472 3.664
C -3.73735 -8.40006 4.32258
C -2.89714 -7.17179 4.68243
O -3.85096 -6.17311 4.94858
H -3.60673 -6.59176 1.73918
H -1.68002 -7.40449 2.82514
H -1.72547 -2.35716 1.67514
H -5.37748 -5.61472 3.55097
H -5.80549 -7.83529 4.34107
H -5.19368 -8.12306 2.65759
H -4.08696 -8.91104 5.24728
H -3.17711 -9.11517 3.68197
H -2.19441 -7.41126 5.51083
H -2.96652 -2.58851 0.36755
H -1.24897 -3.07325 0.09079
H 3.81439 0.58367 1.03206
H 2.54778 1.86904 1.07071
H 2.21036 0.27579 0.26287
H 1.99526 -5.36559 2.60607
H 0.59295 -4.3668 2.67943
H 2.00793 -6.10549 4.87758
H 0.88427 -4.83334 5.39282
$end

$opt
CONSTRAINT
tors           1           2           3           4    -112.120
tors           3           4           5           6    -168.700
tors           4           5           6           7    +170.440
tors           5           6           7           8     -53.982
tors           6           7           8           9    +161.053
tors           7           8           9          10    -124.740
tors           8           9          10          11     +92.869
tors           9          10          11          12    +165.246
tors          11          12          13          14    +128.626
ENDCONSTRAINT
$end

$rem
JOBTYPE                   OPT
METHOD                    B3LYP
DFT_D                     d3_op
BASIS                     STO-3G
GEOM_OPT_MAX_CYCLES       100
GEOM_OPT_TOL_GRADIENT     300
GEOM_OPT_TOL_DISPLACEMENT 1200
GEOM_OPT_TOL_ENERGY       100
SYMMETRY                  False
THRESH                    12
SCF_CONVERGENCE           8
MAX_SUB_FILE_NUM          128
MEM_STATIC                400
MEM_TOTAL                 4000
$end
--------------------------------------------------------------

   16   -1510.0785320210      2.18E-09 Convergence criterion met
 Total energy in the final basis set = -1510.07853202
   14   -1510.1568498363      1.72E-09 Convergence criterion met
 Total energy in the final basis set = -1510.15684984
   14   -1510.2010289845      2.99E-09 Convergence criterion met
 Total energy in the final basis set = -1510.20102898
   14   -1510.2304829248      3.67E-09 Convergence criterion met
 Total energy in the final basis set = -1510.23048292
   13   -1510.2469803135      9.65E-09 Convergence criterion met
 Total energy in the final basis set = -1510.24698031
   14   -1510.2544898840      2.33E-09 Convergence criterion met
 Total energy in the final basis set = -1510.25448988
   13   -1510.2616420032      4.71E-09 Convergence criterion met
 Total energy in the final basis set = -1510.26164200
   13   -1510.2652590656      5.38E-09 Convergence criterion met
   11   -1510.2682602472      3.88E-09 Convergence criterion met
 Total energy in the final basis set = -1510.26826025
   10   -1510.2682784823      6.32E-09 Convergence criterion met
 Total energy in the final basis set = -1510.26827848
    9   -1510.2682876539      8.54E-09 Convergence criterion met
 Total energy in the final basis set = -1510.26828765
    9   -1510.2682933344      8.19E-09 Convergence criterion met
 Total energy in the final basis set = -1510.26829333
    9   -1510.2682957281      5.62E-09 Convergence criterion met
 Total energy in the final basis set = -1510.26829573
    9   -1510.2682973019      3.61E-09 Convergence criterion met
 Total energy in the final basis set = -1510.26829730

             Standard Nuclear Orientation (Angstroms)
    I     Atom           X                Y                Z
 ----------------------------------------------------------------
    1      O      -2.1308884565    -2.4286793701    -0.3432155139
    2      C      -2.4329633793    -1.6112150857     0.5525302139
    3      C      -3.7698296428    -0.7681610011     0.6420587922
    4      C      -3.6126557987     0.7963026426     0.4412960254
    5      C      -2.1386128360     1.1880655676     0.1093488624
    6      O      -1.9731941711     2.5914752186     0.1910579128
    7      C      -0.5611545099     3.0628216933     0.1136712211
    8      C       0.4398090381     2.4053271216     1.1563697083
    9      O       1.8341497455     2.5927487585     0.6985413327
   10      C       2.6036864282     1.3635519041     0.5776007142
   11      C       2.6205670911     0.6610722397    -0.8349619825
   12      C       3.7771410834    -0.4213577480    -0.9058053434
   13      C       4.8748613244    -0.3122041629     0.2144558194
   14      O       5.2800328448    -1.2255183861     0.9641310249
   15      O      -1.6927855075    -1.4164684418     1.7621033491
   16      O       5.5067074518     0.9734368210     0.0880737746
   17      O       3.2535299679     0.9371059312     1.5587434948
   18      C       6.5371604833     1.1280856794     1.1373329860
   19      C       1.3586952092    -0.2810236632    -0.9961694223
   20      C       1.3567842600    -0.9270631961    -2.4389601223
   21      C       2.4165962711    -2.0798656976    -2.2806851756
   22      C       2.9536168855    -1.7758360116    -0.8331977937
   23      O       1.7189221095    -1.4038343386    -0.1010198927
   24      H       2.6911789840     1.4249642219    -1.6299929980
   25      H       4.2994052013    -0.3393945594    -1.8769507127
   26      H       0.3809023874     0.1519605881    -0.6938863553
   27      H       0.3559246308    -1.3238129893    -2.6720814665
   28      H       1.6372294813    -0.1979881352    -3.2162475035
   29      H       1.9379785338    -3.0718237829    -2.3130617472
   30      H       3.2123620594    -2.0426727969    -3.0419469946
   31      H       3.4849270937    -2.5990944686    -0.3165727490
   32      O      -1.2535527169     0.3685797349    -0.2296204124
   33      C      -0.4701337571    -2.2592563924     1.7531644996
   34      C      -4.7385344803    -1.1298086883    -0.5596776193
   35      C      -6.1987613273    -0.6631976132    -0.1874026885
   36      C      -6.0627498111     0.8979171000    -0.3354996054
   37      C      -4.5634161853     1.0317147142    -0.8152171831
   38      O      -4.3387620747    -0.1814948018    -1.6285649117
   39      H      -4.2383389768    -0.9805466979     1.6200101987
   40      H      -3.9491575941     1.3730646508     1.3210421217
   41      H       0.2782787259    -1.9339851108     0.9883099579
   42      H      -4.6361614388    -2.1727299636    -0.9172730561
   43      H      -6.9288368447    -1.0731739896    -0.9033777126
   44      H      -6.4890566615    -0.9707361311     0.8299453766
   45      H      -6.7470407536     1.2943484826    -1.1024220901
   46      H      -6.2444627446     1.4330890868     0.6103601551
   47      H      -4.3337298040     1.9454591160    -1.3978002176
   48      H      -0.7239634138    -3.3231676933     1.5729671388
   49      H      -0.0318460986    -2.1548182247     2.7626521058
   50      H       7.0269825150     2.1009319914     0.9476910514
   51      H       7.2922888965     0.3164463125     1.0961844745
   52      H       6.0820312041     1.1342590219     2.1492546104
   53      H       0.3201890522     2.9054059538     2.1429647197
   54      H       0.1774980685     1.3346655460     1.2824014744
   55      H      -0.6265265323     4.1568976844     0.2733826562
   56      H      -0.1613024384     2.8787038954    -0.9091422537
 ----------------------------------------------------------------

    9   -1510.2682981262      2.70E-09 Convergence criterion met
 Total energy in the final basis set = -1510.26829813
 Final energy is   -1510.26829812623
 **  OPTIMIZATION CONVERGED  **

                    Orbital Energies (a.u.)
 --------------------------------------------------------------

 Alpha MOs
 -- Occupied --
-18.963 -18.916 -18.912 -18.912 -18.909 -18.906 -18.891 -18.885
-18.859 -18.854 -10.130 -10.114 -10.089 -10.089 -10.087 -10.083
-10.067 -10.058 -10.053 -10.053 -10.048 -10.040 -10.037 -10.034
-10.031 -10.029 -10.025 -10.022 -10.013 -10.011  -1.038  -1.014
 -0.995  -0.992  -0.974  -0.967  -0.963  -0.940  -0.923  -0.918
 -0.767  -0.758  -0.732  -0.719  -0.714  -0.704  -0.698  -0.652
 -0.644  -0.625  -0.596  -0.588  -0.550  -0.540  -0.539  -0.532
 -0.519  -0.507  -0.486  -0.478  -0.463  -0.457  -0.452  -0.450
 -0.444  -0.433  -0.425  -0.412  -0.406  -0.401  -0.399  -0.397
 -0.392  -0.388  -0.384  -0.368  -0.365  -0.358  -0.352  -0.346
 -0.345  -0.342  -0.334  -0.333  -0.327  -0.325  -0.319  -0.318
 -0.311  -0.305  -0.304  -0.299  -0.297  -0.282  -0.276  -0.273
 -0.268  -0.259  -0.244  -0.243  -0.239  -0.238  -0.225  -0.204
 -0.175  -0.166  -0.163  -0.159  -0.157  -0.149  -0.143  -0.140
 -0.137

          Ground-State Mulliken Net Atomic Charges

     Atom                 Charge (a.u.)
  ----------------------------------------
      1 O                    -0.220508
      2 C                     0.214246
      3 C                    -0.081089
      4 C                    -0.077638
      5 C                     0.229034
      6 O                    -0.166639
      7 C                    -0.049289
      8 C                    -0.048803
      9 O                    -0.201482
     10 C                     0.230559
     11 C                    -0.081708
     12 C                    -0.081217
     13 C                     0.215251
     14 O                    -0.218892
     15 O                    -0.182954
     16 O                    -0.179480
     17 O                    -0.170703
     18 C                    -0.128836
     19 C                    -0.000329
     20 C                    -0.145884
     21 C                    -0.142639
     22 C                     0.025481
     23 O                    -0.197183
     24 H                     0.085278
     25 H                     0.083141
     26 H                     0.114278
     27 H                     0.083757
     28 H                     0.069699
     29 H                     0.079294
     30 H                     0.072069
     31 H                     0.091178
     32 O                    -0.204215
     33 C                    -0.145633
     34 C                     0.024540
     35 C                    -0.143945
     36 C                    -0.143518
     37 C                     0.025651
     38 O                    -0.188813
     39 H                     0.083459
     40 H                     0.088605
     41 H                     0.111748
     42 H                     0.091880
     43 H                     0.078812
     44 H                     0.074195
     45 H                     0.078976
     46 H                     0.074000
     47 H                     0.083790
     48 H                     0.079938
     49 H                     0.079575
     50 H                     0.086325
     51 H                     0.087061
     52 H                     0.089955
     53 H                     0.086468
     54 H                     0.095349
     55 H                     0.097306
     56 H                     0.090499
  ----------------------------------------
  Sum of atomic charges =    -0.000000

                    Cartesian Multipole Moments
 -----------------------------------------------------------------
    Charge (ESU x 10^10)
                -0.0000
    Dipole Moment (Debye)
         X      -2.3589      Y       2.8021      Z      -0.4307
       Tot       3.6881
    Quadrupole Moments (Debye-Ang)
        XX    -149.3511     XY      -1.0217     YY    -159.7473
        XZ     -12.1719     YZ       0.1442     ZZ    -160.6262

 Total job time:  64.71s(wall), 3085.56s(cpu)
        *  Thank you very much for using Q-Chem.  Have a nice day.  *
