 Q-Chem 5.0, Q-Chem, Inc., Pleasanton, CA (2017)
 Q-Chem 5.0.1 for Intel X86 EM64T Linux

User input:
--------------------------------------------------------------
$molecule
0  1
O -3.94934 -3.66094 2.70899
C -3.26408 -4.56952 2.26188
C -3.36658 -6.02376 2.66595
C -2.93384 -7.07329 1.62908
C -2.28017 -6.548 0.37016
O -1.99551 -7.58478 -0.47214
C -1.52596 -7.15578 -1.75462
C -0.51728 -6.02325 -1.59318
O 0.79577 -6.48269 -1.95054
C 1.79746 -5.58768 -1.76427
C 2.8724 -5.67931 -2.82104
C 2.3624 -5.97347 -4.23937
C 0.87566 -5.7799 -4.46036
O 0.32018 -5.73947 -5.54864
O -2.04205 -4.18886 1.78754
O 0.48193 -4.66325 -3.77366
O 1.69066 -4.6053 -1.0388
C -0.46514 -3.72225 -4.16219
C 3.69289 -4.39482 -3.05319
C 5.0447 -4.75405 -3.66935
C 4.62026 -5.15914 -5.06635
C 3.11955 -4.85643 -4.99695
O 3.03918 -3.75723 -4.1203
H 3.54955 -6.49216 -2.47539
H 2.62844 -6.98172 -4.62543
H 3.84265 -3.78897 -2.13355
H 5.63694 -3.81331 -3.73765
H 5.63055 -5.51594 -3.1115
H 5.11825 -4.48027 -5.79402
H 4.8184 -6.21883 -5.33684
H 2.7145 -4.6903 -6.01949
O -2.72404 -5.51568 -0.12705
C -1.66624 -2.88985 1.51107
C -2.37903 -6.35022 3.80539
C -2.84615 -7.59128 4.56453
C -2.5447 -8.67216 3.54831
C -1.87909 -7.84007 2.44757
O -1.22454 -6.81179 3.14816
H -4.40489 -6.18623 3.03355
H -3.79192 -7.70906 1.31398
H -1.71134 -2.27085 2.43242
H -2.23348 -5.50263 4.51116
H -2.16269 -7.72334 5.43385
H -3.89655 -7.55625 4.92544
H -1.81037 -9.37901 3.99502
H -3.42847 -9.2306 3.1706
H -1.23082 -8.48825 1.81783
H -2.33256 -2.45865 0.73353
H -0.62459 -2.8874 1.1295
H -0.55422 -2.94891 -3.37182
H -1.4549 -4.20626 -4.30645
H -0.14829 -3.22737 -5.1049
H -0.89488 -5.16125 -2.14506
H -0.41286 -5.61057 -0.57161
H -2.40325 -6.76861 -2.32204
H -1.12907 -8.009 -2.34466
$end

$opt
CONSTRAINT
tors           1           2           3           4    +153.140
tors           3           4           5           6    -177.851
tors           4           5           6           7    +172.749
tors           5           6           7           8     +43.438
tors           6           7           8           9    +110.527
tors           7           8           9          10    -175.859
tors           8           9          10          11    -144.475
tors           9          10          11          12     +37.475
tors          11          12          13          14    +166.826
ENDCONSTRAINT
$end

$rem
JOBTYPE                   OPT
METHOD                    B3LYP
DFT_D                     d3_op
BASIS                     STO-3G
GEOM_OPT_MAX_CYCLES       100
GEOM_OPT_TOL_GRADIENT     300
GEOM_OPT_TOL_DISPLACEMENT 1200
GEOM_OPT_TOL_ENERGY       100
SYMMETRY                  False
THRESH                    12
SCF_CONVERGENCE           8
MAX_SUB_FILE_NUM          128
MEM_STATIC                400
MEM_TOTAL                 4000
$end
--------------------------------------------------------------

   15   -1510.0559546959      9.82E-09 Convergence criterion met
 Total energy in the final basis set = -1510.05595470
   15   -1510.1365500537      1.94E-09 Convergence criterion met
 Total energy in the final basis set = -1510.13655005
   15   -1510.1841601339      1.78E-09 Convergence criterion met
 Total energy in the final basis set = -1510.18416013
   15   -1510.2119369563      1.43E-09 Convergence criterion met
 Total energy in the final basis set = -1510.21193696
   14   -1510.2261479161      7.05E-09 Convergence criterion met
 Total energy in the final basis set = -1510.22614792
   13   -1510.2350455762      8.63E-09 Convergence criterion met
 Total energy in the final basis set = -1510.23504558
   13   -1510.2409474663      6.29E-09 Convergence criterion met
 Total energy in the final basis set = -1510.24094747
   13   -1510.2450005856      5.04E-09 Convergence criterion met
   11   -1510.2541979089      7.88E-09 Convergence criterion met
 Total energy in the final basis set = -1510.25419791
   11   -1510.2542483789      6.99E-09 Convergence criterion met
 Total energy in the final basis set = -1510.25424838
   11   -1510.2542825214      7.13E-09 Convergence criterion met
 Total energy in the final basis set = -1510.25428252
   11   -1510.2542969976      3.02E-09 Convergence criterion met
 Total energy in the final basis set = -1510.25429700
    9   -1510.2543026729      5.87E-09 Convergence criterion met
 Total energy in the final basis set = -1510.25430267
    9   -1510.2543049245      4.04E-09 Convergence criterion met
 Total energy in the final basis set = -1510.25430492

             Standard Nuclear Orientation (Angstroms)
    I     Atom           X                Y                Z
 ----------------------------------------------------------------
    1      O       4.9026125105    -2.8141971174     0.8956728938
    2      C       4.4106695643    -1.6731516919     0.7498122013
    3      C       4.9915524352    -0.5281758517    -0.1589655658
    4      C       3.9482570456     0.5212309198    -0.7062613253
    5      C       2.4680741200     0.0095001672    -0.8165894312
    6      O       1.7140599733     1.0898933970    -1.3745295262
    7      C       0.3098154644     0.7482548614    -1.7184674666
    8      C      -0.5225294240    -0.1080942714    -0.6866937369
    9      O      -1.5553622615     0.7972402922    -0.1256673080
   10      C      -2.3131073889     0.1320892918     0.9052740169
   11      C      -3.8087690762     0.6163923850     0.8459538098
   12      C      -4.4471896551     0.8754955023    -0.5690419246
   13      C      -4.0703260915    -0.1634773077    -1.6937911210
   14      O      -4.6430760769    -0.2723036697    -2.8003968352
   15      O       3.3778548691    -1.1392842007     1.5840888375
   16      O      -3.1770468483    -1.1633621113    -1.1865219685
   17      O      -1.8456744761    -0.7183166397     1.6919451367
   18      C      -3.0809156258    -2.2879697620    -2.1468328246
   19      C      -4.9083413012    -0.3017140270     1.5401398490
   20      C      -5.9364837486     0.6836518488     2.2162019570
   21      C      -6.5481664486     1.3658208935     0.9340731110
   22      C      -5.9501132310     0.4668844560    -0.2215677017
   23      O      -5.7105783114    -0.8533101719     0.4202932814
   24      H      -3.8106344464     1.5921438601     1.3706856529
   25      H      -4.3225378129     1.9129674732    -0.9252753676
   26      H      -4.5031996727    -1.1112117334     2.1780247098
   27      H      -6.7019057065     0.1176629808     2.7714743201
   28      H      -5.4560576323     1.4012749947     2.9002917127
   29      H      -7.6485151642     1.3209257331     0.9302860706
   30      H      -6.2391346981     2.4185354352     0.8298045789
   31      H      -6.5944840600     0.3535419722    -1.1152007956
   32      O       2.0473354731    -1.1562596366    -0.6523746636
   33      C       2.8616889102    -2.1891094250     2.4892754693
   34      C       5.8400250927     0.4275146102     0.7961182226
   35      C       6.6065573316     1.5100374701    -0.0667247201
   36      C       5.4556232539     2.5421709074    -0.3672682042
   37      C       4.2162602156     1.7756960308     0.2385616653
   38      O       4.7752604016     1.1976089489     1.4807225839
   39      H       5.5985020372    -0.9831264273    -0.9605521548
   40      H       4.2276559778     0.7994397041    -1.7400201278
   41      H       3.6623294641    -2.6021612839     3.1365449240
   42      H       6.4661799444    -0.1093628582     1.5350506022
   43      H       7.4210298872     1.9657661716     0.5181106444
   44      H       7.0336977793     1.0739806195    -0.9842014088
   45      H       5.6177143086     3.4910859918     0.1690489776
   46      H       5.3385038011     2.7557474941    -1.4416935091
   47      H       3.3243821166     2.3949802164     0.4554387559
   48      H       2.3997244026    -3.0226079182     1.9216965124
   49      H       2.0927953727    -1.6991626798     3.1145356999
   50      H      -2.4609269924    -3.0578387818    -1.6515813157
   51      H      -2.5993252191    -1.9767086198    -3.0965010369
   52      H      -4.0814075438    -2.7047771398    -2.3794006183
   53      H      -1.0280377627    -0.9450366558    -1.2085463942
   54      H       0.1283088615    -0.5311114552     0.1057884994
   55      H       0.3095475399     0.2234594606    -2.6999059913
   56      H      -0.1963889005     1.7270769021    -1.8505170315
 ----------------------------------------------------------------

    9   -1510.2543055665      2.26E-09 Convergence criterion met
 Total energy in the final basis set = -1510.25430557
 Final energy is   -1510.25430556651
 **  OPTIMIZATION CONVERGED  **

                    Orbital Energies (a.u.)
 --------------------------------------------------------------

 Alpha MOs
 -- Occupied --
-18.941 -18.936 -18.923 -18.913 -18.888 -18.887 -18.879 -18.876
-18.876 -18.861 -10.105 -10.102 -10.100 -10.089 -10.077 -10.068
-10.063 -10.061 -10.060 -10.059 -10.059 -10.053 -10.042 -10.037
-10.035 -10.035 -10.023 -10.021 -10.020 -10.019  -1.017  -1.014
 -1.001  -0.999  -0.971  -0.970  -0.942  -0.939  -0.931  -0.923
 -0.765  -0.762  -0.727  -0.723  -0.714  -0.703  -0.694  -0.665
 -0.651  -0.617  -0.599  -0.583  -0.546  -0.544  -0.539  -0.537
 -0.511  -0.511  -0.490  -0.477  -0.463  -0.456  -0.446  -0.436
 -0.434  -0.433  -0.428  -0.414  -0.410  -0.407  -0.403  -0.400
 -0.394  -0.381  -0.377  -0.364  -0.363  -0.358  -0.350  -0.348
 -0.342  -0.339  -0.334  -0.331  -0.330  -0.320  -0.319  -0.315
 -0.311  -0.309  -0.304  -0.301  -0.299  -0.290  -0.287  -0.272
 -0.271  -0.255  -0.250  -0.243  -0.240  -0.235  -0.233  -0.182
 -0.181  -0.169  -0.163  -0.157  -0.153  -0.148  -0.145  -0.143
 -0.139

          Ground-State Mulliken Net Atomic Charges

     Atom                 Charge (a.u.)
  ----------------------------------------
      1 O                    -0.219353
      2 C                     0.212457
      3 C                    -0.078823
      4 C                    -0.078632
      5 C                     0.216166
      6 O                    -0.174603
      7 C                    -0.049665
      8 C                    -0.054604
      9 O                    -0.188554
     10 C                     0.218178
     11 C                    -0.080392
     12 C                    -0.073742
     13 C                     0.213074
     14 O                    -0.215595
     15 O                    -0.165290
     16 O                    -0.169393
     17 O                    -0.207314
     18 C                    -0.128335
     19 C                     0.023524
     20 C                    -0.140503
     21 C                    -0.146118
     22 C                     0.022829
     23 O                    -0.193198
     24 H                     0.081286
     25 H                     0.087643
     26 H                     0.091188
     27 H                     0.078290
     28 H                     0.074101
     29 H                     0.079135
     30 H                     0.073929
     31 H                     0.086929
     32 O                    -0.211511
     33 C                    -0.126405
     34 C                     0.025185
     35 C                    -0.145279
     36 C                    -0.141811
     37 C                     0.027006
     38 O                    -0.186006
     39 H                     0.084742
     40 H                     0.084140
     41 H                     0.086971
     42 H                     0.083232
     43 H                     0.078220
     44 H                     0.073759
     45 H                     0.077839
     46 H                     0.073586
     47 H                     0.087670
     48 H                     0.089856
     49 H                     0.091224
     50 H                     0.093642
     51 H                     0.087093
     52 H                     0.095315
     53 H                     0.092033
     54 H                     0.105061
     55 H                     0.081978
     56 H                     0.097847
  ----------------------------------------
  Sum of atomic charges =    -0.000000

                    Cartesian Multipole Moments
 -----------------------------------------------------------------
    Charge (ESU x 10^10)
                 0.0000
    Dipole Moment (Debye)
         X      -0.3085      Y       2.4550      Z      -1.2183
       Tot       2.7579
    Quadrupole Moments (Debye-Ang)
        XX    -153.5629     XY       2.1436     YY    -161.4067
        XZ     -11.2803     YZ       1.8148     ZZ    -159.4176

 Total job time:  65.29s(wall), 3104.84s(cpu)
        *  Thank you very much for using Q-Chem.  Have a nice day.  *
