 Q-Chem 5.0, Q-Chem, Inc., Pleasanton, CA (2017)
 Q-Chem 5.0.1 for Intel X86 EM64T Linux

User input:
--------------------------------------------------------------
$molecule
0  1
O 4.9026125105 -2.8141971174 0.8956728938
C 4.4106695643 -1.6731516919 0.7498122013
C 4.9915524352 -0.5281758517 -0.1589655658
C 3.9482570456 0.5212309198 -0.7062613253
C 2.46807412 0.0095001672 -0.8165894312
O 1.7140599733 1.089893397 -1.3745295262
C 0.3098154644 0.7482548614 -1.7184674666
C -0.522529424 -0.1080942714 -0.6866937369
O -1.5553622615 0.7972402922 -0.125667308
C -2.3131073889 0.1320892918 0.9052740169
C -3.8087690762 0.616392385 0.8459538098
C -4.4471896551 0.8754955023 -0.5690419246
C -4.0703260915 -0.1634773077 -1.693791121
O -4.6430760769 -0.2723036697 -2.8003968352
O 3.3778548691 -1.1392842007 1.5840888375
O -3.1770468483 -1.1633621113 -1.1865219685
O -1.8456744761 -0.7183166397 1.6919451367
C -3.0809156258 -2.287969762 -2.1468328246
C -4.9083413012 -0.301714027 1.540139849
C -5.9364837486 0.6836518488 2.216201957
C -6.5481664486 1.3658208935 0.934073111
C -5.950113231 0.466884456 -0.2215677017
O -5.7105783114 -0.8533101719 0.4202932814
H -3.8106344464 1.5921438601 1.3706856529
H -4.3225378129 1.9129674732 -0.9252753676
H -4.5031996727 -1.1112117334 2.1780247098
H -6.7019057065 0.1176629808 2.7714743201
H -5.4560576323 1.4012749947 2.9002917127
H -7.6485151642 1.3209257331 0.9302860706
H -6.2391346981 2.4185354352 0.8298045789
H -6.59448406 0.3535419722 -1.1152007956
O 2.0473354731 -1.1562596366 -0.6523746636
C 2.8616889102 -2.189109425 2.4892754693
C 5.8400250927 0.4275146102 0.7961182226
C 6.6065573316 1.5100374701 -0.0667247201
C 5.4556232539 2.5421709074 -0.3672682042
C 4.2162602156 1.7756960308 0.2385616653
O 4.7752604016 1.1976089489 1.4807225839
H 5.5985020372 -0.9831264273 -0.9605521548
H 4.2276559778 0.7994397041 -1.7400201278
H 3.6623294641 -2.6021612839 3.136544924
H 6.4661799444 -0.1093628582 1.5350506022
H 7.4210298872 1.9657661716 0.5181106444
H 7.0336977793 1.0739806195 -0.9842014088
H 5.6177143086 3.4910859918 0.1690489776
H 5.3385038011 2.7557474941 -1.4416935091
H 3.3243821166 2.3949802164 0.4554387559
H 2.3997244026 -3.0226079182 1.9216965124
H 2.0927953727 -1.6991626798 3.1145356999
H -2.4609269924 -3.0578387818 -1.6515813157
H -2.5993252191 -1.9767086198 -3.0965010369
H -4.0814075438 -2.7047771398 -2.3794006183
H -1.0280377627 -0.9450366558 -1.2085463942
H 0.1283088615 -0.5311114552 0.1057884994
H 0.3095475399 0.2234594606 -2.6999059913
H -0.1963889005 1.7270769021 -1.8505170315
$end

$rem
JOBTYPE                   OPT
METHOD                    B3LYP
DFT_D                     d3_op
BASIS                     STO-3G
GEOM_OPT_MAX_CYCLES       100
GEOM_OPT_TOL_GRADIENT     300
GEOM_OPT_TOL_DISPLACEMENT 1200
GEOM_OPT_TOL_ENERGY       100
SYMMETRY                  False
THRESH                    12
SCF_CONVERGENCE           8
MAX_SUB_FILE_NUM          128
MEM_STATIC                400
MEM_TOTAL                 4000
$end
--------------------------------------------------------------

   16   -1510.2541639599      5.28E-09 Convergence criterion met
 Total energy in the final basis set = -1510.25416396
   14   -1510.2605105889      9.26E-09 Convergence criterion met
 Total energy in the final basis set = -1510.26051059
   13   -1510.2662975127      9.98E-09 Convergence criterion met
 Total energy in the final basis set = -1510.26629751
   13   -1510.2704943178      8.81E-09 Convergence criterion met
 Total energy in the final basis set = -1510.27049432
   14   -1510.2737187526      3.86E-09 Convergence criterion met
 Total energy in the final basis set = -1510.27371875
   13   -1510.2761564468      4.51E-09 Convergence criterion met
 Total energy in the final basis set = -1510.27615645
   14   -1510.2784076467      5.23E-09 Convergence criterion met
 Total energy in the final basis set = -1510.27840765
   14   -1510.2807928432      8.92E-09 Convergence criterion met
   13   -1510.2922318015      2.90E-09 Convergence criterion met
 Total energy in the final basis set = -1510.29223180
   10   -1510.2922364723      3.78E-09 Convergence criterion met
 Total energy in the final basis set = -1510.29223647
   10   -1510.2922404479      4.95E-09 Convergence criterion met
 Total energy in the final basis set = -1510.29224045
    9   -1510.2922307986      6.44E-09 Convergence criterion met
 Total energy in the final basis set = -1510.29223080
   11   -1510.2922224787      4.71E-09 Convergence criterion met
 Total energy in the final basis set = -1510.29222248
    9   -1510.2922328333      3.18E-09 Convergence criterion met
 Total energy in the final basis set = -1510.29223283

             Standard Nuclear Orientation (Angstroms)
    I     Atom           X                Y                Z
 ----------------------------------------------------------------
    1      O      -4.1873679152    -2.1205762023     1.5953067779
    2      C      -3.6316804617    -1.3117674989     0.8216229232
    3      C      -4.3498229301    -0.1938369798    -0.0148565148
    4      C      -3.9656125494     1.3083947662     0.3442001111
    5      C      -2.8140871819     1.3582164281     1.4097157613
    6      O      -1.7154191213     2.1370049818     0.9234172463
    7      C      -0.5143807994     1.8498332465     1.7455279243
    8      C       0.0269725575     0.4171480973     1.4032816073
    9      O       1.0476197152     0.5706093669     0.3358017809
   10      C       1.5848382214    -0.6974439922    -0.0326683554
   11      C       2.6792945951    -0.4606242828    -1.1325012444
   12      C       3.7642979563     0.6241633311    -0.7313721357
   13      C       3.5579268744     1.2223486116     0.7021841582
   14      O       3.4884296906     2.4289280637     1.0196213250
   15      O      -2.2280741866    -1.3539461522     0.5066814313
   16      O       3.5004144104     0.1385063818     1.6415573670
   17      O       1.2144528209    -1.8013093173     0.4289631833
   18      C       3.3174004873     0.6658294430     3.0119916459
   19      C       3.5802414758    -1.7468528677    -1.3315472172
   20      C       4.3451427020    -1.6096545599    -2.7039507747
   21      C       5.4197108791    -0.5169571078    -2.3410589222
   22      C       5.0890894404    -0.2537893807    -0.8177802577
   23      O       4.6511714917    -1.5773426890    -0.3214391484
   24      H       2.1661961010    -0.1715647790    -2.0684522050
   25      H       3.7787914180     1.4662455123    -1.4452014343
   26      H       3.0394250708    -2.6992259561    -1.1670715282
   27      H       4.8194166785    -2.5653172060    -2.9783688559
   28      H       3.6782765224    -1.2975710407    -3.5234674499
   29      H       6.4444485279    -0.9067499097    -2.4489400087
   30      H       5.3237634056     0.3951646469    -2.9517470771
   31      H       5.9336214601     0.1279869678    -0.2119563308
   32      O      -2.8182542384     0.7651074549     2.5120252172
   33      C      -1.5938842678    -2.5342617922     1.1506726122
   34      C      -3.9518349071    -0.2385220634    -1.5564476019
   35      C      -5.0846448921     0.4977728737    -2.3721332237
   36      C      -4.8013064231     1.9975405854    -1.9893227404
   37      C      -3.5201621480     1.8480683082    -1.0761977970
   38      O      -2.8016686450     0.6876135054    -1.6545769551
   39      H      -5.4339772888    -0.3549048156     0.1193135038
   40      H      -4.8435943331     1.8494786868     0.7426824748
   41      H      -1.9842684243    -3.4762509603     0.7173092249
   42      H      -3.6741769197    -1.2428701664    -1.9305561536
   43      H      -4.9519059828     0.3255459943    -3.4522824624
   44      H      -6.0938806671     0.1637075722    -2.0825048113
   45      H      -4.5735690852     2.6071371501    -2.8779693261
   46      H      -5.6403895921     2.4623624046    -1.4474752313
   47      H      -2.8567806591     2.7323086267    -1.0358247709
   48      H      -1.7802821879    -2.5417552504     2.2428609558
   49      H      -0.5049761241    -2.4264142306     0.9435310497
   50      H       3.1499330427    -0.2147568076     3.6590998155
   51      H       2.4466667644     1.3491654659     3.0757315280
   52      H       4.2172444454     1.2133823134     3.3602135922
   53      H       0.4761561601    -0.0628228778     2.2985577143
   54      H      -0.8255179361    -0.2099549653     1.0402413368
   55      H      -0.7552245062     1.9142256507     2.8281464906
   56      H       0.2351903328     2.6225158272     1.4796996097
 ----------------------------------------------------------------

    9   -1510.2922320307      3.76E-09 Convergence criterion met
 Total energy in the final basis set = -1510.29223203
 Final energy is   -1510.29223203074
 **  OPTIMIZATION CONVERGED  **

                    Orbital Energies (a.u.)
 --------------------------------------------------------------

 Alpha MOs
 -- Occupied --
-18.937 -18.936 -18.932 -18.932 -18.888 -18.887 -18.881 -18.877
-18.875 -18.871 -10.106 -10.102 -10.098 -10.097 -10.074 -10.064
-10.061 -10.061 -10.060 -10.059 -10.057 -10.042 -10.040 -10.038
-10.037 -10.036 -10.021 -10.020 -10.020 -10.019  -1.019  -1.015
 -1.006  -1.005  -0.970  -0.969  -0.943  -0.937  -0.934  -0.933
 -0.764  -0.763  -0.728  -0.723  -0.712  -0.705  -0.696  -0.660
 -0.650  -0.616  -0.598  -0.582  -0.547  -0.545  -0.538  -0.537
 -0.514  -0.513  -0.486  -0.474  -0.470  -0.466  -0.447  -0.442
 -0.433  -0.431  -0.425  -0.420  -0.410  -0.407  -0.405  -0.403
 -0.391  -0.380  -0.370  -0.368  -0.362  -0.356  -0.353  -0.347
 -0.344  -0.342  -0.335  -0.331  -0.331  -0.326  -0.319  -0.310
 -0.308  -0.306  -0.305  -0.300  -0.293  -0.291  -0.289  -0.276
 -0.273  -0.262  -0.250  -0.249  -0.244  -0.234  -0.233  -0.184
 -0.178  -0.175  -0.170  -0.159  -0.158  -0.149  -0.149  -0.144
 -0.143

          Ground-State Mulliken Net Atomic Charges

     Atom                 Charge (a.u.)
  ----------------------------------------
      1 O                    -0.206718
      2 C                     0.210222
      3 C                    -0.080265
      4 C                    -0.078111
      5 C                     0.209772
      6 O                    -0.168865
      7 C                    -0.050091
      8 C                    -0.062543
      9 O                    -0.172478
     10 C                     0.224260
     11 C                    -0.077829
     12 C                    -0.078897
     13 C                     0.212257
     14 O                    -0.216232
     15 O                    -0.175951
     16 O                    -0.169316
     17 O                    -0.215513
     18 C                    -0.128612
     19 C                     0.024554
     20 C                    -0.143891
     21 C                    -0.143946
     22 C                     0.025848
     23 O                    -0.186136
     24 H                     0.087242
     25 H                     0.085568
     26 H                     0.090417
     27 H                     0.078090
     28 H                     0.073543
     29 H                     0.077914
     30 H                     0.073869
     31 H                     0.082379
     32 O                    -0.215888
     33 C                    -0.145244
     34 C                     0.025527
     35 C                    -0.143468
     36 C                    -0.144860
     37 C                     0.023849
     38 O                    -0.188020
     39 H                     0.085557
     40 H                     0.085678
     41 H                     0.080752
     42 H                     0.083650
     43 H                     0.077762
     44 H                     0.074065
     45 H                     0.077949
     46 H                     0.073253
     47 H                     0.092877
     48 H                     0.086809
     49 H                     0.114051
     50 H                     0.091483
     51 H                     0.086593
     52 H                     0.087326
     53 H                     0.083583
     54 H                     0.113287
     55 H                     0.093483
     56 H                     0.099406
  ----------------------------------------
  Sum of atomic charges =    -0.000000

                    Cartesian Multipole Moments
 -----------------------------------------------------------------
    Charge (ESU x 10^10)
                -0.0000
    Dipole Moment (Debye)
         X      -0.1719      Y       1.2965      Z      -1.9801
       Tot       2.3730
    Quadrupole Moments (Debye-Ang)
        XX    -151.7211     XY      -5.6191     YY    -165.5229
        XZ       4.9614     YZ       5.0148     ZZ    -154.6793

 Total job time:  112.10s(wall), 5344.16s(cpu)
        *  Thank you very much for using Q-Chem.  Have a nice day.  *
