 Q-Chem 5.0, Q-Chem, Inc., Pleasanton, CA (2017)
 Q-Chem 5.0.1 for Intel X86 EM64T Linux

User input:
--------------------------------------------------------------
$molecule
0  1
O -3.94934 -3.66094 2.70899
C -3.26408 -4.56952 2.26188
C -3.36658 -6.02376 2.66595
C -2.36566 -7.00205 2.02958
C -1.26095 -6.3901 1.19698
O -0.48329 -7.37658 0.66076
C 0.16858 -6.98338 -0.55155
C 0.51551 -8.21301 -1.38449
O 0.75075 -7.82969 -2.74853
C -0.04099 -6.8344 -3.21936
C -1.21767 -7.34563 -4.01606
C -2.54673 -6.62705 -3.74125
C -2.4439 -5.30604 -3.00568
O -2.10255 -4.24262 -3.50286
O -2.52803 -4.17234 1.19317
O -3.17477 -5.26362 -1.86304
O 0.37102 -5.68615 -3.3064
C -3.95742 -4.18056 -1.51888
C -1.08754 -7.11002 -5.5361
C -1.95083 -8.12427 -6.28533
C -3.33979 -7.62401 -5.93821
C -2.98623 -6.33389 -5.1872
O -1.78123 -5.91093 -5.7794
H -1.29924 -8.44444 -3.84552
H -3.25743 -7.28284 -3.18925
H -0.0372 -7.15178 -5.89878
H -1.77251 -7.95347 -7.37151
H -1.76023 -9.19357 -6.05064
H -3.87996 -7.40406 -6.88556
H -3.94448 -8.30508 -5.30085
H -3.83107 -5.61092 -5.2276
O -0.62119 -5.43712 1.62815
C -2.20094 -2.85797 0.90334
C -3.01968 -6.21001 4.15678
C -3.64264 -7.50391 4.67928
C -2.75932 -8.53281 4.00647
C -1.75235 -7.61614 3.30469
O -1.64623 -6.50841 4.16402
H -4.42447 -6.32434 2.49515
H -2.87204 -7.76437 1.39589
H -1.62652 -2.41737 1.74602
H -3.33597 -5.35281 4.79109
H -3.45631 -7.54206 5.7766
H -4.73184 -7.6129 4.48778
H -2.25084 -9.12938 4.7964
H -3.27554 -9.21001 3.29205
H -0.80774 -8.1681 3.10479
H -3.11665 -2.25498 0.72417
H -1.56121 -2.8318 -0.00232
H -4.44508 -4.37087 -0.54196
H -4.75434 -4.04049 -2.28007
H -3.35327 -3.25381 -1.47522
H 1.36495 -8.79127 -0.96495
H -0.38156 -8.87088 -1.38866
H 1.07262 -6.36858 -0.35029
H -0.56709 -6.32333 -1.05476
$end

$opt
CONSTRAINT
tors           1           2           3           4    -177.255
tors           3           4           5           6    -177.851
tors           4           5           6           7    +153.850
tors           5           6           7           8    -156.367
tors           6           7           8           9    +161.053
tors           7           8           9          10     -36.604
tors           8           9          10          11     -97.987
tors           9          10          11          12    +138.173
tors          11          12          13          14     +77.381
ENDCONSTRAINT
$end

$rem
JOBTYPE                   OPT
METHOD                    B3LYP
DFT_D                     d3_op
BASIS                     STO-3G
GEOM_OPT_MAX_CYCLES       100
GEOM_OPT_TOL_GRADIENT     300
GEOM_OPT_TOL_DISPLACEMENT 1200
GEOM_OPT_TOL_ENERGY       100
SYMMETRY                  False
THRESH                    12
SCF_CONVERGENCE           8
MAX_SUB_FILE_NUM          128
MEM_STATIC                400
MEM_TOTAL                 4000
$end
--------------------------------------------------------------

   15   -1510.0552767104      9.29E-09 Convergence criterion met
 Total energy in the final basis set = -1510.05527671
   14   -1510.1327263870      6.19E-09 Convergence criterion met
 Total energy in the final basis set = -1510.13272639
   14   -1510.1709506758      8.93E-09 Convergence criterion met
 Total energy in the final basis set = -1510.17095068
   14   -1510.2000540448      9.46E-09 Convergence criterion met
 Total energy in the final basis set = -1510.20005404
   14   -1510.2127084892      2.92E-09 Convergence criterion met
 Total energy in the final basis set = -1510.21270849
   14   -1510.2221907938      2.72E-09 Convergence criterion met
 Total energy in the final basis set = -1510.22219079
   13   -1510.2295905643      5.77E-09 Convergence criterion met
 Total energy in the final basis set = -1510.22959056
   14   -1510.2362702381      3.06E-09 Convergence criterion met
   10   -1510.2447290948      9.38E-09 Convergence criterion met
 Total energy in the final basis set = -1510.24472909
   10   -1510.2447398148      8.87E-09 Convergence criterion met
 Total energy in the final basis set = -1510.24473981
    9   -1510.2447484643      9.54E-09 Convergence criterion met
 Total energy in the final basis set = -1510.24474846
    9   -1510.2447463290      9.99E-09 Convergence criterion met
 Total energy in the final basis set = -1510.24474633
    9   -1510.2447493018      7.31E-09 Convergence criterion met
 Total energy in the final basis set = -1510.24474930
    9   -1510.2447567445      4.32E-09 Convergence criterion met
 Total energy in the final basis set = -1510.24475674

             Standard Nuclear Orientation (Angstroms)
    I     Atom           X                Y                Z
 ----------------------------------------------------------------
    1      O       4.4858145962    -2.9276082285    -0.4689320735
    2      C       3.6632904203    -2.0356500192    -0.1592223510
    3      C       3.6715761152    -0.6190491094    -0.8461617734
    4      C       2.7201538094     0.6026551623    -0.4915481888
    5      C       1.8178103320     0.6236196087     0.7985385006
    6      O       1.0838170115     1.8639155201     0.7205178781
    7      C      -0.1995297894     1.7639171137     1.4589575726
    8      C      -1.1262895204     2.8623499908     0.8045635274
    9      O      -2.5853338846     2.7467137962     1.0066854174
   10      C      -3.0300309292     1.3562857839     1.0005545481
   11      C      -3.5981816246     0.9571205438    -0.4117789443
   12      C      -3.1748594394    -0.4782965069    -0.9396376614
   13      C      -2.4886827562    -1.3929767728     0.1362568737
   14      O      -3.0364412665    -2.0291305219     1.0609657999
   15      O       2.6117892275    -2.2547582471     0.7829946009
   16      O      -1.0720010088    -1.3422233549    -0.0767425315
   17      O      -3.0373301400     0.6555457801     2.0325348311
   18      C      -0.3849532671    -2.2410512111     0.8815882400
   19      C      -5.1897940026     0.8373273459    -0.4428114212
   20      C      -5.6480538440     1.0336524177    -1.9405079343
   21      C      -5.1677294961    -0.3237902287    -2.5770859106
   22      C      -4.5995851597    -1.0769243882    -1.3085823533
   23      O      -5.4486187667    -0.5956368677    -0.1943915652
   24      H      -3.2636831429     1.7358094490    -1.1191650668
   25      H      -2.5048697716    -0.3962602045    -1.8133346114
   26      H      -5.7173126379     1.4639907651     0.3022271170
   27      H      -6.7437619346     1.1376472908    -1.9930919909
   28      H      -5.1852949234     1.9163917081    -2.4101793418
   29      H      -6.0062742609    -0.8849976024    -3.0186739508
   30      H      -4.3941560173    -0.1787736772    -3.3479528926
   31      H      -4.6284966899    -2.1823282115    -1.3623999492
   32      O       1.6946590855    -0.1762337418     1.7455982306
   33      C       2.7441173187    -3.6143123118     1.3658381842
   34      C       5.1120677308     0.0579622695    -0.6885826855
   35      C       5.3967183438     0.9099050454    -1.9853841957
   36      C       4.4051604743     2.1119809364    -1.7703803376
   37      C       3.8048565031     1.7668573227    -0.3507988763
   38      O       4.9136074330     1.0863288029     0.3551732328
   39      H       3.5146566050    -0.8476115384    -1.9176169017
   40      H       2.0415809496     0.8010046688    -1.3407745577
   41      H       3.7448290900    -3.7640091197     1.8167697463
   42      H       5.9125382936    -0.6512176989    -0.4011995255
   43      H       6.4448301368     1.2494475502    -1.9972777135
   44      H       5.1966679176     0.3451915628    -2.9100023086
   45      H       4.9365666537     3.0762968493    -1.7381413685
   46      H       3.6248814194     2.1664466152    -2.5464675979
   47      H       3.4452463481     2.6384606507     0.2298393361
   48      H       2.5758827957    -4.4012686322     0.6025596036
   49      H       1.9665184527    -3.6810758468     2.1480260053
   50      H       0.7059507874    -2.0820611491     0.7408588109
   51      H      -0.6444743973    -3.3008980706     0.6841045222
   52      H      -0.6651349377    -2.0026007349     1.9269387808
   53      H      -0.8502307610     3.8652408296     1.1911268578
   54      H      -0.8975692473     2.8486097526    -0.2887433580
   55      H      -0.0650395885     1.9437631195     2.5477449537
   56      H      -0.6350234254     0.7499163456     1.3275354787
 ----------------------------------------------------------------

    9   -1510.2447565907      6.37E-09 Convergence criterion met
 Total energy in the final basis set = -1510.24475659
 Final energy is   -1510.24475659070
 **  OPTIMIZATION CONVERGED  **

                    Orbital Energies (a.u.)
 --------------------------------------------------------------

 Alpha MOs
 -- Occupied --
-18.950 -18.925 -18.923 -18.910 -18.902 -18.894 -18.892 -18.889
-18.876 -18.872 -10.112 -10.107 -10.104 -10.092 -10.075 -10.070
-10.068 -10.065 -10.064 -10.064 -10.062 -10.045 -10.044 -10.041
-10.039 -10.038 -10.025 -10.023 -10.023 -10.022  -1.020  -1.013
 -1.010  -1.003  -0.976  -0.973  -0.944  -0.941  -0.935  -0.929
 -0.767  -0.765  -0.728  -0.724  -0.716  -0.708  -0.696  -0.667
 -0.652  -0.618  -0.601  -0.585  -0.548  -0.547  -0.543  -0.540
 -0.522  -0.513  -0.484  -0.471  -0.462  -0.455  -0.453  -0.451
 -0.439  -0.436  -0.434  -0.421  -0.416  -0.407  -0.400  -0.399
 -0.389  -0.386  -0.377  -0.374  -0.362  -0.361  -0.354  -0.349
 -0.346  -0.341  -0.340  -0.335  -0.333  -0.330  -0.319  -0.316
 -0.313  -0.313  -0.309  -0.305  -0.299  -0.298  -0.282  -0.276
 -0.274  -0.262  -0.252  -0.247  -0.242  -0.239  -0.237  -0.186
 -0.176  -0.172  -0.163  -0.159  -0.158  -0.152  -0.149  -0.148
 -0.144

          Ground-State Mulliken Net Atomic Charges

     Atom                 Charge (a.u.)
  ----------------------------------------
      1 O                    -0.216442
      2 C                     0.210323
      3 C                    -0.080908
      4 C                    -0.077842
      5 C                     0.215099
      6 O                    -0.186551
      7 C                    -0.053990
      8 C                    -0.046394
      9 O                    -0.198307
     10 C                     0.218345
     11 C                    -0.083496
     12 C                    -0.081025
     13 C                     0.203865
     14 O                    -0.201317
     15 O                    -0.155879
     16 O                    -0.181337
     17 O                    -0.170932
     18 C                    -0.147648
     19 C                     0.027070
     20 C                    -0.142540
     21 C                    -0.145017
     22 C                     0.026869
     23 O                    -0.182045
     24 H                     0.082151
     25 H                     0.083202
     26 H                     0.085973
     27 H                     0.079214
     28 H                     0.074037
     29 H                     0.078844
     30 H                     0.072956
     31 H                     0.085699
     32 O                    -0.193287
     33 C                    -0.126565
     34 C                     0.026142
     35 C                    -0.142880
     36 C                    -0.144852
     37 C                     0.025547
     38 O                    -0.189721
     39 H                     0.085227
     40 H                     0.085727
     41 H                     0.094144
     42 H                     0.088256
     43 H                     0.079179
     44 H                     0.074517
     45 H                     0.079121
     46 H                     0.073630
     47 H                     0.088392
     48 H                     0.089315
     49 H                     0.096143
     50 H                     0.111140
     51 H                     0.076282
     52 H                     0.088345
     53 H                     0.089957
     54 H                     0.075065
     55 H                     0.088615
     56 H                     0.090581
  ----------------------------------------
  Sum of atomic charges =     0.000000

                    Cartesian Multipole Moments
 -----------------------------------------------------------------
    Charge (ESU x 10^10)
                 0.0000
    Dipole Moment (Debye)
         X       0.9735      Y       1.2415      Z      -4.3544
       Tot       4.6314
    Quadrupole Moments (Debye-Ang)
        XX    -170.9084     XY      -2.6931     YY    -156.8898
        XZ       8.1564     YZ      -2.5575     ZZ    -159.6345

 Total job time:  65.50s(wall), 3119.06s(cpu)
        *  Thank you very much for using Q-Chem.  Have a nice day.  *
