 Q-Chem 5.0, Q-Chem, Inc., Pleasanton, CA (2017)
 Q-Chem 5.0.1 for Intel X86 EM64T Linux

User input:
--------------------------------------------------------------
$molecule
0  1
O 4.4858145962 -2.9276082285 -0.4689320735
C 3.6632904203 -2.0356500192 -0.159222351
C 3.6715761152 -0.6190491094 -0.8461617734
C 2.7201538094 0.6026551623 -0.4915481888
C 1.817810332 0.6236196087 0.7985385006
O 1.0838170115 1.8639155201 0.7205178781
C -0.1995297894 1.7639171137 1.4589575726
C -1.1262895204 2.8623499908 0.8045635274
O -2.5853338846 2.7467137962 1.0066854174
C -3.0300309292 1.3562857839 1.0005545481
C -3.5981816246 0.9571205438 -0.4117789443
C -3.1748594394 -0.4782965069 -0.9396376614
C -2.4886827562 -1.3929767728 0.1362568737
O -3.0364412665 -2.0291305219 1.0609657999
O 2.6117892275 -2.2547582471 0.7829946009
O -1.0720010088 -1.3422233549 -0.0767425315
O -3.03733014 0.6555457801 2.0325348311
C -0.3849532671 -2.2410512111 0.88158824
C -5.1897940026 0.8373273459 -0.4428114212
C -5.648053844 1.0336524177 -1.9405079343
C -5.1677294961 -0.3237902287 -2.5770859106
C -4.5995851597 -1.0769243882 -1.3085823533
O -5.4486187667 -0.5956368677 -0.1943915652
H -3.2636831429 1.735809449 -1.1191650668
H -2.5048697716 -0.3962602045 -1.8133346114
H -5.7173126379 1.4639907651 0.302227117
H -6.7437619346 1.1376472908 -1.9930919909
H -5.1852949234 1.9163917081 -2.4101793418
H -6.0062742609 -0.8849976024 -3.0186739508
H -4.3941560173 -0.1787736772 -3.3479528926
H -4.6284966899 -2.1823282115 -1.3623999492
O 1.6946590855 -0.1762337418 1.7455982306
C 2.7441173187 -3.6143123118 1.3658381842
C 5.1120677308 0.0579622695 -0.6885826855
C 5.3967183438 0.9099050454 -1.9853841957
C 4.4051604743 2.1119809364 -1.7703803376
C 3.8048565031 1.7668573227 -0.3507988763
O 4.913607433 1.0863288029 0.3551732328
H 3.514656605 -0.8476115384 -1.9176169017
H 2.0415809496 0.8010046688 -1.3407745577
H 3.74482909 -3.7640091197 1.8167697463
H 5.9125382936 -0.6512176989 -0.4011995255
H 6.4448301368 1.2494475502 -1.9972777135
H 5.1966679176 0.3451915628 -2.9100023086
H 4.9365666537 3.0762968493 -1.7381413685
H 3.6248814194 2.1664466152 -2.5464675979
H 3.4452463481 2.6384606507 0.2298393361
H 2.5758827957 -4.4012686322 0.6025596036
H 1.9665184527 -3.6810758468 2.1480260053
H 0.7059507874 -2.0820611491 0.7408588109
H -0.6444743973 -3.3008980706 0.6841045222
H -0.6651349377 -2.0026007349 1.9269387808
H -0.850230761 3.8652408296 1.1911268578
H -0.8975692473 2.8486097526 -0.288743358
H -0.0650395885 1.9437631195 2.5477449537
H -0.6350234254 0.7499163456 1.3275354787
$end

$rem
JOBTYPE                   OPT
METHOD                    B3LYP
DFT_D                     d3_op
BASIS                     STO-3G
GEOM_OPT_MAX_CYCLES       100
GEOM_OPT_TOL_GRADIENT     300
GEOM_OPT_TOL_DISPLACEMENT 1200
GEOM_OPT_TOL_ENERGY       100
SYMMETRY                  False
THRESH                    12
SCF_CONVERGENCE           8
MAX_SUB_FILE_NUM          128
MEM_STATIC                400
MEM_TOTAL                 4000
$end
--------------------------------------------------------------

   16   -1510.2448591179      5.23E-09 Convergence criterion met
 Total energy in the final basis set = -1510.24485912
   15   -1510.2441273541      3.30E-09 Convergence criterion met
 Total energy in the final basis set = -1510.24412735
   13   -1510.2479498782      6.23E-09 Convergence criterion met
 Total energy in the final basis set = -1510.24794988
   14   -1510.2522605220      6.18E-09 Convergence criterion met
 Total energy in the final basis set = -1510.25226052
   13   -1510.2548701086      4.36E-09 Convergence criterion met
 Total energy in the final basis set = -1510.25487011
   13   -1510.2574733785      8.74E-09 Convergence criterion met
 Total energy in the final basis set = -1510.25747338
   13   -1510.2598274970      5.25E-09 Convergence criterion met
 Total energy in the final basis set = -1510.25982750
   13   -1510.2620996975      6.13E-09 Convergence criterion met
   13   -1510.2939285367      2.12E-09 Convergence criterion met
 Total energy in the final basis set = -1510.29392854
   12   -1510.2939589317      2.13E-09 Convergence criterion met
 Total energy in the final basis set = -1510.29395893
   10   -1510.2939643748      5.93E-09 Convergence criterion met
 Total energy in the final basis set = -1510.29396437
   12   -1510.2939783194      3.78E-09 Convergence criterion met
 Total energy in the final basis set = -1510.29397832
   10   -1510.2939847710      8.65E-09 Convergence criterion met
 Total energy in the final basis set = -1510.29398477
   10   -1510.2939914637      9.27E-09 Convergence criterion met
 Total energy in the final basis set = -1510.29399146

             Standard Nuclear Orientation (Angstroms)
    I     Atom           X                Y                Z
 ----------------------------------------------------------------
    1      O       4.3565950319    -0.7069597206     1.6592448810
    2      C       3.4088633412    -1.0606267900     0.9294651406
    3      C       2.9627201163    -0.4830897565    -0.4583655120
    4      C       1.6169305494     0.3453461368    -0.4178513496
    5      C       1.2187022135     0.7567571216     1.0331824688
    6      O       0.2344426879     1.8065453118     0.9701741296
    7      C      -0.2380767580     2.1511279114     2.3296958109
    8      C      -1.7378738072     1.7128476994     2.5154843526
    9      O      -1.8928878716     0.2429368367     2.4656374172
   10      C      -1.9314799538    -0.3461154055     1.1555728316
   11      C      -2.2192479960     0.5575491971    -0.1036942397
   12      C      -2.1265205377    -0.2603237901    -1.4578785337
   13      C      -1.6348431712    -1.7476516206    -1.2972001363
   14      O      -2.2888054686    -2.7982253907    -1.4521045394
   15      O       2.5787390736    -2.2132151603     1.1790628353
   16      O      -0.2099071379    -1.6950156975    -1.1070611476
   17      O      -1.8120051584    -1.5927168017     1.1039909101
   18      C       0.3558041428    -3.0064063867    -0.7181842892
   19      C      -3.7495062434     0.9981766286    -0.1386484726
   20      C      -3.9269209717     2.1166736922    -1.2413127918
   21      C      -3.8705475890     1.2571579264    -2.5591085447
   22      C      -3.6231108751    -0.1851650679    -1.9691575608
   23      O      -4.4204265591    -0.1848222501    -0.7199273288
   24      H      -1.5092716608     1.4048936450    -0.0992316432
   25      H      -1.4378699357     0.2468150510    -2.1573956378
   26      H      -4.1893062654     1.2363510239     0.8491670487
   27      H      -4.9001827338     2.6197311315    -1.1263333351
   28      H      -3.1291235478     2.8756918039    -1.1940080887
   29      H      -4.8278566025     1.2925825353    -3.1030063957
   30      H      -3.0642572061     1.5729737579    -3.2402293092
   31      H      -3.9233139963    -1.0321807815    -2.6159480284
   32      O       1.6449992458     0.2805800840     2.1090757244
   33      C       2.8536726032    -2.7678656538     2.5208092755
   34      C       3.9560613951     0.5778012344    -1.0986999453
   35      C       3.7225156885     0.5437711296    -2.6592987094
   36      C       2.2961840506     1.2045095529    -2.7564589193
   37      C       2.0393120159     1.6186130929    -1.2523124404
   38      O       3.3955797085     1.8956708165    -0.7157948987
   39      H       2.8386802695    -1.3463155464    -1.1360395541
   40      H       0.7824251912    -0.2677973468    -0.8421280008
   41      H       2.6106827422    -2.0293849590     3.3119163811
   42      H       5.0070425083     0.4913116116    -0.7609021333
   43      H       4.4823035180     1.1527886172    -3.1748656806
   44      H       3.7498566566    -0.4792656865    -3.0670971189
   45      H       2.3032780321     2.0925842179    -3.4079599710
   46      H       1.5293139804     0.5033524966    -3.1238923209
   47      H       1.3767735597     2.4935441712    -1.1072880565
   48      H       3.9157160207    -3.0696102861     2.6281446675
   49      H       2.2018902002    -3.6544186445     2.6282996310
   50      H       1.1777670813    -2.7981076021     0.0070698995
   51      H       0.7586357091    -3.5279927311    -1.6107252227
   52      H      -0.4232044071    -3.6415079195    -0.2548030835
   53      H      -2.0606162691     2.0013064751     3.5377890975
   54      H      -2.3850444634     2.2406665813     1.7871016323
   55      H      -0.1570226119     3.2509327935     2.4572481170
   56      H       0.4084377097     1.6275739324     3.0673950032
 ----------------------------------------------------------------

    9   -1510.2939922093      4.14E-09 Convergence criterion met
 Total energy in the final basis set = -1510.29399221
 Final energy is   -1510.29399220925
 **  OPTIMIZATION CONVERGED  **

                    Orbital Energies (a.u.)
 --------------------------------------------------------------

 Alpha MOs
 -- Occupied --
-18.945 -18.945 -18.927 -18.927 -18.893 -18.893 -18.890 -18.883
-18.869 -18.869 -10.110 -10.109 -10.099 -10.095 -10.090 -10.081
-10.069 -10.062 -10.058 -10.057 -10.055 -10.042 -10.040 -10.038
-10.030 -10.028 -10.025 -10.023 -10.020 -10.018  -1.028  -1.016
 -1.003  -1.001  -0.976  -0.967  -0.953  -0.944  -0.931  -0.930
 -0.767  -0.761  -0.731  -0.727  -0.717  -0.711  -0.700  -0.657
 -0.652  -0.621  -0.604  -0.586  -0.552  -0.546  -0.543  -0.537
 -0.519  -0.513  -0.493  -0.479  -0.472  -0.460  -0.457  -0.447
 -0.437  -0.434  -0.430  -0.418  -0.412  -0.408  -0.404  -0.403
 -0.401  -0.395  -0.379  -0.371  -0.366  -0.358  -0.351  -0.350
 -0.344  -0.336  -0.334  -0.333  -0.331  -0.329  -0.325  -0.319
 -0.317  -0.313  -0.307  -0.306  -0.301  -0.281  -0.280  -0.277
 -0.275  -0.258  -0.253  -0.250  -0.240  -0.238  -0.227  -0.198
 -0.176  -0.172  -0.168  -0.168  -0.159  -0.150  -0.148  -0.146
 -0.141

          Ground-State Mulliken Net Atomic Charges

     Atom                 Charge (a.u.)
  ----------------------------------------
      1 O                    -0.212161
      2 C                     0.218770
      3 C                    -0.083345
      4 C                    -0.098113
      5 C                     0.216096
      6 O                    -0.180972
      7 C                    -0.059337
      8 C                    -0.049829
      9 O                    -0.167254
     10 C                     0.212046
     11 C                    -0.092161
     12 C                    -0.081507
     13 C                     0.224378
     14 O                    -0.210391
     15 O                    -0.177327
     16 O                    -0.185978
     17 O                    -0.191404
     18 C                    -0.143804
     19 C                     0.021331
     20 C                    -0.144502
     21 C                    -0.143474
     22 C                     0.024872
     23 O                    -0.186347
     24 H                     0.095857
     25 H                     0.081451
     26 H                     0.080422
     27 H                     0.078867
     28 H                     0.072383
     29 H                     0.079365
     30 H                     0.073630
     31 H                     0.091185
     32 O                    -0.205665
     33 C                    -0.126954
     34 C                     0.023018
     35 C                    -0.142099
     36 C                    -0.144975
     37 C                     0.020896
     38 O                    -0.193240
     39 H                     0.083258
     40 H                     0.119982
     41 H                     0.094845
     42 H                     0.087565
     43 H                     0.077032
     44 H                     0.073140
     45 H                     0.075794
     46 H                     0.073408
     47 H                     0.082877
     48 H                     0.087754
     49 H                     0.089625
     50 H                     0.110153
     51 H                     0.074771
     52 H                     0.096869
     53 H                     0.095840
     54 H                     0.085512
     55 H                     0.088985
     56 H                     0.108865
  ----------------------------------------
  Sum of atomic charges =     0.000000

                    Cartesian Multipole Moments
 -----------------------------------------------------------------
    Charge (ESU x 10^10)
                -0.0000
    Dipole Moment (Debye)
         X      -0.6685      Y       3.0898      Z      -1.4821
       Tot       3.4915
    Quadrupole Moments (Debye-Ang)
        XX    -173.6513     XY     -20.0236     YY    -158.1224
        XZ      -6.0210     YZ       1.6439     ZZ    -153.6063

 Total job time:  201.98s(wall), 9633.40s(cpu)
        *  Thank you very much for using Q-Chem.  Have a nice day.  *
