 Q-Chem 5.0, Q-Chem, Inc., Pleasanton, CA (2017)
 Q-Chem 5.0.1 for Intel X86 EM64T Linux

User input:
--------------------------------------------------------------
$molecule
0  1
O -3.94934 -3.66094 2.70899
C -3.26408 -4.56952 2.26188
C -3.36658 -6.02376 2.66595
C -2.60389 -6.45765 3.92844
C -1.96908 -5.35422 4.74548
O -1.01125 -5.87726 5.56671
C -0.03519 -4.91431 5.97815
C 1.20545 -5.62007 6.51557
O 2.32262 -4.71741 6.5109
C 3.03651 -4.6791 5.3585
C 4.51134 -4.4486 5.5874
C 5.4254 -4.92598 4.44947
C 4.7392 -5.22375 3.13145
O 5.1659 -4.92226 2.02619
O -2.37758 -4.29271 1.27007
O 3.80505 -6.21421 3.17808
O 2.48742 -4.3429 4.31834
C 3.16197 -6.74138 2.07703
C 4.89683 -2.95596 5.64683
C 6.18678 -2.79724 6.44861
C 7.18764 -3.42194 5.49695
C 6.29078 -3.66256 4.27507
O 5.32718 -2.63985 4.34544
H 4.77642 -4.92103 6.56157
H 5.99935 -5.83612 4.7305
H 4.096 -2.31001 6.06882
H 6.3888 -1.70356 6.51094
H 6.17949 -3.22374 7.4747
H 7.97881 -2.67081 5.27889
H 7.64601 -4.37251 5.84646
H 6.90673 -3.68965 3.34967
O -2.12886 -4.15053 4.586
C -2.15917 -3.03327 0.75247
C -4.8031 -6.40126 3.08539
C -5.01047 -7.91051 2.95695
C -4.19025 -8.40942 4.12827
C -3.74681 -7.07908 4.74413
O -4.82087 -6.20956 4.47962
H -3.08625 -6.63167 1.77559
H -1.79925 -7.18139 3.66416
H -1.79906 -2.34925 1.55055
H -5.58276 -5.85945 2.50581
H -6.08474 -8.11677 3.16573
H -4.73977 -8.34004 1.96849
H -4.8675 -8.94868 4.82749
H -3.32574 -9.05582 3.86296
H -3.4794 -7.21663 5.81529
H -3.09621 -2.63358 0.30902
H -1.38646 -3.09511 -0.041
H 2.45082 -7.52402 2.4122
H 3.89939 -7.20099 1.38483
H 2.59497 -5.94505 1.54917
H 1.01656 -6.01461 7.53585
H 1.43584 -6.49611 5.8637
H -0.44372 -4.18389 6.7106
H 0.27881 -4.34868 5.07743
$end

$opt
CONSTRAINT
tors           1           2           3           4     -83.907
tors           3           4           5           6    -161.471
tors           4           5           6           7    +157.426
tors           5           6           7           8    -162.693
tors           6           7           8           9    +161.053
tors           7           8           9          10     -87.920
tors           8           9          10          11    -145.776
tors           9          10          11          12    +157.216
tors          11          12          13          14    +138.388
ENDCONSTRAINT
$end

$rem
JOBTYPE                   OPT
METHOD                    B3LYP
DFT_D                     d3_op
BASIS                     STO-3G
GEOM_OPT_MAX_CYCLES       100
GEOM_OPT_TOL_GRADIENT     300
GEOM_OPT_TOL_DISPLACEMENT 1200
GEOM_OPT_TOL_ENERGY       100
SYMMETRY                  False
THRESH                    12
SCF_CONVERGENCE           8
MAX_SUB_FILE_NUM          128
MEM_STATIC                400
MEM_TOTAL                 4000
$end
--------------------------------------------------------------

   15   -1510.1258938427      7.86E-09 Convergence criterion met
 Total energy in the final basis set = -1510.12589384
   13   -1510.1970199102      8.25E-09 Convergence criterion met
 Total energy in the final basis set = -1510.19701991
   14   -1510.2353738662      4.29E-09 Convergence criterion met
 Total energy in the final basis set = -1510.23537387
   14   -1510.2529610788      3.79E-09 Convergence criterion met
 Total energy in the final basis set = -1510.25296108
   13   -1510.2599472719      8.24E-09 Convergence criterion met
 Total energy in the final basis set = -1510.25994727
   13   -1510.2632751784      4.10E-09 Convergence criterion met
 Total energy in the final basis set = -1510.26327518
   13   -1510.2652873338      3.63E-09 Convergence criterion met
 Total energy in the final basis set = -1510.26528733
   13   -1510.2666870146      2.56E-09 Convergence criterion met
   12   -1510.2711545417      5.93E-09 Convergence criterion met
 Total energy in the final basis set = -1510.27115454
   11   -1510.2712316849      4.86E-09 Convergence criterion met
 Total energy in the final basis set = -1510.27123168
   10   -1510.2712913397      9.25E-09 Convergence criterion met
 Total energy in the final basis set = -1510.27129134
   10   -1510.2713150346      8.12E-09 Convergence criterion met
 Total energy in the final basis set = -1510.27131503
    9   -1510.2713196754      9.89E-09 Convergence criterion met
 Total energy in the final basis set = -1510.27131968
    9   -1510.2713216480      5.65E-09 Convergence criterion met
 Total energy in the final basis set = -1510.27132165

             Standard Nuclear Orientation (Angstroms)
    I     Atom           X                Y                Z
 ----------------------------------------------------------------
    1      O      -4.9970723745     1.0635925541     2.2888400564
    2      C      -4.2556924182     1.4687241973     1.3692277968
    3      C      -4.2863517646     1.0408858242    -0.1464072079
    4      C      -3.4874599568    -0.2906223074    -0.4563131575
    5      C      -2.5646167284    -0.7680264808     0.7154430688
    6      O      -1.6008492451    -1.6839719455     0.1808332704
    7      C      -0.4061675354    -1.7515252185     1.0600854377
    8      C       0.7351855270    -2.3969332138     0.1887098717
    9      O       2.0854464218    -2.1336293927     0.7414043211
   10      C       2.5994899439    -0.8898226540     0.2316540594
   11      C       4.1534986452    -1.0011413541     0.0507961624
   12      C       4.6999516113     0.0439590085    -1.0010508749
   13      C       3.6108156648     0.6924124848    -1.9288157163
   14      O       3.5329381790     1.8899994292    -2.2740033921
   15      O      -3.2303911901     2.4593522027     1.5270750371
   16      O       2.8297931183    -0.3658132147    -2.5097786472
   17      O       1.8871261407     0.0995039475    -0.0484952405
   18      C       1.7840973575     0.2047998765    -3.3867007492
   19      C       4.8662627230    -0.4621735479     1.3684331665
   20      C       6.4256591992    -0.6984683030     1.2568233913
   21      C       6.8506205320     0.4779333038     0.3011352168
   22      C       5.4412148834     1.0852699665    -0.0622685072
   23      O       4.7067821121     1.0034374308     1.2230436871
   24      H       4.4213933243    -2.0443689289    -0.1891132872
   25      H       5.4263298196    -0.4544135595    -1.6701757530
   26      H       4.4040960606    -0.8132139828     2.3117522536
   27      H       6.9027097276    -0.6145363320     2.2459400970
   28      H       6.6580896794    -1.6898228125     0.8357499470
   29      H       7.4637925171     1.2242072891     0.8312036017
   30      H       7.4032303940     0.1303623675    -0.5863230562
   31      H       5.4392362978     2.1227513440    -0.4501979467
   32      O      -2.5462906694    -0.3516219670     1.8948747326
   33      C      -3.0978035027     2.8148055983     2.9576179861
   34      C      -5.7572525823     0.5808946347    -0.5291127849
   35      C      -5.8592906725     0.3985792459    -2.0958504035
   36      C      -5.1250094299    -0.9791964890    -2.2958956935
   37      C      -4.6736362368    -1.2924271157    -0.8156829316
   38      O      -5.8097509405    -0.8051539698    -0.0055390210
   39      H      -3.9216340835     1.8797714484    -0.7645097085
   40      H      -2.8318520132    -0.1550201906    -1.3352972201
   41      H      -2.8163269619     1.9302395588     3.5649148039
   42      H      -6.5580010361     1.1924371789    -0.0706365651
   43      H      -6.9134621447     0.3455193533    -2.4108638161
   44      H      -5.3698392178     1.2224416286    -2.6397053357
   45      H      -5.8169083820    -1.7564459186    -2.6581624588
   46      H      -4.2716561395    -0.9133495997    -2.9894979799
   47      H      -4.4627912169    -2.3575592115    -0.5982868210
   48      H      -4.0393050371     3.2373933119     3.3644954373
   49      H      -2.2962882576     3.5743597033     3.0126212598
   50      H       1.2753064722    -0.6557672191    -3.8592277834
   51      H       2.2163897251     0.8585590058    -4.1714613205
   52      H       1.0483886788     0.7945524204    -2.8019079508
   53      H       0.6260112631    -3.5003428826     0.1680264914
   54      H       0.6463357055    -2.0035579979    -0.8466300697
   55      H      -0.6044892696    -2.3572564802     1.9711678207
   56      H      -0.1031944791    -0.7308187303     1.3785063019
 ----------------------------------------------------------------

    9   -1510.2713224152      2.93E-09 Convergence criterion met
 Total energy in the final basis set = -1510.27132242
 Final energy is   -1510.27132241523
 **  OPTIMIZATION CONVERGED  **

                    Orbital Energies (a.u.)
 --------------------------------------------------------------

 Alpha MOs
 -- Occupied --
-18.933 -18.933 -18.928 -18.918 -18.890 -18.889 -18.887 -18.885
-18.873 -18.858 -10.108 -10.104 -10.099 -10.086 -10.080 -10.073
-10.064 -10.063 -10.061 -10.060 -10.056 -10.050 -10.042 -10.039
-10.038 -10.032 -10.023 -10.022 -10.020 -10.019  -1.019  -1.015
 -1.006  -0.995  -0.973  -0.969  -0.946  -0.940  -0.934  -0.920
 -0.766  -0.761  -0.729  -0.722  -0.715  -0.706  -0.696  -0.662
 -0.652  -0.618  -0.597  -0.582  -0.549  -0.545  -0.540  -0.536
 -0.516  -0.509  -0.486  -0.467  -0.463  -0.458  -0.452  -0.449
 -0.440  -0.434  -0.431  -0.413  -0.411  -0.407  -0.399  -0.399
 -0.390  -0.384  -0.381  -0.369  -0.361  -0.359  -0.349  -0.347
 -0.344  -0.341  -0.335  -0.332  -0.328  -0.327  -0.325  -0.314
 -0.311  -0.308  -0.305  -0.300  -0.297  -0.286  -0.277  -0.275
 -0.273  -0.257  -0.253  -0.249  -0.241  -0.236  -0.232  -0.186
 -0.178  -0.172  -0.163  -0.163  -0.156  -0.152  -0.146  -0.143
 -0.137

          Ground-State Mulliken Net Atomic Charges

     Atom                 Charge (a.u.)
  ----------------------------------------
      1 O                    -0.212543
      2 C                     0.213843
      3 C                    -0.080572
      4 C                    -0.079022
      5 C                     0.213180
      6 O                    -0.178661
      7 C                    -0.049690
      8 C                    -0.045710
      9 O                    -0.179251
     10 C                     0.219351
     11 C                    -0.077561
     12 C                    -0.079895
     13 C                     0.216036
     14 O                    -0.212255
     15 O                    -0.174105
     16 O                    -0.178526
     17 O                    -0.202380
     18 C                    -0.129390
     19 C                     0.025008
     20 C                    -0.144598
     21 C                    -0.142638
     22 C                     0.024176
     23 O                    -0.188871
     24 H                     0.088005
     25 H                     0.084253
     26 H                     0.083861
     27 H                     0.078942
     28 H                     0.073823
     29 H                     0.078926
     30 H                     0.073488
     31 H                     0.092146
     32 O                    -0.203116
     33 C                    -0.128518
     34 C                     0.026291
     35 C                    -0.145135
     36 C                    -0.142709
     37 C                     0.025908
     38 O                    -0.185120
     39 H                     0.084709
     40 H                     0.085501
     41 H                     0.093331
     42 H                     0.085852
     43 H                     0.077916
     44 H                     0.073294
     45 H                     0.077831
     46 H                     0.072676
     47 H                     0.084079
     48 H                     0.085732
     49 H                     0.087079
     50 H                     0.086365
     51 H                     0.089671
     52 H                     0.090636
     53 H                     0.090916
     54 H                     0.093071
     55 H                     0.087039
     56 H                     0.097329
  ----------------------------------------
  Sum of atomic charges =     0.000000

                    Cartesian Multipole Moments
 -----------------------------------------------------------------
    Charge (ESU x 10^10)
                 0.0000
    Dipole Moment (Debye)
         X       2.6421      Y      -1.9290      Z      -2.8170
       Tot       4.3171
    Quadrupole Moments (Debye-Ang)
        XX    -157.5933     XY     -11.9565     YY    -159.0677
        XZ      13.1403     YZ       2.9724     ZZ    -157.3395

 Total job time:  57.78s(wall), 2750.19s(cpu)
        *  Thank you very much for using Q-Chem.  Have a nice day.  *
