 Q-Chem 5.0, Q-Chem, Inc., Pleasanton, CA (2017)
 Q-Chem 5.0.1 for Intel X86 EM64T Linux

User input:
--------------------------------------------------------------
$molecule
0  1
O -4.9970723745 1.0635925541 2.2888400564
C -4.2556924182 1.4687241973 1.3692277968
C -4.2863517646 1.0408858242 -0.1464072079
C -3.4874599568 -0.2906223074 -0.4563131575
C -2.5646167284 -0.7680264808 0.7154430688
O -1.6008492451 -1.6839719455 0.1808332704
C -0.4061675354 -1.7515252185 1.0600854377
C 0.735185527 -2.3969332138 0.1887098717
O 2.0854464218 -2.1336293927 0.7414043211
C 2.5994899439 -0.889822654 0.2316540594
C 4.1534986452 -1.0011413541 0.0507961624
C 4.6999516113 0.0439590085 -1.0010508749
C 3.6108156648 0.6924124848 -1.9288157163
O 3.532938179 1.8899994292 -2.2740033921
O -3.2303911901 2.4593522027 1.5270750371
O 2.8297931183 -0.3658132147 -2.5097786472
O 1.8871261407 0.0995039475 -0.0484952405
C 1.7840973575 0.2047998765 -3.3867007492
C 4.866262723 -0.4621735479 1.3684331665
C 6.4256591992 -0.698468303 1.2568233913
C 6.850620532 0.4779333038 0.3011352168
C 5.4412148834 1.0852699665 -0.0622685072
O 4.7067821121 1.0034374308 1.2230436871
H 4.4213933243 -2.0443689289 -0.1891132872
H 5.4263298196 -0.4544135595 -1.670175753
H 4.4040960606 -0.8132139828 2.3117522536
H 6.9027097276 -0.614536332 2.245940097
H 6.6580896794 -1.6898228125 0.835749947
H 7.4637925171 1.2242072891 0.8312036017
H 7.403230394 0.1303623675 -0.5863230562
H 5.4392362978 2.122751344 -0.4501979467
O -2.5462906694 -0.351621967 1.8948747326
C -3.0978035027 2.8148055983 2.9576179861
C -5.7572525823 0.5808946347 -0.5291127849
C -5.8592906725 0.3985792459 -2.0958504035
C -5.1250094299 -0.979196489 -2.2958956935
C -4.6736362368 -1.2924271157 -0.8156829316
O -5.8097509405 -0.8051539698 -0.005539021
H -3.9216340835 1.8797714484 -0.7645097085
H -2.8318520132 -0.1550201906 -1.3352972201
H -2.8163269619 1.9302395588 3.5649148039
H -6.5580010361 1.1924371789 -0.0706365651
H -6.9134621447 0.3455193533 -2.4108638161
H -5.3698392178 1.2224416286 -2.6397053357
H -5.816908382 -1.7564459186 -2.6581624588
H -4.2716561395 -0.9133495997 -2.9894979799
H -4.4627912169 -2.3575592115 -0.598286821
H -4.0393050371 3.2373933119 3.3644954373
H -2.2962882576 3.5743597033 3.0126212598
H 1.2753064722 -0.6557672191 -3.8592277834
H 2.2163897251 0.8585590058 -4.1714613205
H 1.0483886788 0.7945524204 -2.8019079508
H 0.6260112631 -3.5003428826 0.1680264914
H 0.6463357055 -2.0035579979 -0.8466300697
H -0.6044892696 -2.3572564802 1.9711678207
H -0.1031944791 -0.7308187303 1.3785063019
$end

$rem
JOBTYPE                   OPT
METHOD                    B3LYP
DFT_D                     d3_op
BASIS                     STO-3G
GEOM_OPT_MAX_CYCLES       100
GEOM_OPT_TOL_GRADIENT     300
GEOM_OPT_TOL_DISPLACEMENT 1200
GEOM_OPT_TOL_ENERGY       100
SYMMETRY                  False
THRESH                    12
SCF_CONVERGENCE           8
MAX_SUB_FILE_NUM          128
MEM_STATIC                400
MEM_TOTAL                 4000
$end
--------------------------------------------------------------

   16   -1510.2712139008      6.86E-09 Convergence criterion met
 Total energy in the final basis set = -1510.27121390
   14   -1510.2762345141      2.03E-09 Convergence criterion met
 Total energy in the final basis set = -1510.27623451
   14   -1510.2802345942      2.12E-09 Convergence criterion met
 Total energy in the final basis set = -1510.28023459
   14   -1510.2826807133      2.07E-09 Convergence criterion met
 Total energy in the final basis set = -1510.28268071
   14   -1510.2842596262      1.94E-09 Convergence criterion met
 Total energy in the final basis set = -1510.28425963
   13   -1510.2848559810      6.74E-09 Convergence criterion met
 Total energy in the final basis set = -1510.28485598
   13   -1510.2852714069      4.83E-09 Convergence criterion met
 Total energy in the final basis set = -1510.28527141
   13   -1510.2857225383      5.47E-09 Convergence criterion met
   12   -1510.2869442775      4.27E-09 Convergence criterion met
 Total energy in the final basis set = -1510.28694428
   12   -1510.2870020609      3.11E-09 Convergence criterion met
 Total energy in the final basis set = -1510.28700206
   11   -1510.2869942080      7.86E-09 Convergence criterion met
 Total energy in the final basis set = -1510.28699421
   11   -1510.2870233720      3.41E-09 Convergence criterion met
 Total energy in the final basis set = -1510.28702337
   10   -1510.2870267191      5.12E-09 Convergence criterion met
 Total energy in the final basis set = -1510.28702672
   10   -1510.2870334383      3.71E-09 Convergence criterion met
 Total energy in the final basis set = -1510.28703344

             Standard Nuclear Orientation (Angstroms)
    I     Atom           X                Y                Z
 ----------------------------------------------------------------
    1      O      -4.5721958551     2.8467520369    -0.5666389186
    2      C      -4.3609211654     1.7476560925    -1.1207837548
    3      C      -4.9333484538     0.3411177016    -0.7026900438
    4      C      -3.8835940635    -0.6159836058    -0.0053684404
    5      C      -2.4823346209     0.0512906357     0.1941553855
    6      O      -1.5871788622    -0.9273232067     0.7278649078
    7      C      -0.2473409281    -0.3247559838     0.9444680611
    8      C       0.6619653027    -1.4668402113     1.5176954490
    9      O       2.0226817346    -0.9539564803     1.8113226985
   10      C       2.8295179790    -0.9815460858     0.6280746937
   11      C       4.2216507335    -0.3557333892     0.9599851430
   12      C       5.2939536672    -0.6011731397    -0.1784251915
   13      C       4.7895949159    -1.5026821700    -1.3660445136
   14      O       4.5574646399    -1.1479421287    -2.5405968270
   15      O      -3.6532104705     1.5789517979    -2.3582666083
   16      O       4.7645313846    -2.8628252559    -0.9059068158
   17      O       2.4374721591    -1.4203163948    -0.4765695080
   18      C       4.2327078587    -3.7393447670    -1.9724853713
   19      C       4.1288824812     1.2347210559     0.9400769136
   20      C       5.4499161828     1.8180398128     1.5804763784
   21      C       6.4806929194     1.5937199706     0.4117775297
   22      C       5.5696095465     0.8829636605    -0.6624047651
   23      O       4.2571718361     1.5532702039    -0.4979479556
   24      H       4.5570961000    -0.7300046516     1.9436542809
   25      H       6.2013769836    -1.0687848435     0.2444404599
   26      H       3.1839383453     1.6407854030     1.3510752206
   27      H       5.3252661117     2.8875788702     1.8128447958
   28      H       5.7288483529     1.2853703386     2.5035186040
   29      H       6.8616892507     2.5511915407     0.0222659128
   30      H       7.3361753623     0.9681230961     0.7123244669
   31      H       5.9084394517     0.9574424054    -1.7139141142
   32      O      -2.1612946252     1.2376254175    -0.0402801360
   33      C      -3.0448549114     2.8649314502    -2.7641936866
   34      C      -6.0238217216     0.4789936492     0.4401517099
   35      C      -6.8608538071    -0.8590070276     0.4914793622
   36      C      -5.8235417776    -1.8389800462     1.1556923301
   37      C      -4.5977244174    -0.8711670536     1.3943368956
   38      O      -5.2271011608     0.4338911299     1.6899268874
   39      H      -5.3484432921    -0.1391374720    -1.6068701304
   40      H      -3.7482951816    -1.5605546037    -0.5625118589
   41      H      -2.3012346584     3.2098931852    -2.0166981200
   42      H      -6.6113497473     1.4161639570     0.3932460903
   43      H      -7.7560752936    -0.7316658665     1.1208206062
   44      H      -7.1770408931    -1.1897282485    -0.5108331715
   45      H      -6.1950196617    -2.2342893986     2.1145551803
   46      H      -5.5584983054    -2.6859185458     0.5027323007
   47      H      -3.9084423043    -1.1704534123     2.2078888673
   48      H      -3.8096590925     3.6579721546    -2.8939628530
   49      H      -2.5394393447     2.6757970013    -3.7291793799
   50      H       4.2931632643    -4.7720354987    -1.5821511419
   51      H       4.8268001444    -3.6582825149    -2.9056706488
   52      H       3.1765258941    -3.4908642810    -2.2043816779
   53      H       0.2548658195    -1.8326390431     2.4816198922
   54      H       0.7066424932    -2.3023955666     0.7872522931
   55      H      -0.3041644139     0.5236749603     1.6605539165
   56      H       0.1725280093     0.0555036022    -0.0124103059
 ----------------------------------------------------------------

    9   -1510.2870336321      8.16E-09 Convergence criterion met
 Total energy in the final basis set = -1510.28703363
 Final energy is   -1510.28703363207
 **  OPTIMIZATION CONVERGED  **

                    Orbital Energies (a.u.)
 --------------------------------------------------------------

 Alpha MOs
 -- Occupied --
-18.946 -18.942 -18.921 -18.916 -18.890 -18.889 -18.887 -18.887
-18.863 -18.858 -10.110 -10.107 -10.092 -10.087 -10.082 -10.078
-10.064 -10.061 -10.058 -10.056 -10.056 -10.050 -10.043 -10.040
-10.035 -10.031 -10.022 -10.021 -10.020 -10.019  -1.025  -1.020
 -0.999  -0.995  -0.972  -0.969  -0.949  -0.943  -0.926  -0.921
 -0.765  -0.762  -0.731  -0.723  -0.715  -0.706  -0.698  -0.656
 -0.651  -0.621  -0.596  -0.582  -0.547  -0.545  -0.539  -0.537
 -0.516  -0.510  -0.486  -0.472  -0.462  -0.455  -0.453  -0.452
 -0.439  -0.431  -0.430  -0.410  -0.408  -0.405  -0.401  -0.399
 -0.394  -0.388  -0.375  -0.366  -0.362  -0.355  -0.351  -0.344
 -0.342  -0.340  -0.337  -0.334  -0.331  -0.327  -0.324  -0.314
 -0.311  -0.308  -0.305  -0.301  -0.299  -0.279  -0.275  -0.274
 -0.273  -0.262  -0.258  -0.246  -0.241  -0.236  -0.234  -0.190
 -0.186  -0.166  -0.165  -0.162  -0.160  -0.147  -0.144  -0.143
 -0.138

          Ground-State Mulliken Net Atomic Charges

     Atom                 Charge (a.u.)
  ----------------------------------------
      1 O                    -0.216474
      2 C                     0.215621
      3 C                    -0.081380
      4 C                    -0.077923
      5 C                     0.215586
      6 O                    -0.173436
      7 C                    -0.049508
      8 C                    -0.048669
      9 O                    -0.170620
     10 C                     0.214460
     11 C                    -0.078027
     12 C                    -0.081044
     13 C                     0.215661
     14 O                    -0.214669
     15 O                    -0.176283
     16 O                    -0.177398
     17 O                    -0.206950
     18 C                    -0.128736
     19 C                     0.025391
     20 C                    -0.143657
     21 C                    -0.143911
     22 C                     0.024885
     23 O                    -0.188532
     24 H                     0.088076
     25 H                     0.084072
     26 H                     0.083725
     27 H                     0.078994
     28 H                     0.073965
     29 H                     0.078677
     30 H                     0.073614
     31 H                     0.090512
     32 O                    -0.204003
     33 C                    -0.128394
     34 C                     0.024876
     35 C                    -0.143935
     36 C                    -0.143762
     37 C                     0.025120
     38 O                    -0.188995
     39 H                     0.083756
     40 H                     0.087142
     41 H                     0.092550
     42 H                     0.089412
     43 H                     0.077960
     44 H                     0.073411
     45 H                     0.077839
     46 H                     0.073415
     47 H                     0.083571
     48 H                     0.085833
     49 H                     0.086640
     50 H                     0.085921
     51 H                     0.087478
     52 H                     0.091142
     53 H                     0.092873
     54 H                     0.098864
     55 H                     0.090435
     56 H                     0.094831
  ----------------------------------------
  Sum of atomic charges =    -0.000000

                    Cartesian Multipole Moments
 -----------------------------------------------------------------
    Charge (ESU x 10^10)
                 0.0000
    Dipole Moment (Debye)
         X       1.0920      Y      -2.8908      Z       1.3895
       Tot       3.3882
    Quadrupole Moments (Debye-Ang)
        XX    -144.2229     XY      11.3367     YY    -159.1653
        XZ      13.1994     YZ      -1.9236     ZZ    -161.6577

 Total job time:  69.48s(wall), 3305.08s(cpu)
        *  Thank you very much for using Q-Chem.  Have a nice day.  *
