 Q-Chem 5.0, Q-Chem, Inc., Pleasanton, CA (2017)
 Q-Chem 5.0.1 for Intel X86 EM64T Linux

User input:
--------------------------------------------------------------
$molecule
0  1
O -3.94934 -3.66094 2.70899
C -3.26408 -4.56952 2.26188
C -3.36658 -6.02376 2.66595
C -2.18121 -6.62309 3.44025
C -1.10406 -5.65595 3.87899
O -0.09987 -6.33438 4.50888
C 1.10348 -5.56941 4.63543
C 1.13086 -4.45642 3.59301
O 2.07416 -3.44533 3.98128
C 2.05846 -2.31479 3.23243
C 3.31358 -1.48928 3.38686
C 4.58244 -2.29375 3.70482
C 4.49288 -3.78852 3.47169
O 5.35905 -4.4782 2.95338
O -2.30116 -4.27816 1.34854
O 4.04307 -4.40315 4.61285
O 1.29987 -2.14768 2.28313
C 4.45305 -5.63841 5.09135
C 3.75348 -0.73565 2.11403
C 4.61723 0.463 2.50161
C 5.87734 -0.23633 2.96344
C 5.52062 -1.69094 2.63459
O 4.68551 -1.5933 1.50681
H 3.08868 -0.75169 4.18939
H 4.97437 -2.11955 4.73253
H 2.90883 -0.39754 1.47568
H 4.84345 1.01918 1.56347
H 4.16355 1.15959 3.23909
H 6.72343 0.1139 2.3312
H 6.12664 -0.10809 4.0391
H 6.45338 -2.28101 2.4989
O -1.51879 -4.62273 4.40202
C -2.03738 -3.01052 0.87451
C -4.50627 -6.27695 3.67811
C -4.93266 -7.7445 3.63374
C -3.75276 -8.40129 4.31654
C -2.92189 -7.16776 4.68028
O -3.8855 -6.17571 4.9348
H -3.5892 -6.58686 1.732
H -1.67649 -7.43405 2.86854
H -1.73813 -2.34387 1.7114
H -5.39288 -5.62586 3.51527
H -5.8255 -7.85415 4.2903
H -5.17242 -8.13103 2.61984
H -4.11602 -8.90103 5.24225
H -3.18347 -9.12478 3.69378
H -2.23478 -7.40508 5.52193
H -2.93508 -2.59772 0.36634
H -1.20447 -3.06174 0.14368
H 4.26119 -6.43209 4.33764
H 3.89833 -5.87348 6.02278
H 5.53853 -5.61374 5.32649
H 1.37078 -4.87752 2.59106
H 0.23127 -3.84779 3.45823
H 1.97497 -6.23326 4.51257
H 1.11207 -5.13335 5.6577
$end

$opt
CONSTRAINT
tors           1           2           3           4    -112.120
tors           3           4           5           6    -177.851
tors           4           5           6           7    +164.257
tors           5           6           7           8     -22.025
tors           6           7           8           9    +161.053
tors           7           8           9          10    -171.297
tors           8           9          10          11    -161.995
tors           9          10          11          12     +29.785
tors          11          12          13          14    +137.473
ENDCONSTRAINT
$end

$rem
JOBTYPE                   OPT
METHOD                    B3LYP
DFT_D                     d3_op
BASIS                     STO-3G
GEOM_OPT_MAX_CYCLES       100
GEOM_OPT_TOL_GRADIENT     300
GEOM_OPT_TOL_DISPLACEMENT 1200
GEOM_OPT_TOL_ENERGY       100
SYMMETRY                  False
THRESH                    12
SCF_CONVERGENCE           8
MAX_SUB_FILE_NUM          128
MEM_STATIC                400
MEM_TOTAL                 4000
$end
--------------------------------------------------------------

   16   -1510.0604899357      4.78E-09 Convergence criterion met
 Total energy in the final basis set = -1510.06048994
   14   -1510.1398415028      9.91E-09 Convergence criterion met
 Total energy in the final basis set = -1510.13984150
   15   -1510.1858678977      2.42E-09 Convergence criterion met
 Total energy in the final basis set = -1510.18586790
   15   -1510.2155507841      2.23E-09 Convergence criterion met
 Total energy in the final basis set = -1510.21555078
   15   -1510.2332521524      1.70E-09 Convergence criterion met
 Total energy in the final basis set = -1510.23325215
   14   -1510.2444905143      3.94E-09 Convergence criterion met
 Total energy in the final basis set = -1510.24449051
   13   -1510.2519125412      8.83E-09 Convergence criterion met
 Total energy in the final basis set = -1510.25191254
   13   -1510.2568764195      8.28E-09 Convergence criterion met
   12   -1510.2672005682      4.86E-09 Convergence criterion met
 Total energy in the final basis set = -1510.26720057
   12   -1510.2672380827      2.75E-09 Convergence criterion met
 Total energy in the final basis set = -1510.26723808
   12   -1510.2672876362      2.83E-09 Convergence criterion met
 Total energy in the final basis set = -1510.26728764
   11   -1510.2672879057      5.92E-09 Convergence criterion met
 Total energy in the final basis set = -1510.26728791
   10   -1510.2672915949      5.85E-09 Convergence criterion met
 Total energy in the final basis set = -1510.26729159
    9   -1510.2672935031      8.33E-09 Convergence criterion met
 Total energy in the final basis set = -1510.26729350

             Standard Nuclear Orientation (Angstroms)
    I     Atom           X                Y                Z
 ----------------------------------------------------------------
    1      O      -4.1287290372     2.4401014252     1.1906387214
    2      C      -3.9112859829     1.9751725441     0.0523419773
    3      C      -4.6575570759     0.7796839736    -0.6515507487
    4      C      -3.7777381130    -0.5173089288    -0.8672645366
    5      C      -2.3765245998    -0.4194388432    -0.1686651248
    6      O      -1.6607688245    -1.6119554492    -0.4715612262
    7      C      -0.1896819217    -1.5998728282    -0.2269891395
    8      C       0.5332318471    -0.2074219532    -0.1771452923
    9      O       1.8223110486    -0.4460835695     0.5208482188
   10      C       2.4632946991     0.8066514285     0.7938218592
   11      C       4.0019804385     0.6110354509     1.1058209887
   12      C       4.6476853143    -0.6287987054     0.3753596614
   13      C       3.7514794463    -1.9075094521     0.2216415753
   14      O       3.6368419955    -2.6418988546    -0.7830826873
   15      O      -3.0259922312     2.5594546493    -0.9168702021
   16      O       3.3373860574    -2.2951544373     1.5444921406
   17      O       1.8721888122     1.9063869345     0.7376235408
   18      C       2.6431338344    -3.5993601635     1.4927707364
   19      C       4.6850240541     1.7756355822     0.2687647181
   20      C       6.2595453915     1.7381053988     0.3901710812
   21      C       6.6296766630     0.5901069183    -0.6249517522
   22      C       5.1927578562     0.0377370996    -0.9595624846
   23      O       4.4072936104     1.2870853771    -1.1095667738
   24      H       4.1994939824     0.6305919479     2.1925441409
   25      H       5.5087713398    -0.9663563639     0.9828213726
   26      H       4.2131499058     2.7646766946     0.4281334456
   27      H       6.6942651880     2.7046275791     0.0906611808
   28      H       6.5837584095     1.5115083722     1.4188434500
   29      H       7.1054906082     0.9964184246    -1.5321768578
   30      H       7.2906996505    -0.1754037176    -0.1881954187
   31      H       5.1052858537    -0.5973150710    -1.8627073632
   32      O      -1.9949833458     0.5152432646     0.5766657875
   33      C      -2.2356996882     3.6401477702    -0.2879267239
   34      C      -5.8397153820     0.2032392786     0.2351589034
   35      C      -6.8236632963    -0.5852181234    -0.7132935262
   36      C      -5.9672109346    -1.8673942007    -1.0326663206
   37      C      -4.6837422964    -1.6098871386    -0.1476670351
   38      O      -5.2004999684    -0.8746867172     1.0277243591
   39      H      -5.0301132501     1.1465738260    -1.6250216031
   40      H      -3.6255043685    -0.7500417155    -1.9363706285
   41      H      -1.5223888552     3.2299611555     0.4566612003
   42      H      -6.3058291161     0.9494137188     0.9074424967
   43      H      -7.7496182426    -0.8448747495    -0.1758515506
   44      H      -7.0871881692    -0.0110954094    -1.6159907083
   45      H      -6.4782438335    -2.7879905554    -0.7091758551
   46      H      -5.7193359616    -1.9582559948    -2.1023248303
   47      H      -4.1342472939    -2.5188977752     0.1658943706
   48      H      -2.8857244170     4.3835088402     0.2167419684
   49      H      -1.6739773353     4.1287325815    -1.1053460941
   50      H       1.7314897314    -3.5579181123     0.8636537193
   51      H       2.3591906655    -3.8366535314     2.5346241688
   52      H       3.3022917475    -4.3994284992     1.0969386390
   53      H       0.7107426661     0.1896613899    -1.1989853392
   54      H      -0.1139538277     0.5043258877     0.3816783161
   55      H       0.2400271139    -2.2357563580    -1.0289024286
   56      H      -0.0030169714    -2.1055824494     0.7474082065
 ----------------------------------------------------------------

    9   -1510.2672931394      4.15E-09 Convergence criterion met
 Total energy in the final basis set = -1510.26729314
 Final energy is   -1510.26729313937
 **  OPTIMIZATION CONVERGED  **

                    Orbital Energies (a.u.)
 --------------------------------------------------------------

 Alpha MOs
 -- Occupied --
-18.948 -18.939 -18.924 -18.915 -18.897 -18.886 -18.885 -18.879
-18.867 -18.859 -10.117 -10.103 -10.098 -10.088 -10.083 -10.067
-10.062 -10.061 -10.059 -10.058 -10.056 -10.050 -10.041 -10.041
-10.035 -10.032 -10.022 -10.021 -10.020 -10.019  -1.024  -1.016
 -1.003  -0.995  -0.970  -0.970  -0.952  -0.939  -0.930  -0.922
 -0.765  -0.762  -0.732  -0.723  -0.713  -0.703  -0.699  -0.660
 -0.651  -0.621  -0.598  -0.586  -0.546  -0.545  -0.538  -0.536
 -0.514  -0.509  -0.487  -0.471  -0.459  -0.458  -0.454  -0.449
 -0.440  -0.431  -0.430  -0.411  -0.407  -0.406  -0.400  -0.398
 -0.395  -0.387  -0.381  -0.368  -0.365  -0.360  -0.350  -0.344
 -0.340  -0.339  -0.336  -0.331  -0.330  -0.324  -0.323  -0.316
 -0.311  -0.309  -0.307  -0.302  -0.300  -0.292  -0.276  -0.273
 -0.270  -0.255  -0.250  -0.245  -0.242  -0.235  -0.234  -0.189
 -0.182  -0.170  -0.162  -0.159  -0.157  -0.147  -0.145  -0.145
 -0.139

          Ground-State Mulliken Net Atomic Charges

     Atom                 Charge (a.u.)
  ----------------------------------------
      1 O                    -0.216695
      2 C                     0.216177
      3 C                    -0.081755
      4 C                    -0.076703
      5 C                     0.222495
      6 O                    -0.170979
      7 C                    -0.049532
      8 C                    -0.063966
      9 O                    -0.171220
     10 C                     0.216444
     11 C                    -0.074737
     12 C                    -0.081381
     13 C                     0.217459
     14 O                    -0.223331
     15 O                    -0.178966
     16 O                    -0.173001
     17 O                    -0.208641
     18 C                    -0.127963
     19 C                     0.022943
     20 C                    -0.146178
     21 C                    -0.140842
     22 C                     0.021137
     23 O                    -0.194248
     24 H                     0.088801
     25 H                     0.083507
     26 H                     0.090286
     27 H                     0.079013
     28 H                     0.073976
     29 H                     0.078116
     30 H                     0.073419
     31 H                     0.089289
     32 O                    -0.200844
     33 C                    -0.129533
     34 C                     0.024402
     35 C                    -0.143561
     36 C                    -0.144053
     37 C                     0.024978
     38 O                    -0.189571
     39 H                     0.083529
     40 H                     0.087177
     41 H                     0.092670
     42 H                     0.090420
     43 H                     0.078127
     44 H                     0.073431
     45 H                     0.078264
     46 H                     0.073564
     47 H                     0.085317
     48 H                     0.087778
     49 H                     0.086488
     50 H                     0.083416
     51 H                     0.088328
     52 H                     0.086207
     53 H                     0.085757
     54 H                     0.119874
     55 H                     0.094764
     56 H                     0.090145
  ----------------------------------------
  Sum of atomic charges =    -0.000000

                    Cartesian Multipole Moments
 -----------------------------------------------------------------
    Charge (ESU x 10^10)
                -0.0000
    Dipole Moment (Debye)
         X       1.2181      Y      -1.6808      Z      -1.1919
       Tot       2.3936
    Quadrupole Moments (Debye-Ang)
        XX    -142.6333     XY       5.2336     YY    -158.4766
        XZ      17.8994     YZ      -3.9881     ZZ    -163.6356

 Total job time:  78.06s(wall), 3714.42s(cpu)
        *  Thank you very much for using Q-Chem.  Have a nice day.  *
