 Q-Chem 5.0, Q-Chem, Inc., Pleasanton, CA (2017)
 Q-Chem 5.0.1 for Intel X86 EM64T Linux

User input:
--------------------------------------------------------------
$molecule
0  1
O -4.1287290372 2.4401014252 1.1906387214
C -3.9112859829 1.9751725441 0.0523419773
C -4.6575570759 0.7796839736 -0.6515507487
C -3.777738113 -0.5173089288 -0.8672645366
C -2.3765245998 -0.4194388432 -0.1686651248
O -1.6607688245 -1.6119554492 -0.4715612262
C -0.1896819217 -1.5998728282 -0.2269891395
C 0.5332318471 -0.2074219532 -0.1771452923
O 1.8223110486 -0.4460835695 0.5208482188
C 2.4632946991 0.8066514285 0.7938218592
C 4.0019804385 0.6110354509 1.1058209887
C 4.6476853143 -0.6287987054 0.3753596614
C 3.7514794463 -1.9075094521 0.2216415753
O 3.6368419955 -2.6418988546 -0.7830826873
O -3.0259922312 2.5594546493 -0.9168702021
O 3.3373860574 -2.2951544373 1.5444921406
O 1.8721888122 1.9063869345 0.7376235408
C 2.6431338344 -3.5993601635 1.4927707364
C 4.6850240541 1.7756355822 0.2687647181
C 6.2595453915 1.7381053988 0.3901710812
C 6.629676663 0.5901069183 -0.6249517522
C 5.1927578562 0.0377370996 -0.9595624846
O 4.4072936104 1.2870853771 -1.1095667738
H 4.1994939824 0.6305919479 2.1925441409
H 5.5087713398 -0.9663563639 0.9828213726
H 4.2131499058 2.7646766946 0.4281334456
H 6.694265188 2.7046275791 0.0906611808
H 6.5837584095 1.5115083722 1.41884345
H 7.1054906082 0.9964184246 -1.5321768578
H 7.2906996505 -0.1754037176 -0.1881954187
H 5.1052858537 -0.597315071 -1.8627073632
O -1.9949833458 0.5152432646 0.5766657875
C -2.2356996882 3.6401477702 -0.2879267239
C -5.839715382 0.2032392786 0.2351589034
C -6.8236632963 -0.5852181234 -0.7132935262
C -5.9672109346 -1.8673942007 -1.0326663206
C -4.6837422964 -1.6098871386 -0.1476670351
O -5.2004999684 -0.8746867172 1.0277243591
H -5.0301132501 1.146573826 -1.6250216031
H -3.6255043685 -0.7500417155 -1.9363706285
H -1.5223888552 3.2299611555 0.4566612003
H -6.3058291161 0.9494137188 0.9074424967
H -7.7496182426 -0.8448747495 -0.1758515506
H -7.0871881692 -0.0110954094 -1.6159907083
H -6.4782438335 -2.7879905554 -0.7091758551
H -5.7193359616 -1.9582559948 -2.1023248303
H -4.1342472939 -2.5188977752 0.1658943706
H -2.885724417 4.3835088402 0.2167419684
H -1.6739773353 4.1287325815 -1.1053460941
H 1.7314897314 -3.5579181123 0.8636537193
H 2.3591906655 -3.8366535314 2.5346241688
H 3.3022917475 -4.3994284992 1.096938639
H 0.7107426661 0.1896613899 -1.1989853392
H -0.1139538277 0.5043258877 0.3816783161
H 0.2400271139 -2.235756358 -1.0289024286
H -0.0030169714 -2.1055824494 0.7474082065
$end

$rem
JOBTYPE                   OPT
METHOD                    B3LYP
DFT_D                     d3_op
BASIS                     STO-3G
GEOM_OPT_MAX_CYCLES       100
GEOM_OPT_TOL_GRADIENT     300
GEOM_OPT_TOL_DISPLACEMENT 1200
GEOM_OPT_TOL_ENERGY       100
SYMMETRY                  False
THRESH                    12
SCF_CONVERGENCE           8
MAX_SUB_FILE_NUM          128
MEM_STATIC                400
MEM_TOTAL                 4000
$end
--------------------------------------------------------------

   16   -1510.2673923628      5.35E-09 Convergence criterion met
 Total energy in the final basis set = -1510.26739236
   13   -1510.2704068370      8.91E-09 Convergence criterion met
 Total energy in the final basis set = -1510.27040684
   13   -1510.2726202033      3.33E-09 Convergence criterion met
 Total energy in the final basis set = -1510.27262020
   13   -1510.2748277984      6.28E-09 Convergence criterion met
 Total energy in the final basis set = -1510.27482780
   14   -1510.2769668638      4.97E-09 Convergence criterion met
 Total energy in the final basis set = -1510.27696686
   13   -1510.2787975669      4.32E-09 Convergence criterion met
 Total energy in the final basis set = -1510.27879757
   13   -1510.2804438979      8.70E-09 Convergence criterion met
 Total energy in the final basis set = -1510.28044390
   13   -1510.2817293828      9.64E-09 Convergence criterion met
   12   -1510.2915097130      4.47E-09 Convergence criterion met
 Total energy in the final basis set = -1510.29150971
   12   -1510.2915511134      7.46E-09 Convergence criterion met
 Total energy in the final basis set = -1510.29155111
   12   -1510.2915412364      5.12E-09 Convergence criterion met
 Total energy in the final basis set = -1510.29154124
   11   -1510.2915463100      2.89E-09 Convergence criterion met
 Total energy in the final basis set = -1510.29154631
   10   -1510.2915482071      5.38E-09 Convergence criterion met
 Total energy in the final basis set = -1510.29154821
   10   -1510.2915428843      5.42E-09 Convergence criterion met
 Total energy in the final basis set = -1510.29154288

             Standard Nuclear Orientation (Angstroms)
    I     Atom           X                Y                Z
 ----------------------------------------------------------------
    1      O      -4.9717916744     1.5291830675     2.1476970064
    2      C      -4.5915219505     1.5917421954     0.9598802383
    3      C      -4.9557441071     0.6078010155    -0.2142774935
    4      C      -3.7394285673    -0.2480477183    -0.7549897553
    5      C      -2.4359843887    -0.0350491562     0.0831445255
    6      O      -1.3378729591    -0.6179366403    -0.6179014873
    7      C      -0.0840661457    -0.4584075778     0.1601888717
    8      C       0.4640259547     1.0175244238     0.0970793367
    9      O       1.8869532876     1.0239334898     0.5122049869
   10      C       2.7402891449     1.0803221333    -0.6441323081
   11      C       4.2276713452     0.9626232705    -0.1527185220
   12      C       4.6253172531    -0.4752580654     0.3816076936
   13      C       3.4814327347    -1.5264524835     0.2146678300
   14      O       2.5632734677    -1.5107438490    -0.6385812195
   15      O      -3.8482134064     2.6859780426     0.3988073962
   16      O       3.6620037087    -2.5658885814     1.1754168266
   17      O       2.3422862120     1.2869803778    -1.8100631017
   18      C       2.6097227491    -3.5983067599     1.0139723719
   19      C       5.2451077678     1.1361543650    -1.3547723039
   20      C       6.6666182636     1.4658072665    -0.7543340108
   21      C       7.0822472746     0.0614882373    -0.1767035102
   22      C       5.8392868127    -0.8216540852    -0.5924679822
   23      O       5.4043853560    -0.2408656761    -1.8801696283
   24      H       4.3911564142     1.7217212788     0.6333197901
   25      H       4.9433950016    -0.4576973321     1.4387069392
   26      H       4.8852492610     1.8121966539    -2.1544978624
   27      H       7.3544586226     1.7936719323    -1.5499504166
   28      H       6.6200423572     2.2482746464     0.0199773876
   29      H       7.9994985446    -0.3187971757    -0.6536681196
   30      H       7.2314980080     0.0766608917     0.9148114072
   31      H       6.0444592333    -1.9047508453    -0.6995396549
   32      O      -2.3441149955     0.5220933194     1.2012117864
   33      C      -3.4304856898     3.6073094305     1.4775613227
   34      C      -5.9434205761    -0.5353337375     0.2665071308
   35      C      -6.6283949186    -1.1617440813    -1.0104635141
   36      C      -5.4328867570    -1.9868359763    -1.6171465287
   37      C      -4.3015079336    -1.7230060800    -0.5457289721
   38      O      -5.0392361179    -1.6142014210     0.7317201976
   39      H      -5.3977767636     1.2045771147    -1.0322483204
   40      H      -3.5202138207    -0.0448519087    -1.8182121349
   41      H      -2.7663355454     3.0974579758     2.2053516264
   42      H      -6.6258748454    -0.2284888840     1.0827793130
   43      H      -7.4632914413    -1.8182980052    -0.7178470533
   44      H      -7.0077297475    -0.3909494752    -1.7001710231
   45      H      -5.6677384092    -3.0617488671    -1.6713043727
   46      H      -5.1402773718    -1.6388281659    -2.6208628790
   47      H      -3.5184254158    -2.5038658049    -0.4834827263
   48      H      -4.3017285441     4.0213807270     2.0254431527
   49      H      -2.8788859306     4.4291424221     0.9847952970
   50      H       1.6054443787    -3.1930005954     1.2534650928
   51      H       2.8616792422    -4.4041872911     1.7273034388
   52      H       2.5907869797    -4.0032369810    -0.0181940495
   53      H       0.3838186375     1.3983367535    -0.9441407721
   54      H      -0.0969561890     1.6731963536     0.7927160325
   55      H       0.6700852693    -1.1282420205    -0.3109216817
   56      H      -0.2402267083    -0.7574285756     1.2180614974
 ----------------------------------------------------------------

    9   -1510.2915434945      7.64E-09 Convergence criterion met
 Total energy in the final basis set = -1510.29154349
 Final energy is   -1510.29154349449
 **  OPTIMIZATION CONVERGED  **

                    Orbital Energies (a.u.)
 --------------------------------------------------------------

 Alpha MOs
 -- Occupied --
-18.950 -18.936 -18.925 -18.916 -18.891 -18.889 -18.884 -18.879
-18.874 -18.859 -10.112 -10.101 -10.098 -10.087 -10.074 -10.066
-10.060 -10.060 -10.059 -10.059 -10.053 -10.052 -10.045 -10.039
-10.036 -10.030 -10.024 -10.022 -10.018 -10.017  -1.025  -1.015
 -1.006  -0.995  -0.974  -0.967  -0.948  -0.939  -0.933  -0.922
 -0.767  -0.760  -0.728  -0.721  -0.712  -0.705  -0.691  -0.672
 -0.652  -0.617  -0.597  -0.579  -0.549  -0.542  -0.540  -0.534
 -0.516  -0.507  -0.482  -0.475  -0.461  -0.458  -0.451  -0.450
 -0.435  -0.433  -0.427  -0.421  -0.418  -0.404  -0.403  -0.400
 -0.388  -0.385  -0.374  -0.365  -0.362  -0.357  -0.351  -0.350
 -0.341  -0.340  -0.337  -0.331  -0.330  -0.329  -0.322  -0.314
 -0.309  -0.307  -0.303  -0.300  -0.296  -0.286  -0.275  -0.273
 -0.270  -0.262  -0.256  -0.243  -0.240  -0.238  -0.231  -0.189
 -0.188  -0.167  -0.164  -0.161  -0.155  -0.153  -0.148  -0.142
 -0.139

          Ground-State Mulliken Net Atomic Charges

     Atom                 Charge (a.u.)
  ----------------------------------------
      1 O                    -0.216213
      2 C                     0.216149
      3 C                    -0.081263
      4 C                    -0.078028
      5 C                     0.213570
      6 O                    -0.169607
      7 C                    -0.060655
      8 C                    -0.058392
      9 O                    -0.179600
     10 C                     0.215428
     11 C                    -0.079639
     12 C                    -0.078038
     13 C                     0.217317
     14 O                    -0.212821
     15 O                    -0.177852
     16 O                    -0.165356
     17 O                    -0.209718
     18 C                    -0.128800
     19 C                     0.025108
     20 C                    -0.143758
     21 C                    -0.143700
     22 C                     0.025912
     23 O                    -0.187292
     24 H                     0.085838
     25 H                     0.088861
     26 H                     0.091280
     27 H                     0.078986
     28 H                     0.073882
     29 H                     0.079033
     30 H                     0.074407
     31 H                     0.083396
     32 O                    -0.211076
     33 C                    -0.128725
     34 C                     0.024557
     35 C                    -0.143811
     36 C                    -0.143833
     37 C                     0.025244
     38 O                    -0.189689
     39 H                     0.083300
     40 H                     0.087873
     41 H                     0.090893
     42 H                     0.089585
     43 H                     0.077553
     44 H                     0.073090
     45 H                     0.077643
     46 H                     0.074004
     47 H                     0.083554
     48 H                     0.086189
     49 H                     0.085421
     50 H                     0.090106
     51 H                     0.094074
     52 H                     0.093117
     53 H                     0.099694
     54 H                     0.090720
     55 H                     0.107617
     56 H                     0.084464
  ----------------------------------------
  Sum of atomic charges =    -0.000000

                    Cartesian Multipole Moments
 -----------------------------------------------------------------
    Charge (ESU x 10^10)
                -0.0000
    Dipole Moment (Debye)
         X       2.2169      Y      -0.4210      Z      -0.0234
       Tot       2.2566
    Quadrupole Moments (Debye-Ang)
        XX    -144.6744     XY       0.1779     YY    -148.6163
        XZ      20.6925     YZ       0.4766     ZZ    -171.0184

 Total job time:  133.82s(wall), 6375.75s(cpu)
        *  Thank you very much for using Q-Chem.  Have a nice day.  *
