 Q-Chem 5.0, Q-Chem, Inc., Pleasanton, CA (2017)
 Q-Chem 5.0.1 for Intel X86 EM64T Linux

User input:
--------------------------------------------------------------
$molecule
0  1
O 3.1888490914 -2.2193660645 -0.735155886
C 4.2583874062 -1.6014150312 -0.9020602428
C 4.6975357615 -0.1296001956 -0.5728575819
C 3.6380122559 0.9949032671 -0.2231289788
C 2.1567734935 0.6016513883 0.1440352341
O 1.4679441634 1.8526986744 0.3495699311
C 0.0332215997 1.826140782 -0.0415207884
C -0.3286056121 0.8765892656 -1.2508137237
O -1.7790019479 0.8275529469 -1.5766530122
C -2.5933875183 0.419516924 -0.4785593358
C -4.0243663773 0.0784079974 -1.0230294762
C -4.9000625235 -0.6501315818 0.0718446774
C -4.0920904503 -1.2060921098 1.3011911956
O -4.3336475496 -1.0083775602 2.5114516571
O 5.4298299688 -2.2137435356 -1.4772118746
O -3.1565295064 -2.1758775496 0.8008384501
O -2.2381871859 0.3546685983 0.7221756937
C -2.3447025873 -2.7248203251 1.909873599
C -4.8504827423 1.4294694306 -1.1880165614
C -6.2430090012 1.1087875422 -1.8654344088
C -7.0506892615 0.5175151397 -0.6498761607
C -5.9310865272 0.4892121232 0.4607203441
O -5.1938659106 1.752320618 0.2156322134
H -3.9408308173 -0.4885178232 -1.9667161829
H -5.4257312795 -1.5099069533 -0.3831451393
H -4.2797016263 2.2569750547 -1.6528995884
H -6.705657053 2.0295703657 -2.2545884629
H -6.1382421022 0.3901438833 -2.6940271974
H -7.8712889682 1.1888441952 -0.3498749272
H -7.4663434146 -0.4815433523 -0.8560139353
H -6.2820300986 0.4405093244 1.5100664546
O 1.6205771186 -0.5175861281 0.2702903164
C 5.1544795983 -3.6344161102 -1.7874884729
C 5.6544424494 -0.0607488938 0.7070345294
C 6.6365615787 1.1565999069 0.4999992605
C 5.6472965714 2.3652335791 0.6953440802
C 4.3121208857 1.6143487267 1.0844193102
O 4.7728231431 0.4025335466 1.7995346099
H 5.2731086883 0.1997300566 -1.4568700508
H 3.5792292318 1.7418268417 -1.0351703777
H 4.3452769357 -3.7408391013 -2.5389507724
H 6.1373049867 -1.0214727561 0.9711275268
H 7.4223650144 1.1508051481 1.2727405078
H 7.1145856486 1.1469043702 -0.4923310611
H 5.9696956899 3.0276734196 1.5141749504
H 5.5269175233 2.9687715029 -0.2186813132
H 3.6102330706 2.197975083 1.7111975431
H 4.8653514898 -4.2047939358 -0.881097169
H 6.0949761344 -4.0454476784 -2.198375586
H -1.3049634785 -2.3485545617 1.8271567955
H -2.3425066828 -3.8289802029 1.8288622136
H -2.7794678292 -2.4105371545 2.8801550068
H 0.165269328 1.2126088158 -2.1844535745
H 0.0296685705 -0.1443622304 -0.9948719193
H -0.2185260896 2.8777509123 -0.2875317499
H -0.6020419624 1.491068115 0.8096894157
$end

$rem
JOBTYPE                   OPT
METHOD                    B3LYP
DFT_D                     d3_op
BASIS                     STO-3G
GEOM_OPT_MAX_CYCLES       100
GEOM_OPT_TOL_GRADIENT     300
GEOM_OPT_TOL_DISPLACEMENT 1200
GEOM_OPT_TOL_ENERGY       100
SYMMETRY                  False
THRESH                    12
SCF_CONVERGENCE           8
MAX_SUB_FILE_NUM          128
MEM_STATIC                400
MEM_TOTAL                 4000
$end
--------------------------------------------------------------

   16   -1510.2602403285      6.11E-09 Convergence criterion met
 Total energy in the final basis set = -1510.26024033
   14   -1510.2643912398      1.87E-09 Convergence criterion met
 Total energy in the final basis set = -1510.26439124
   14   -1510.2677961889      6.48E-09 Convergence criterion met
 Total energy in the final basis set = -1510.26779619
   13   -1510.2702620038      2.79E-09 Convergence criterion met
 Total energy in the final basis set = -1510.27026200
   13   -1510.2724385475      4.43E-09 Convergence criterion met
 Total energy in the final basis set = -1510.27243855
   13   -1510.2743119241      3.34E-09 Convergence criterion met
 Total energy in the final basis set = -1510.27431192
   13   -1510.2760333122      3.11E-09 Convergence criterion met
 Total energy in the final basis set = -1510.27603331
   13   -1510.2775744382      4.88E-09 Convergence criterion met
   12   -1510.2923780728      4.16E-09 Convergence criterion met
 Total energy in the final basis set = -1510.29237807
   13   -1510.2923984536      5.02E-09 Convergence criterion met
 Total energy in the final basis set = -1510.29239845
   12   -1510.2923916898      8.94E-09 Convergence criterion met
 Total energy in the final basis set = -1510.29239169
   12   -1510.2924135916      4.10E-09 Convergence criterion met
 Total energy in the final basis set = -1510.29241359
   12   -1510.2924245737      3.27E-09 Convergence criterion met
 Total energy in the final basis set = -1510.29242457
   11   -1510.2924281044      3.60E-09 Convergence criterion met
 Total energy in the final basis set = -1510.29242810

             Standard Nuclear Orientation (Angstroms)
    I     Atom           X                Y                Z
 ----------------------------------------------------------------
    1      O       1.7702062550    -0.6753056758     0.0499390270
    2      C       2.9500660774    -0.8243011390    -0.3516062900
    3      C       4.1344039722     0.1834741276    -0.1964002526
    4      C       3.6827092166     1.7025982242    -0.1721037331
    5      C       2.1486132145     1.9293568021    -0.4181770195
    6      O       1.8771910175     1.6382026120    -1.7997346975
    7      C       0.4147335786     1.6791881973    -2.0517901683
    8      C      -0.0952519497     0.1903002659    -2.1178947901
    9      O      -1.5669834581     0.0495949683    -2.1935513681
   10      C      -2.1718633625     0.3497373354    -0.9260297896
   11      C      -3.6863513360    -0.0410050332    -1.0172739007
   12      C      -4.0929471643    -1.1762808812     0.0161726662
   13      C      -2.9176806912    -1.6299766008     0.9554842508
   14      O      -2.9254165268    -1.6708061384     2.2044443626
   15      O       3.4363007724    -1.9927325866    -1.0083215738
   16      O      -1.8089044008    -2.0161249467     0.1348363616
   17      O      -1.5704022154     0.8494547477     0.0486225598
   18      C      -0.6376421709    -2.3749819617     0.9722858050
   19      C      -4.6461967830     1.1358796750    -0.5464164084
   20      C      -6.1074736868     0.8023598954    -1.0468791741
   21      C      -6.5204237583    -0.3365629541    -0.0410054437
   22      C      -5.2212643653    -0.4420184132     0.8499066971
   23      O      -4.7314709418     0.9546611430     0.9194159180
   24      H      -3.8995245004    -0.3510210160    -2.0549509320
   25      H      -4.4814299495    -2.0660390254    -0.5130866026
   26      H      -4.2823656140     2.1529589278    -0.7899221555
   27      H      -6.7590635935     1.6849984649    -0.9468081328
   28      H      -6.1209807875     0.4693814182    -2.0969789520
   29      H      -7.3858680036    -0.0397884622     0.5725096094
   30      H      -6.7557084710    -1.2865027017    -0.5473103791
   31      H      -5.3616682709    -0.8527522967     1.8686361447
   32      O       1.3070005135     2.3606308825     0.3972388224
   33      C       2.3667501586    -3.0119325104    -1.1334908265
   34      C       4.7763436487     0.0489064902     1.2566993583
   35      C       6.1526209225     0.8258266251     1.2734494245
   36      C       5.6596551604     2.3197568827     1.3371527926
   37      C       4.0954201134     2.1224653661     1.2992641805
   38      O       3.8849084477     0.8847299566     2.0880049906
   39      H       4.8730964157    -0.0212197359    -0.9907530527
   40      H       4.2412235848     2.2763618006    -0.9338676781
   41      H       1.4723553454    -2.6078687722    -1.6489254669
   42      H       4.8163536113    -0.9878998913     1.6441730137
   43      H       6.7359063251     0.5525460584     2.1671136255
   44      H       6.7589347447     0.6152725205     0.3776155333
   45      H       5.9648645205     2.8045888867     2.2779611044
   46      H       6.0237247202     2.9254810175     0.4920926462
   47      H       3.4885740770     2.9496413323     1.7155533293
   48      H       2.0601056575    -3.4000367333    -0.1411058424
   49      H       2.8005781912    -3.8339067857    -1.7319028203
   50      H       0.2291210241    -1.7509029046     0.6605880699
   51      H      -0.4046740587    -3.4471813088     0.8172147611
   52      H      -0.8808601652    -2.1989136721     2.0387578759
   53      H       0.2924317545    -0.3000800934    -3.0333063746
   54      H       0.3145980938    -0.3310089579    -1.2225210813
   55      H       0.2456708548     2.2144139055    -3.0077051503
   56      H      -0.0847610331     2.2045726322    -1.2097338540
 ----------------------------------------------------------------

   10   -1510.2924283254      6.87E-09 Convergence criterion met
 Total energy in the final basis set = -1510.29242833
 Final energy is   -1510.29242832541
 **  OPTIMIZATION CONVERGED  **

                    Orbital Energies (a.u.)
 --------------------------------------------------------------

 Alpha MOs
 -- Occupied --
-18.954 -18.922 -18.922 -18.922 -18.896 -18.891 -18.881 -18.875
-18.870 -18.863 -10.117 -10.095 -10.092 -10.089 -10.077 -10.066
-10.059 -10.056 -10.055 -10.054 -10.051 -10.046 -10.039 -10.038
-10.032 -10.029 -10.024 -10.022 -10.015 -10.014  -1.028  -1.006
 -1.003  -0.996  -0.973  -0.963  -0.953  -0.932  -0.928  -0.925
 -0.767  -0.757  -0.728  -0.718  -0.712  -0.702  -0.689  -0.675
 -0.648  -0.614  -0.596  -0.577  -0.548  -0.540  -0.539  -0.531
 -0.517  -0.502  -0.481  -0.471  -0.464  -0.458  -0.452  -0.444
 -0.436  -0.429  -0.424  -0.422  -0.420  -0.410  -0.405  -0.391
 -0.382  -0.376  -0.371  -0.368  -0.362  -0.354  -0.352  -0.350
 -0.345  -0.336  -0.334  -0.330  -0.326  -0.322  -0.319  -0.314
 -0.308  -0.305  -0.304  -0.298  -0.288  -0.283  -0.279  -0.278
 -0.266  -0.262  -0.251  -0.239  -0.237  -0.235  -0.227  -0.194
 -0.179  -0.172  -0.162  -0.155  -0.152  -0.151  -0.147  -0.140
 -0.136

          Ground-State Mulliken Net Atomic Charges

     Atom                 Charge (a.u.)
  ----------------------------------------
      1 O                    -0.210457
      2 C                     0.220962
      3 C                    -0.077625
      4 C                    -0.079295
      5 C                     0.213972
      6 O                    -0.181869
      7 C                    -0.060493
      8 C                    -0.060058
      9 O                    -0.174739
     10 C                     0.211490
     11 C                    -0.079704
     12 C                    -0.077786
     13 C                     0.214748
     14 O                    -0.209708
     15 O                    -0.163795
     16 O                    -0.176655
     17 O                    -0.208332
     18 C                    -0.148857
     19 C                     0.025494
     20 C                    -0.143812
     21 C                    -0.144327
     22 C                     0.024412
     23 O                    -0.185892
     24 H                     0.084265
     25 H                     0.083171
     26 H                     0.082866
     27 H                     0.077107
     28 H                     0.072409
     29 H                     0.077533
     30 H                     0.071983
     31 H                     0.090413
     32 O                    -0.199520
     33 C                    -0.129715
     34 C                     0.026051
     35 C                    -0.143615
     36 C                    -0.143870
     37 C                     0.025362
     38 O                    -0.185499
     39 H                     0.089038
     40 H                     0.085490
     41 H                     0.094178
     42 H                     0.082761
     43 H                     0.079294
     44 H                     0.074037
     45 H                     0.079399
     46 H                     0.073811
     47 H                     0.092848
     48 H                     0.090844
     49 H                     0.094931
     50 H                     0.105000
     51 H                     0.072047
     52 H                     0.099913
     53 H                     0.078883
     54 H                     0.101105
     55 H                     0.081001
     56 H                     0.108807
  ----------------------------------------
  Sum of atomic charges =     0.000000

                    Cartesian Multipole Moments
 -----------------------------------------------------------------
    Charge (ESU x 10^10)
                -0.0000
    Dipole Moment (Debye)
         X       2.4893      Y      -1.9382      Z      -3.7712
       Tot       4.9168
    Quadrupole Moments (Debye-Ang)
        XX    -134.7645     XY       3.6550     YY    -151.9116
        XZ       7.3040     YZ      -2.5788     ZZ    -166.4734

 Total job time:  147.01s(wall), 7010.48s(cpu)
        *  Thank you very much for using Q-Chem.  Have a nice day.  *
