 Q-Chem 5.0, Q-Chem, Inc., Pleasanton, CA (2017)
 Q-Chem 5.0.1 for Intel X86 EM64T Linux

User input:
--------------------------------------------------------------
$molecule
0  1
O -3.94934 -3.66094 2.70899
C -3.26408 -4.56952 2.26188
C -3.36658 -6.02376 2.66595
C -4.14974 -6.3427 3.95
C -4.89305 -5.19128 4.59017
O -5.49842 -5.6118 5.74
C -5.56834 -4.59407 6.74429
C -4.36084 -3.66829 6.63941
O -4.46641 -2.61443 7.60952
C -5.58686 -1.85499 7.52589
C -5.50045 -0.58702 8.34164
C -6.617 0.43262 8.0734
C -7.82382 -0.09155 7.32138
O -8.98785 0.03454 7.67311
O -2.43361 -4.3063 1.21899
O -7.63127 -0.18165 5.97092
O -6.40827 -2.05873 6.65777
C -8.58972 -0.48452 5.01941
C -5.66194 -0.81592 9.85437
C -4.98978 0.32529 10.61393
C -5.93208 1.46855 10.29503
C -7.03161 0.71514 9.53438
O -7.02383 -0.57186 10.10413
H -4.49967 -0.14273 8.13483
H -6.25855 1.34437 7.54595
H -5.26785 -1.79739 10.19776
H -5.07612 0.08393 11.69786
H -3.92228 0.50808 10.36505
H -6.3184 1.88055 11.25365
H -5.49909 2.28304 9.67473
H -7.99028 1.27423 9.60611
O -5.66009 -4.51047 3.92186
C -2.25097 -3.05551 0.66744
C -4.14221 -6.85989 1.63553
C -3.7608 -8.33399 1.76722
C -4.45941 -8.69229 3.06292
C -5.15615 -7.36598 3.38177
O -5.46534 -6.83983 2.11262
H -2.31758 -6.38535 2.76027
H -3.49692 -6.78606 4.73554
H -1.85429 -2.3544 1.43265
H -3.9917 -6.51346 0.58953
H -4.25425 -8.88598 0.93553
H -2.66767 -8.53292 1.74502
H -5.2207 -9.47458 2.84588
H -3.79359 -9.03046 3.88613
H -6.01997 -7.54081 4.05995
H -3.21255 -2.66956 0.26646
H -1.52056 -3.12779 -0.16427
H -8.26884 -1.38616 4.45786
H -8.68012 0.36367 4.31022
H -9.58706 -0.68964 5.46315
H -3.42266 -4.23804 6.8135
H -4.27475 -3.15307 5.65674
H -5.51276 -5.08652 7.7383
H -6.59971 -4.21291 6.69195
$end

$opt
CONSTRAINT
tors           1           2           3           4     -14.850
tors           3           4           5           6    -177.851
tors           4           5           6           7    +147.396
tors           5           6           7           8     -32.080
tors           6           7           8           9    +177.417
tors           7           8           9          10     -57.468
tors           8           9          10          11    -166.695
tors           9          10          11          12    +168.734
tors          11          12          13          14    +128.626
ENDCONSTRAINT
$end

$rem
JOBTYPE                   OPT
METHOD                    B3LYP
DFT_D                     d3_op
BASIS                     STO-3G
GEOM_OPT_MAX_CYCLES       100
GEOM_OPT_TOL_GRADIENT     300
GEOM_OPT_TOL_DISPLACEMENT 1200
GEOM_OPT_TOL_ENERGY       100
SYMMETRY                  False
THRESH                    12
SCF_CONVERGENCE           8
MAX_SUB_FILE_NUM          128
MEM_STATIC                400
MEM_TOTAL                 4000
$end
--------------------------------------------------------------

   16   -1510.0602756189      3.68E-09 Convergence criterion met
 Total energy in the final basis set = -1510.06027562
   14   -1510.1426814395      6.22E-09 Convergence criterion met
 Total energy in the final basis set = -1510.14268144
   14   -1510.1888090595      7.02E-09 Convergence criterion met
 Total energy in the final basis set = -1510.18880906
   14   -1510.2175464088      7.44E-09 Convergence criterion met
 Total energy in the final basis set = -1510.21754641
   14   -1510.2327760069      2.58E-09 Convergence criterion met
 Total energy in the final basis set = -1510.23277601
   14   -1510.2415977311      4.18E-09 Convergence criterion met
 Total energy in the final basis set = -1510.24159773
   13   -1510.2474781670      9.13E-09 Convergence criterion met
 Total energy in the final basis set = -1510.24747817
   13   -1510.2515284763      8.14E-09 Convergence criterion met
   11   -1510.2601552596      7.16E-09 Convergence criterion met
 Total energy in the final basis set = -1510.26015526
   11   -1510.2602063851      3.84E-09 Convergence criterion met
 Total energy in the final basis set = -1510.26020639
   11   -1510.2602304738      4.38E-09 Convergence criterion met
 Total energy in the final basis set = -1510.26023047
   10   -1510.2602441132      8.55E-09 Convergence criterion met
 Total energy in the final basis set = -1510.26024411
   10   -1510.2602522935      9.19E-09 Convergence criterion met
 Total energy in the final basis set = -1510.26025229
    9   -1510.2602549782      9.12E-09 Convergence criterion met
 Total energy in the final basis set = -1510.26025498

             Standard Nuclear Orientation (Angstroms)
    I     Atom           X                Y                Z
 ----------------------------------------------------------------
    1      O       3.1888490914    -2.2193660645    -0.7351558860
    2      C       4.2583874062    -1.6014150312    -0.9020602428
    3      C       4.6975357615    -0.1296001956    -0.5728575819
    4      C       3.6380122559     0.9949032671    -0.2231289788
    5      C       2.1567734935     0.6016513883     0.1440352341
    6      O       1.4679441634     1.8526986744     0.3495699311
    7      C       0.0332215997     1.8261407820    -0.0415207884
    8      C      -0.3286056121     0.8765892656    -1.2508137237
    9      O      -1.7790019479     0.8275529469    -1.5766530122
   10      C      -2.5933875183     0.4195169240    -0.4785593358
   11      C      -4.0243663773     0.0784079974    -1.0230294762
   12      C      -4.9000625235    -0.6501315818     0.0718446774
   13      C      -4.0920904503    -1.2060921098     1.3011911956
   14      O      -4.3336475496    -1.0083775602     2.5114516571
   15      O       5.4298299688    -2.2137435356    -1.4772118746
   16      O      -3.1565295064    -2.1758775496     0.8008384501
   17      O      -2.2381871859     0.3546685983     0.7221756937
   18      C      -2.3447025873    -2.7248203251     1.9098735990
   19      C      -4.8504827423     1.4294694306    -1.1880165614
   20      C      -6.2430090012     1.1087875422    -1.8654344088
   21      C      -7.0506892615     0.5175151397    -0.6498761607
   22      C      -5.9310865272     0.4892121232     0.4607203441
   23      O      -5.1938659106     1.7523206180     0.2156322134
   24      H      -3.9408308173    -0.4885178232    -1.9667161829
   25      H      -5.4257312795    -1.5099069533    -0.3831451393
   26      H      -4.2797016263     2.2569750547    -1.6528995884
   27      H      -6.7056570530     2.0295703657    -2.2545884629
   28      H      -6.1382421022     0.3901438833    -2.6940271974
   29      H      -7.8712889682     1.1888441952    -0.3498749272
   30      H      -7.4663434146    -0.4815433523    -0.8560139353
   31      H      -6.2820300986     0.4405093244     1.5100664546
   32      O       1.6205771186    -0.5175861281     0.2702903164
   33      C       5.1544795983    -3.6344161102    -1.7874884729
   34      C       5.6544424494    -0.0607488938     0.7070345294
   35      C       6.6365615787     1.1565999069     0.4999992605
   36      C       5.6472965714     2.3652335791     0.6953440802
   37      C       4.3121208857     1.6143487267     1.0844193102
   38      O       4.7728231431     0.4025335466     1.7995346099
   39      H       5.2731086883     0.1997300566    -1.4568700508
   40      H       3.5792292318     1.7418268417    -1.0351703777
   41      H       4.3452769357    -3.7408391013    -2.5389507724
   42      H       6.1373049867    -1.0214727561     0.9711275268
   43      H       7.4223650144     1.1508051481     1.2727405078
   44      H       7.1145856486     1.1469043702    -0.4923310611
   45      H       5.9696956899     3.0276734196     1.5141749504
   46      H       5.5269175233     2.9687715029    -0.2186813132
   47      H       3.6102330706     2.1979750830     1.7111975431
   48      H       4.8653514898    -4.2047939358    -0.8810971690
   49      H       6.0949761344    -4.0454476784    -2.1983755860
   50      H      -1.3049634785    -2.3485545617     1.8271567955
   51      H      -2.3425066828    -3.8289802029     1.8288622136
   52      H      -2.7794678292    -2.4105371545     2.8801550068
   53      H       0.1652693280     1.2126088158    -2.1844535745
   54      H       0.0296685705    -0.1443622304    -0.9948719193
   55      H      -0.2185260896     2.8777509123    -0.2875317499
   56      H      -0.6020419624     1.4910681150     0.8096894157
 ----------------------------------------------------------------

   10   -1510.2602557206      5.50E-09 Convergence criterion met
 Total energy in the final basis set = -1510.26025572
 Final energy is   -1510.26025572062
 **  OPTIMIZATION CONVERGED  **

                    Orbital Energies (a.u.)
 --------------------------------------------------------------

 Alpha MOs
 -- Occupied --
-18.943 -18.926 -18.919 -18.913 -18.891 -18.889 -18.888 -18.885
-18.879 -18.860 -10.109 -10.102 -10.097 -10.089 -10.070 -10.062
-10.062 -10.061 -10.061 -10.061 -10.055 -10.043 -10.041 -10.039
-10.038 -10.032 -10.022 -10.021 -10.020 -10.018  -1.019  -1.010
 -1.005  -0.994  -0.973  -0.969  -0.946  -0.937  -0.930  -0.921
 -0.764  -0.761  -0.727  -0.722  -0.714  -0.706  -0.693  -0.660
 -0.647  -0.621  -0.596  -0.582  -0.544  -0.544  -0.539  -0.536
 -0.517  -0.509  -0.480  -0.466  -0.459  -0.455  -0.453  -0.444
 -0.436  -0.433  -0.429  -0.410  -0.409  -0.405  -0.397  -0.392
 -0.387  -0.381  -0.374  -0.365  -0.362  -0.358  -0.351  -0.348
 -0.342  -0.337  -0.337  -0.331  -0.330  -0.322  -0.317  -0.313
 -0.311  -0.305  -0.304  -0.303  -0.300  -0.295  -0.281  -0.277
 -0.269  -0.260  -0.251  -0.237  -0.236  -0.235  -0.232  -0.192
 -0.175  -0.173  -0.166  -0.158  -0.151  -0.147  -0.145  -0.142
 -0.131

          Ground-State Mulliken Net Atomic Charges

     Atom                 Charge (a.u.)
  ----------------------------------------
      1 O                    -0.197692
      2 C                     0.206499
      3 C                    -0.081261
      4 C                    -0.078047
      5 C                     0.213284
      6 O                    -0.183716
      7 C                    -0.064016
      8 C                    -0.060363
      9 O                    -0.170135
     10 C                     0.221905
     11 C                    -0.076410
     12 C                    -0.080236
     13 C                     0.218290
     14 O                    -0.218452
     15 O                    -0.177072
     16 O                    -0.179374
     17 O                    -0.202029
     18 C                    -0.135757
     19 C                     0.024409
     20 C                    -0.144493
     21 C                    -0.142865
     22 C                     0.023863
     23 O                    -0.190782
     24 H                     0.088277
     25 H                     0.083863
     26 H                     0.082981
     27 H                     0.077856
     28 H                     0.073610
     29 H                     0.077986
     30 H                     0.073464
     31 H                     0.091795
     32 O                    -0.189467
     33 C                    -0.129636
     34 C                     0.026907
     35 C                    -0.142462
     36 C                    -0.144868
     37 C                     0.025664
     38 O                    -0.189100
     39 H                     0.085572
     40 H                     0.084221
     41 H                     0.087200
     42 H                     0.085465
     43 H                     0.078377
     44 H                     0.074632
     45 H                     0.079030
     46 H                     0.073684
     47 H                     0.089566
     48 H                     0.088681
     49 H                     0.088443
     50 H                     0.089111
     51 H                     0.082031
     52 H                     0.099820
     53 H                     0.085440
     54 H                     0.104622
     55 H                     0.084630
     56 H                     0.107056
  ----------------------------------------
  Sum of atomic charges =     0.000000

                    Cartesian Multipole Moments
 -----------------------------------------------------------------
    Charge (ESU x 10^10)
                 0.0000
    Dipole Moment (Debye)
         X       1.6898      Y       0.3601      Z      -4.0716
       Tot       4.4230
    Quadrupole Moments (Debye-Ang)
        XX    -139.0765     XY       4.3860     YY    -153.8763
        XZ       4.9459     YZ      -1.4291     ZZ    -163.1312

 Total job time:  66.84s(wall), 3175.64s(cpu)
        *  Thank you very much for using Q-Chem.  Have a nice day.  *
