 Q-Chem 5.0, Q-Chem, Inc., Pleasanton, CA (2017)
 Q-Chem 5.0.1 for Intel X86 EM64T Linux

User input:
--------------------------------------------------------------
$molecule
0  1
O -3.94934 -3.66094 2.70899
C -3.26408 -4.56952 2.26188
C -3.36658 -6.02376 2.66595
C -2.55844 -6.47003 3.89543
C -1.87872 -5.37628 4.68901
O -1.17369 -5.92304 5.72314
C -0.32888 -4.97916 6.38996
C 1.1311 -5.40344 6.26923
O 1.98175 -4.39919 6.84435
C 3.30548 -4.53742 6.58404
C 4.06617 -5.17191 7.72397
C 5.46001 -5.70156 7.35662
C 6.02557 -5.21433 6.03774
O 6.42426 -4.0807 5.81303
O -2.24765 -4.26614 1.41275
O 6.21427 -6.16881 5.08844
O 3.69352 -4.42578 5.43115
C 6.76151 -5.93139 3.84496
C 4.42404 -4.20393 8.86652
C 4.62619 -4.99584 10.15763
C 5.92609 -5.71604 9.84953
C 6.28088 -5.08032 8.49921
O 5.73669 -3.78296 8.58027
H 3.42837 -5.99476 8.12155
H 5.47172 -6.81466 7.3405
H 3.67033 -3.40013 9.01475
H 4.81538 -4.251 10.96384
H 3.78142 -5.65163 10.45963
H 6.67151 -5.4422 10.62866
H 5.84808 -6.82175 9.76557
H 7.3752 -5.14166 8.30847
O -1.89803 -4.18207 4.42019
C -1.96083 -2.99258 0.96814
C -4.79142 -6.36709 3.16061
C -5.04636 -7.86869 3.03254
C -4.17259 -8.39809 4.14875
C -3.67574 -7.08299 4.7573
O -4.73955 -6.18754 4.55431
H -3.17797 -6.63382 1.75382
H -1.76891 -7.20179 3.61265
H -1.71412 -2.33342 1.82782
H -5.58782 -5.80419 2.62532
H -6.11188 -8.04427 3.30522
H -4.85035 -8.30129 2.02795
H -4.81871 -8.94307 4.87252
H -3.33018 -9.04776 3.82637
H -3.36923 -7.2426 5.81435
H -2.82853 -2.57699 0.41245
H -1.08634 -3.03344 0.28692
H 6.79592 -6.88241 3.27502
H 7.79587 -5.53966 3.94995
H 6.13775 -5.20128 3.28611
H 1.30219 -6.39328 6.74612
H 1.34559 -5.4868 5.17939
H -0.6075 -4.94776 7.46456
H -0.38378 -3.92981 6.0265
$end

$opt
CONSTRAINT
tors           1           2           3           4     -86.317
tors           3           4           5           6    -178.365
tors           4           5           6           7    +170.440
tors           5           6           7           8    -118.363
tors           6           7           8           9    +175.333
tors           7           8           9          10    -168.381
tors           8           9          10          11     -99.644
tors           9          10          11          12    +163.996
tors          11          12          13          14     +71.500
ENDCONSTRAINT
$end

$rem
JOBTYPE                   OPT
METHOD                    B3LYP
DFT_D                     d3_op
BASIS                     STO-3G
GEOM_OPT_MAX_CYCLES       100
GEOM_OPT_TOL_GRADIENT     300
GEOM_OPT_TOL_DISPLACEMENT 1200
GEOM_OPT_TOL_ENERGY       100
SYMMETRY                  False
THRESH                    12
SCF_CONVERGENCE           8
MAX_SUB_FILE_NUM          128
MEM_STATIC                400
MEM_TOTAL                 4000
$end
--------------------------------------------------------------

   16   -1510.1289212279      2.68E-09 Convergence criterion met
 Total energy in the final basis set = -1510.12892123
   13   -1510.1993298870      7.99E-09 Convergence criterion met
 Total energy in the final basis set = -1510.19932989
   14   -1510.2368637266      4.57E-09 Convergence criterion met
 Total energy in the final basis set = -1510.23686373
   14   -1510.2529002721      6.84E-09 Convergence criterion met
 Total energy in the final basis set = -1510.25290027
   13   -1510.2574874545      7.38E-09 Convergence criterion met
 Total energy in the final basis set = -1510.25748745
    2   -1510.2574874546      9.95E-09 Convergence criterion met
 Total energy in the final basis set = -1510.25748745
   13   -1510.2587274232      2.94E-09 Convergence criterion met
 Total energy in the final basis set = -1510.25872742
   12   -1510.2593585635      7.16E-09 Convergence criterion met
   11   -1510.2603146425      7.69E-09 Convergence criterion met
 Total energy in the final basis set = -1510.26031464
   11   -1510.2603350603      4.23E-09 Convergence criterion met
 Total energy in the final basis set = -1510.26033506
   11   -1510.2603494401      3.28E-09 Convergence criterion met
 Total energy in the final basis set = -1510.26034944
   10   -1510.2603565381      8.55E-09 Convergence criterion met
 Total energy in the final basis set = -1510.26035654
    9   -1510.2603625872      6.36E-09 Convergence criterion met
 Total energy in the final basis set = -1510.26036259
    9   -1510.2603649290      8.07E-09 Convergence criterion met
 Total energy in the final basis set = -1510.26036493

             Standard Nuclear Orientation (Angstroms)
    I     Atom           X                Y                Z
 ----------------------------------------------------------------
    1      O      -5.6187068701     0.8511549053     1.9054828777
    2      C      -5.1103176868     1.2865328477     0.8510295845
    3      C      -5.0811020892     0.5854765542    -0.5590244454
    4      C      -3.8662445109    -0.4098872894    -0.7659512049
    5      C      -2.8259428621    -0.3855548675     0.4013504745
    6      O      -1.7665777514    -1.2935424105     0.0768914283
    7      C      -0.6416990703    -1.1436439399     1.0334338674
    8      C       0.6326320110    -0.6924159203     0.2389367070
    9      O       1.6959480869    -0.4444478599     1.2359991653
   10      C       2.7996860129     0.2399382160     0.5579936217
   11      C       3.9448799495    -0.7670718504     0.1902409190
   12      C       4.9950461162    -0.2491011515    -0.8742058644
   13      C       5.0001583022     1.3134230706    -1.0619100564
   14      O       5.4196081706     2.1789883098    -0.2658425761
   15      O      -4.5049685777     2.5798459288     0.7123590268
   16      O       4.4098066222     1.6053564465    -2.3366746503
   17      O       2.7670975751     1.4624593311     0.3126681961
   18      C       4.3180903806     3.0715488777    -2.5217028566
   19      C       4.8975289997    -1.1843291839     1.4017604060
   20      C       5.4800607017    -2.6102283423     1.0591370752
   21      C       6.4605631810    -2.2503228272    -0.1185949097
   22      C       6.3448661039    -0.6735858509    -0.1515741007
   23      O       6.0731856521    -0.3013381423     1.2580601510
   24      H       3.4368079795    -1.6703278578    -0.1943292032
   25      H       4.8515740088    -0.7316760833    -1.8565480274
   26      H       4.4447815302    -1.0809724161     2.4070116269
   27      H       6.0256199328    -3.0161782714     1.9261567386
   28      H       4.6968026409    -3.3270172608     0.7650671777
   29      H       7.4941018942    -2.5588101178     0.1043362058
   30      H       6.1567681226    -2.7035038186    -1.0759374229
   31      H       7.2440581225    -0.1434721130    -0.5203892662
   32      O      -2.8446047231     0.3330746939     1.4260986972
   33      C      -4.4338571284     3.2388790253     2.0354914699
   34      C      -6.3020243962    -0.4199926509    -0.6909198259
   35      C      -6.4503544597    -0.8534126034    -2.2029357404
   36      C      -5.2588952784    -1.8707250488    -2.3482274110
   37      C      -4.6269647515    -1.8033112616    -0.9021880302
   38      O      -5.8019317088    -1.6436019624    -0.0199354460
   39      H      -5.0894161194     1.3670644641    -1.3392162520
   40      H      -3.3170767322    -0.1800280582    -1.6975407375
   41      H      -3.8012497336     2.6578297714     2.7374171273
   42      H      -7.2325760922    -0.0707760979    -0.2035667218
   43      H      -7.4228904719    -1.3422491838    -2.3718752750
   44      H      -6.3628872523     0.0048035917    -2.8883180809
   45      H      -5.6215406673    -2.8895043421    -2.5590534876
   46      H      -4.5410800807    -1.5820668021    -3.1324534031
   47      H      -4.0246207408    -2.6835662267    -0.6044597038
   48      H      -5.4397374382     3.3628380242     2.4863875594
   49      H      -3.9800604534     4.2317833699     1.8610810226
   50      H       3.8199864003     3.2273969000    -3.4963586720
   51      H       5.3206708468     3.5460958628    -2.5386974261
   52      H       3.7190929183     3.5429468688    -1.7159390602
   53      H       0.9306862905    -1.4869304007    -0.4847240037
   54      H       0.3895195328     0.2270862186    -0.3414100814
   55      H      -0.4636927743    -2.1209590050     1.5284510686
   56      H      -0.9176518939    -0.3853568660     1.7978736198
 ----------------------------------------------------------------

    9   -1510.2603655215      7.22E-09 Convergence criterion met
 Total energy in the final basis set = -1510.26036552
 Final energy is   -1510.26036552148
 **  OPTIMIZATION CONVERGED  **

                    Orbital Energies (a.u.)
 --------------------------------------------------------------

 Alpha MOs
 -- Occupied --
-18.941 -18.927 -18.920 -18.916 -18.905 -18.893 -18.892 -18.889
-18.867 -18.859 -10.116 -10.110 -10.093 -10.088 -10.079 -10.074
-10.066 -10.063 -10.063 -10.058 -10.058 -10.052 -10.043 -10.043
-10.039 -10.034 -10.025 -10.023 -10.022 -10.020  -1.023  -1.016
 -1.002  -0.997  -0.974  -0.971  -0.949  -0.942  -0.928  -0.922
 -0.767  -0.764  -0.728  -0.725  -0.716  -0.708  -0.697  -0.659
 -0.654  -0.614  -0.600  -0.582  -0.551  -0.546  -0.542  -0.538
 -0.520  -0.511  -0.481  -0.471  -0.462  -0.458  -0.454  -0.453
 -0.440  -0.436  -0.433  -0.413  -0.409  -0.406  -0.403  -0.401
 -0.399  -0.387  -0.376  -0.367  -0.362  -0.356  -0.351  -0.350
 -0.345  -0.341  -0.335  -0.334  -0.332  -0.330  -0.326  -0.321
 -0.314  -0.311  -0.307  -0.303  -0.299  -0.283  -0.279  -0.276
 -0.274  -0.257  -0.251  -0.249  -0.244  -0.237  -0.235  -0.187
 -0.173  -0.168  -0.164  -0.163  -0.162  -0.150  -0.146  -0.143
 -0.139

          Ground-State Mulliken Net Atomic Charges

     Atom                 Charge (a.u.)
  ----------------------------------------
      1 O                    -0.214751
      2 C                     0.214114
      3 C                    -0.081120
      4 C                    -0.078048
      5 C                     0.215364
      6 O                    -0.175473
      7 C                    -0.053115
      8 C                    -0.046151
      9 O                    -0.198165
     10 C                     0.222741
     11 C                    -0.082032
     12 C                    -0.081202
     13 C                     0.211318
     14 O                    -0.207254
     15 O                    -0.174357
     16 O                    -0.174474
     17 O                    -0.173066
     18 C                    -0.129222
     19 C                     0.027109
     20 C                    -0.141911
     21 C                    -0.145414
     22 C                     0.026525
     23 O                    -0.182590
     24 H                     0.081350
     25 H                     0.084607
     26 H                     0.087977
     27 H                     0.079536
     28 H                     0.073551
     29 H                     0.079139
     30 H                     0.073449
     31 H                     0.085101
     32 O                    -0.204049
     33 C                    -0.128425
     34 C                     0.026116
     35 C                    -0.144776
     36 C                    -0.143194
     37 C                     0.025790
     38 O                    -0.186291
     39 H                     0.084295
     40 H                     0.086220
     41 H                     0.093110
     42 H                     0.086678
     43 H                     0.078310
     44 H                     0.073508
     45 H                     0.078318
     46 H                     0.073089
     47 H                     0.086170
     48 H                     0.086348
     49 H                     0.086601
     50 H                     0.087124
     51 H                     0.086886
     52 H                     0.093864
     53 H                     0.073716
     54 H                     0.081858
     55 H                     0.088014
     56 H                     0.107188
  ----------------------------------------
  Sum of atomic charges =    -0.000000

                    Cartesian Multipole Moments
 -----------------------------------------------------------------
    Charge (ESU x 10^10)
                -0.0000
    Dipole Moment (Debye)
         X       0.5854      Y      -2.0195      Z      -4.1691
       Tot       4.6693
    Quadrupole Moments (Debye-Ang)
        XX    -169.2305     XY     -16.7707     YY    -155.0990
        XZ       4.4777     YZ      -1.5086     ZZ    -159.3452

 Total job time:  52.00s(wall), 2467.62s(cpu)
        *  Thank you very much for using Q-Chem.  Have a nice day.  *
