 Q-Chem 5.0, Q-Chem, Inc., Pleasanton, CA (2017)
 Q-Chem 5.0.1 for Intel X86 EM64T Linux

User input:
--------------------------------------------------------------
$molecule
0  1
O -5.6187068701 0.8511549053 1.9054828777
C -5.1103176868 1.2865328477 0.8510295845
C -5.0811020892 0.5854765542 -0.5590244454
C -3.8662445109 -0.4098872894 -0.7659512049
C -2.8259428621 -0.3855548675 0.4013504745
O -1.7665777514 -1.2935424105 0.0768914283
C -0.6416990703 -1.1436439399 1.0334338674
C 0.632632011 -0.6924159203 0.238936707
O 1.6959480869 -0.4444478599 1.2359991653
C 2.7996860129 0.239938216 0.5579936217
C 3.9448799495 -0.7670718504 0.190240919
C 4.9950461162 -0.2491011515 -0.8742058644
C 5.0001583022 1.3134230706 -1.0619100564
O 5.4196081706 2.1789883098 -0.2658425761
O -4.5049685777 2.5798459288 0.7123590268
O 4.4098066222 1.6053564465 -2.3366746503
O 2.7670975751 1.4624593311 0.3126681961
C 4.3180903806 3.0715488777 -2.5217028566
C 4.8975289997 -1.1843291839 1.401760406
C 5.4800607017 -2.6102283423 1.0591370752
C 6.460563181 -2.2503228272 -0.1185949097
C 6.3448661039 -0.6735858509 -0.1515741007
O 6.0731856521 -0.3013381423 1.258060151
H 3.4368079795 -1.6703278578 -0.1943292032
H 4.8515740088 -0.7316760833 -1.8565480274
H 4.4447815302 -1.0809724161 2.4070116269
H 6.0256199328 -3.0161782714 1.9261567386
H 4.6968026409 -3.3270172608 0.7650671777
H 7.4941018942 -2.5588101178 0.1043362058
H 6.1567681226 -2.7035038186 -1.0759374229
H 7.2440581225 -0.143472113 -0.5203892662
O -2.8446047231 0.3330746939 1.4260986972
C -4.4338571284 3.2388790253 2.0354914699
C -6.3020243962 -0.4199926509 -0.6909198259
C -6.4503544597 -0.8534126034 -2.2029357404
C -5.2588952784 -1.8707250488 -2.348227411
C -4.6269647515 -1.8033112616 -0.9021880302
O -5.8019317088 -1.6436019624 -0.019935446
H -5.0894161194 1.3670644641 -1.339216252
H -3.3170767322 -0.1800280582 -1.6975407375
H -3.8012497336 2.6578297714 2.7374171273
H -7.2325760922 -0.0707760979 -0.2035667218
H -7.4228904719 -1.3422491838 -2.371875275
H -6.3628872523 0.0048035917 -2.8883180809
H -5.6215406673 -2.8895043421 -2.5590534876
H -4.5410800807 -1.5820668021 -3.1324534031
H -4.0246207408 -2.6835662267 -0.6044597038
H -5.4397374382 3.3628380242 2.4863875594
H -3.9800604534 4.2317833699 1.8610810226
H 3.8199864003 3.2273969 -3.496358672
H 5.3206708468 3.5460958628 -2.5386974261
H 3.7190929183 3.5429468688 -1.7159390602
H 0.9306862905 -1.4869304007 -0.4847240037
H 0.3895195328 0.2270862186 -0.3414100814
H -0.4636927743 -2.120959005 1.5284510686
H -0.9176518939 -0.385356866 1.7978736198
$end

$rem
JOBTYPE                   OPT
METHOD                    B3LYP
DFT_D                     d3_op
BASIS                     STO-3G
GEOM_OPT_MAX_CYCLES       100
GEOM_OPT_TOL_GRADIENT     300
GEOM_OPT_TOL_DISPLACEMENT 1200
GEOM_OPT_TOL_ENERGY       100
SYMMETRY                  False
THRESH                    12
SCF_CONVERGENCE           8
MAX_SUB_FILE_NUM          128
MEM_STATIC                400
MEM_TOTAL                 4000
$end
--------------------------------------------------------------

   16   -1510.2603296539      5.55E-09 Convergence criterion met
 Total energy in the final basis set = -1510.26032965
   13   -1510.2627216178      8.16E-09 Convergence criterion met
 Total energy in the final basis set = -1510.26272162
   13   -1510.2652354602      8.82E-09 Convergence criterion met
 Total energy in the final basis set = -1510.26523546
   14   -1510.2678123309      1.88E-09 Convergence criterion met
 Total energy in the final basis set = -1510.26781233
   14   -1510.2702588430      1.84E-09 Convergence criterion met
 Total energy in the final basis set = -1510.27025884
   13   -1510.2721152915      8.00E-09 Convergence criterion met
 Total energy in the final basis set = -1510.27211529
   14   -1510.2738488628      2.01E-09 Convergence criterion met
 Total energy in the final basis set = -1510.27384886
   13   -1510.2757621073      7.76E-09 Convergence criterion met
   12   -1510.3006778580      4.50E-09 Convergence criterion met
 Total energy in the final basis set = -1510.30067786
   12   -1510.3007227175      5.15E-09 Convergence criterion met
 Total energy in the final basis set = -1510.30072272
   12   -1510.3007606542      2.25E-09 Convergence criterion met
 Total energy in the final basis set = -1510.30076065
   11   -1510.3007743478      9.11E-09 Convergence criterion met
 Total energy in the final basis set = -1510.30077435
   10   -1510.3007925110      8.89E-09 Convergence criterion met
 Total energy in the final basis set = -1510.30079251
   11   -1510.3008035061      4.70E-09 Convergence criterion met
 Total energy in the final basis set = -1510.30080351

             Standard Nuclear Orientation (Angstroms)
    I     Atom           X                Y                Z
 ----------------------------------------------------------------
    1      O      -1.3427254937     0.6422201814     1.8784825029
    2      C      -1.8261492304     0.8984914265     0.7545998919
    3      C      -3.2153100297     0.4100631936     0.1940623324
    4      C      -3.1469926855    -0.5517719122    -1.0581797225
    5      C      -1.7106746800    -1.0826542737    -1.3766159023
    6      O      -1.7093895150    -1.5345655854    -2.7350801941
    7      C      -0.4787361219    -2.2931947847    -3.0616884294
    8      C       0.8292284310    -1.4188194571    -3.1832410243
    9      O       1.6874232309    -1.6499646731    -1.9989675262
   10      C       1.8893922319    -0.4296150733    -1.2764908167
   11      C       2.6499338303    -0.7745695075     0.0418099168
   12      C       3.6364783478     0.3624337978     0.5372610431
   13      C       3.5958450348     1.6560299685    -0.3559055235
   14      O       3.1331912700     2.7760425470    -0.0543032848
   15      O      -1.2577922349     1.7698912553    -0.2184472840
   16      O       4.2513174961     1.3548049694    -1.5952779964
   17      O       1.5054024053     0.6929693003    -1.6743455005
   18      C       4.1350390931     2.5075038361    -2.5160078943
   19      C       1.6430610158    -0.8666469199     1.2760033269
   20      C       2.3680324352    -1.6416481617     2.4401709758
   21      C       3.4075660751    -0.5608434184     2.9264698626
   22      C       3.0610214103     0.6538945044     1.9798656546
   23      O       1.5969563945     0.5212249970     1.7879604873
   24      H       3.1747257927    -1.7336491020    -0.1106085133
   25      H       4.6758913163    -0.0107479691     0.5689780778
   26      H       0.6238609301    -1.2053256684     0.9969136785
   27      H       1.6486747076    -1.8942042423     3.2353746520
   28      H       2.8488770704    -2.5685982365     2.0890068119
   29      H       3.2427218310    -0.2878236689     3.9807096511
   30      H       4.4514278620    -0.8918316048     2.8049576961
   31      H       3.3055435976     1.6599017830     2.3719658433
   32      O      -0.7389076652    -1.1839473414    -0.5970617127
   33      C      -0.0156727908     2.4015812320     0.2970525086
   34      C      -3.9977682664    -0.4938935413     1.2363346551
   35      C      -5.5304618958    -0.4489874221     0.8655890589
   36      C      -5.5414380940    -1.3115382970    -0.4513316561
   37      C      -4.0306017021    -1.7694356347    -0.5341597445
   38      O      -3.6083992788    -1.8798276692     0.8790239593
   39      H      -3.8023986753     1.3100866355    -0.0635849012
   40      H      -3.5690992379    -0.0934854841    -1.9697603631
   41      H       0.6283031644     1.6733046532     0.8534950403
   42      H      -3.7436099288    -0.2833896909     2.2933096498
   43      H      -6.1336536751    -0.9191748601     1.6586438897
   44      H      -5.8931931835     0.5789355125     0.7061929911
   45      H      -6.2044665705    -2.1865993409    -0.3604867470
   46      H      -5.8439157398    -0.7311107757    -1.3377149083
   47      H      -3.8574135598    -2.7221952914    -1.0719655915
   48      H      -0.2724366580     3.2494994876     0.9644087760
   49      H       0.5235512784     2.7837207711    -0.5879555673
   50      H       4.6880986961     2.2272437893    -3.4313321444
   51      H       4.5762697415     3.4274986317    -2.0811246923
   52      H       3.0739009206     2.7091892632    -2.7695572665
   53      H       1.4002803446    -1.7272364329    -4.0838551668
   54      H       0.5894273937    -0.3340600780    -3.2506104029
   55      H      -0.7009191909    -2.7695849019    -4.0375990145
   56      H      -0.2944803689    -3.0868114167    -2.3043330201
 ----------------------------------------------------------------

    9   -1510.3008038174      8.66E-09 Convergence criterion met
 Total energy in the final basis set = -1510.30080382
 Final energy is   -1510.30080381743
 **  OPTIMIZATION CONVERGED  **

                    Orbital Energies (a.u.)
 --------------------------------------------------------------

 Alpha MOs
 -- Occupied --
-18.939 -18.933 -18.925 -18.903 -18.897 -18.884 -18.883 -18.877
-18.868 -18.848 -10.106 -10.101 -10.093 -10.078 -10.077 -10.070
-10.059 -10.058 -10.057 -10.052 -10.051 -10.036 -10.036 -10.034
-10.025 -10.018 -10.018 -10.016 -10.015 -10.009  -1.020  -1.011
 -1.002  -0.983  -0.972  -0.966  -0.944  -0.937  -0.929  -0.910
 -0.762  -0.758  -0.726  -0.719  -0.711  -0.701  -0.694  -0.657
 -0.632  -0.618  -0.592  -0.576  -0.544  -0.539  -0.534  -0.531
 -0.511  -0.504  -0.481  -0.464  -0.459  -0.449  -0.449  -0.444
 -0.435  -0.428  -0.425  -0.412  -0.406  -0.400  -0.397  -0.390
 -0.378  -0.375  -0.374  -0.361  -0.353  -0.353  -0.349  -0.345
 -0.341  -0.334  -0.330  -0.328  -0.325  -0.321  -0.318  -0.307
 -0.305  -0.302  -0.297  -0.295  -0.294  -0.279  -0.272  -0.269
 -0.265  -0.257  -0.249  -0.246  -0.239  -0.230  -0.216  -0.189
 -0.172  -0.168  -0.160  -0.157  -0.153  -0.146  -0.141  -0.139
 -0.129

          Ground-State Mulliken Net Atomic Charges

     Atom                 Charge (a.u.)
  ----------------------------------------
      1 O                    -0.216167
      2 C                     0.209828
      3 C                    -0.081181
      4 C                    -0.077176
      5 C                     0.219272
      6 O                    -0.172328
      7 C                    -0.050480
      8 C                    -0.056990
      9 O                    -0.171600
     10 C                     0.221812
     11 C                    -0.079179
     12 C                    -0.080635
     13 C                     0.214363
     14 O                    -0.212031
     15 O                    -0.180760
     16 O                    -0.175484
     17 O                    -0.214524
     18 C                    -0.128871
     19 C                     0.023351
     20 C                    -0.142536
     21 C                    -0.143591
     22 C                     0.026846
     23 O                    -0.178529
     24 H                     0.087443
     25 H                     0.084920
     26 H                     0.111865
     27 H                     0.082576
     28 H                     0.073584
     29 H                     0.079722
     30 H                     0.072744
     31 H                     0.090360
     32 O                    -0.213677
     33 C                    -0.151160
     34 C                     0.023740
     35 C                    -0.143384
     36 C                    -0.144144
     37 C                     0.024845
     38 O                    -0.190844
     39 H                     0.082272
     40 H                     0.087697
     41 H                     0.119358
     42 H                     0.090632
     43 H                     0.077110
     44 H                     0.073426
     45 H                     0.077160
     46 H                     0.073548
     47 H                     0.080324
     48 H                     0.068621
     49 H                     0.085356
     50 H                     0.087091
     51 H                     0.087860
     52 H                     0.092456
     53 H                     0.085211
     54 H                     0.105622
     55 H                     0.090280
     56 H                     0.093976
  ----------------------------------------
  Sum of atomic charges =     0.000000

                    Cartesian Multipole Moments
 -----------------------------------------------------------------
    Charge (ESU x 10^10)
                -0.0000
    Dipole Moment (Debye)
         X       0.4341      Y      -1.7599      Z      -2.4338
       Tot       3.0346
    Quadrupole Moments (Debye-Ang)
        XX    -140.9618     XY      -2.2672     YY    -160.0811
        XZ       3.5456     YZ       2.3216     ZZ    -152.8877

 Total job time:  201.75s(wall), 9609.36s(cpu)
        *  Thank you very much for using Q-Chem.  Have a nice day.  *
