 Q-Chem 5.0, Q-Chem, Inc., Pleasanton, CA (2017)
 Q-Chem 5.0.1 for Intel X86 EM64T Linux

User input:
--------------------------------------------------------------
$molecule
0  1
O -3.94934 -3.66094 2.70899
C -3.26408 -4.56952 2.26188
C -3.36658 -6.02376 2.66595
C -2.18121 -6.62309 3.44025
C -1.10406 -5.65595 3.87899
O 0.06776 -6.32751 4.08217
C 1.2033 -5.46146 4.18093
C 0.8044 -4.14463 4.83892
O 1.9035 -3.62799 5.6057
C 1.60102 -2.60354 6.44125
C 2.76544 -1.67037 6.67359
C 2.3778 -0.2306 7.04112
C 0.93851 -0.02212 7.46735
O 0.04383 -0.84969 7.37117
O -2.36819 -4.29064 1.27628
O 0.62948 1.21716 7.93331
O 0.91003 -2.94408 7.39521
C -0.6289 1.60126 8.3468
C 3.64724 -2.05547 7.8756
C 5.04224 -1.4585 7.70049
C 4.74834 0.01275 7.91478
C 3.26338 -0.05427 8.29196
O 3.13171 -1.2967 8.941
H 3.38142 -1.67898 5.74468
H 2.60029 0.50599 6.23803
H 3.71105 -3.15366 8.03834
H 5.66085 -1.8251 8.55099
H 5.55194 -1.70591 6.74452
H 5.35827 0.3695 8.77431
H 4.91506 0.66545 7.03057
H 2.9822 0.83781 8.89365
O -1.24656 -4.47117 3.64508
C -2.14754 -3.03079 0.7603
C -4.49058 -6.25799 3.7023
C -4.92633 -7.72371 3.68719
C -3.74068 -8.37747 4.36291
C -2.89695 -7.14416 4.69499
O -3.84872 -6.14076 4.94813
H -3.61359 -6.59338 1.7421
H -1.69386 -7.43471 2.85287
H -1.79559 -2.34581 1.56119
H -5.37778 -5.60617 3.54526
H -5.80971 -7.8177 4.35879
H -5.18375 -8.12428 2.68314
H -4.09262 -8.86079 5.30157
H -3.18521 -9.11381 3.7426
H -2.19124 -7.37022 5.52515
H -3.08135 -2.63297 0.30866
H -1.36749 -3.09142 -0.02598
H -0.59587 2.6596 8.67739
H -0.96051 0.97018 9.19894
H -1.35191 1.51068 7.50809
H 0.53679 -3.3402 4.11543
H 0.02254 -4.35685 5.60972
H 1.73658 -5.3244 3.21641
H 1.89636 -5.98426 4.87465
$end

$opt
CONSTRAINT
tors           1           2           3           4    -112.120
tors           3           4           5           6    -157.290
tors           4           5           6           7    +165.737
tors           5           6           7           8     +33.424
tors           6           7           8           9    +147.463
tors           7           8           9          10    -167.870
tors           8           9          10          11    -150.953
tors           9          10          11          12    +153.554
tors          11          12          13          14     -10.244
ENDCONSTRAINT
$end

$rem
JOBTYPE                   OPT
METHOD                    B3LYP
DFT_D                     d3_op
BASIS                     STO-3G
GEOM_OPT_MAX_CYCLES       100
GEOM_OPT_TOL_GRADIENT     300
GEOM_OPT_TOL_DISPLACEMENT 1200
GEOM_OPT_TOL_ENERGY       100
SYMMETRY                  False
THRESH                    12
SCF_CONVERGENCE           8
MAX_SUB_FILE_NUM          128
MEM_STATIC                400
MEM_TOTAL                 4000
$end
--------------------------------------------------------------

   15   -1510.0803195543      9.86E-09 Convergence criterion met
 Total energy in the final basis set = -1510.08031955
   14   -1510.1606911446      7.16E-09 Convergence criterion met
 Total energy in the final basis set = -1510.16069114
   14   -1510.2070363987      7.69E-09 Convergence criterion met
 Total energy in the final basis set = -1510.20703640
   14   -1510.2339553058      2.74E-09 Convergence criterion met
 Total energy in the final basis set = -1510.23395531
   14   -1510.2466797263      3.98E-09 Convergence criterion met
 Total energy in the final basis set = -1510.24667973
   13   -1510.2535414302      8.59E-09 Convergence criterion met
 Total energy in the final basis set = -1510.25354143
   13   -1510.2574935564      7.80E-09 Convergence criterion met
 Total energy in the final basis set = -1510.25749356
   13   -1510.2597882450      6.11E-09 Convergence criterion met
   11   -1510.2646699916      6.41E-09 Convergence criterion met
 Total energy in the final basis set = -1510.26466999
    9   -1510.2646834467      8.53E-09 Convergence criterion met
 Total energy in the final basis set = -1510.26468345
    9   -1510.2646987385      8.74E-09 Convergence criterion met
 Total energy in the final basis set = -1510.26469874
    9   -1510.2647080900      5.15E-09 Convergence criterion met
 Total energy in the final basis set = -1510.26470809
    9   -1510.2647146841      7.53E-09 Convergence criterion met
 Total energy in the final basis set = -1510.26471468
    9   -1510.2647180672      6.14E-09 Convergence criterion met
 Total energy in the final basis set = -1510.26471807

             Standard Nuclear Orientation (Angstroms)
    I     Atom           X                Y                Z
 ----------------------------------------------------------------
    1      O       4.0841592571    -2.5751583870     0.0111602102
    2      C       4.3107223680    -1.5375320135    -0.6455828624
    3      C       5.1662968295    -0.2946379123    -0.1966118636
    4      C       4.3325934495     1.0319947489     0.0325112549
    5      C       2.7967853292     0.8228860463    -0.2031083725
    6      O       2.2240128166     2.0962958897    -0.5002934908
    7      C       0.8519694154     2.0585361463    -1.0740838837
    8      C      -0.1359864441     0.9208446252    -0.6131448323
    9      O      -1.4893394110     1.5387038286    -0.6546572250
   10      C      -2.4342309989     0.6781440126     0.0167014038
   11      C      -3.8498855543     0.8974386005    -0.6358689939
   12      C      -4.8280759512    -0.3378196246    -0.5288546988
   13      C      -4.1604874175    -1.7486099825    -0.3689407020
   14      O      -2.9584315102    -2.0665073694    -0.4842765878
   15      O       3.9370140192    -1.3462588982    -2.0198041715
   16      O      -5.2051693145    -2.6813602068    -0.0592824765
   17      O      -2.1481202405    -0.0438457635     0.9935515993
   18      C      -4.6365078255    -4.0380298421     0.1111567083
   19      C      -4.6316524176     1.9270037302     0.2979685120
   20      C      -6.0233212185     2.3074717078    -0.3520038271
   21      C      -6.8942060851     1.0480552507     0.0168819052
   22      C      -5.7954532897     0.1146153995     0.6546020697
   23      O      -4.9886014813     1.0665709585     1.4510234589
   24      H      -3.7259870102     1.2584721106    -1.6710389394
   25      H      -5.4206252258    -0.3972256063    -1.4618575384
   26      H      -4.0208898998     2.7881730572     0.6321857578
   27      H      -6.4249811427     3.2286575554     0.0987896494
   28      H      -5.9371313473     2.4572973916    -1.4404245991
   29      H      -7.6625696112     1.2987053825     0.7659742073
   30      H      -7.3852217825     0.5916618502    -0.8574999183
   31      H      -6.1696915963    -0.7153757283     1.2842382057
   32      O       2.1958180397    -0.2741554083    -0.1946369753
   33      C       3.0721945550    -2.4631022184    -2.4598193232
   34      C       5.7739291149    -0.5243821854     1.2487337907
   35      C       6.9456379069     0.5102188160     1.4673945844
   36      C       6.1361978852     1.8430912005     1.6812150635
   37      C       4.6499312472     1.3200797876     1.5669826655
   38      O       4.7061326948    -0.0358875342     2.1540117347
   39      H       5.9532333060    -0.1281178665    -0.9541445993
   40      H       4.6766612905     1.8587680800    -0.6132784330
   41      H       2.1162600837    -2.4751429871    -1.8964467232
   42      H       6.0111665239    -1.5823748547     1.4728032997
   43      H       7.5333222011     0.2477811400     2.3614865104
   44      H       7.6234024304     0.5593203295     0.6004029231
   45      H       6.3164398036     2.2700557551     2.6805302964
   46      H       6.3654368771     2.6088495671     0.9230351566
   47      H       3.8904748993     1.9400913470     2.0821370824
   48      H       3.5704420608    -3.4453949323    -2.3290221346
   49      H       2.8674643093    -2.2907747845    -3.5326133414
   50      H      -5.4882172796    -4.6965972349     0.3624610385
   51      H      -3.8892152750    -4.0674017180     0.9303759058
   52      H      -4.1513414262    -4.3986051584    -0.8189697810
   53      H      -0.0899510831     0.0427064730    -1.2907044413
   54      H       0.0884958218     0.5777498609     0.4187470884
   55      H       0.9459544455     2.0335443369    -2.1824881592
   56      H       0.4016037938     3.0338742534    -0.7932358447
 ----------------------------------------------------------------

    9   -1510.2647190440      3.51E-09 Convergence criterion met
 Total energy in the final basis set = -1510.26471904
 Final energy is   -1510.26471904403
 **  OPTIMIZATION CONVERGED  **

                    Orbital Energies (a.u.)
 --------------------------------------------------------------

 Alpha MOs
 -- Occupied --
-18.940 -18.930 -18.917 -18.913 -18.887 -18.885 -18.884 -18.877
-18.874 -18.860 -10.107 -10.097 -10.094 -10.088 -10.077 -10.066
-10.061 -10.060 -10.059 -10.059 -10.054 -10.053 -10.037 -10.037
-10.035 -10.031 -10.021 -10.019 -10.019 -10.017  -1.016  -1.009
 -1.000  -0.996  -0.970  -0.967  -0.944  -0.935  -0.928  -0.923
 -0.762  -0.760  -0.726  -0.720  -0.712  -0.705  -0.694  -0.659
 -0.653  -0.617  -0.595  -0.580  -0.544  -0.543  -0.538  -0.535
 -0.514  -0.508  -0.473  -0.466  -0.458  -0.453  -0.450  -0.448
 -0.437  -0.433  -0.428  -0.409  -0.407  -0.406  -0.401  -0.395
 -0.394  -0.377  -0.373  -0.364  -0.358  -0.356  -0.351  -0.345
 -0.341  -0.340  -0.332  -0.330  -0.329  -0.323  -0.316  -0.313
 -0.310  -0.303  -0.301  -0.299  -0.295  -0.292  -0.276  -0.274
 -0.271  -0.254  -0.251  -0.243  -0.241  -0.232  -0.231  -0.180
 -0.176  -0.165  -0.163  -0.156  -0.155  -0.143  -0.142  -0.142
 -0.139

          Ground-State Mulliken Net Atomic Charges

     Atom                 Charge (a.u.)
  ----------------------------------------
      1 O                    -0.213353
      2 C                     0.215789
      3 C                    -0.080787
      4 C                    -0.078140
      5 C                     0.216062
      6 O                    -0.171323
      7 C                    -0.049502
      8 C                    -0.050115
      9 O                    -0.187799
     10 C                     0.214792
     11 C                    -0.079031
     12 C                    -0.079824
     13 C                     0.210988
     14 O                    -0.208416
     15 O                    -0.178806
     16 O                    -0.173813
     17 O                    -0.194550
     18 C                    -0.128588
     19 C                     0.025045
     20 C                    -0.145342
     21 C                    -0.141791
     22 C                     0.026074
     23 O                    -0.187938
     24 H                     0.084922
     25 H                     0.083248
     26 H                     0.082962
     27 H                     0.078172
     28 H                     0.073202
     29 H                     0.078155
     30 H                     0.073693
     31 H                     0.090423
     32 O                    -0.205137
     33 C                    -0.129227
     34 C                     0.024973
     35 C                    -0.144173
     36 C                    -0.143725
     37 C                     0.025484
     38 O                    -0.187336
     39 H                     0.083103
     40 H                     0.086414
     41 H                     0.092232
     42 H                     0.090251
     43 H                     0.077949
     44 H                     0.072808
     45 H                     0.078137
     46 H                     0.073316
     47 H                     0.083477
     48 H                     0.087414
     49 H                     0.084832
     50 H                     0.089491
     51 H                     0.092442
     52 H                     0.087499
     53 H                     0.091349
     54 H                     0.103642
     55 H                     0.084471
     56 H                     0.095899
  ----------------------------------------
  Sum of atomic charges =    -0.000000

                    Cartesian Multipole Moments
 -----------------------------------------------------------------
    Charge (ESU x 10^10)
                 0.0000
    Dipole Moment (Debye)
         X      -0.7869      Y       2.0001      Z      -3.4358
       Tot       4.0527
    Quadrupole Moments (Debye-Ang)
        XX    -134.1166     XY       8.7545     YY    -153.5369
        XZ       3.9210     YZ       2.9566     ZZ    -161.0330

 Total job time:  64.61s(wall), 3067.40s(cpu)
        *  Thank you very much for using Q-Chem.  Have a nice day.  *
