 Q-Chem 5.0, Q-Chem, Inc., Pleasanton, CA (2017)
 Q-Chem 5.0.1 for Intel X86 EM64T Linux

User input:
--------------------------------------------------------------
$molecule
0  1
O 4.0841592571 -2.575158387 0.0111602102
C 4.310722368 -1.5375320135 -0.6455828624
C 5.1662968295 -0.2946379123 -0.1966118636
C 4.3325934495 1.0319947489 0.0325112549
C 2.7967853292 0.8228860463 -0.2031083725
O 2.2240128166 2.0962958897 -0.5002934908
C 0.8519694154 2.0585361463 -1.0740838837
C -0.1359864441 0.9208446252 -0.6131448323
O -1.489339411 1.5387038286 -0.654657225
C -2.4342309989 0.6781440126 0.0167014038
C -3.8498855543 0.8974386005 -0.6358689939
C -4.8280759512 -0.3378196246 -0.5288546988
C -4.1604874175 -1.7486099825 -0.368940702
O -2.9584315102 -2.0665073694 -0.4842765878
O 3.9370140192 -1.3462588982 -2.0198041715
O -5.2051693145 -2.6813602068 -0.0592824765
O -2.1481202405 -0.0438457635 0.9935515993
C -4.6365078255 -4.0380298421 0.1111567083
C -4.6316524176 1.9270037302 0.297968512
C -6.0233212185 2.3074717078 -0.3520038271
C -6.8942060851 1.0480552507 0.0168819052
C -5.7954532897 0.1146153995 0.6546020697
O -4.9886014813 1.0665709585 1.4510234589
H -3.7259870102 1.2584721106 -1.6710389394
H -5.4206252258 -0.3972256063 -1.4618575384
H -4.0208898998 2.7881730572 0.6321857578
H -6.4249811427 3.2286575554 0.0987896494
H -5.9371313473 2.4572973916 -1.4404245991
H -7.6625696112 1.2987053825 0.7659742073
H -7.3852217825 0.5916618502 -0.8574999183
H -6.1696915963 -0.7153757283 1.2842382057
O 2.1958180397 -0.2741554083 -0.1946369753
C 3.072194555 -2.4631022184 -2.4598193232
C 5.7739291149 -0.5243821854 1.2487337907
C 6.9456379069 0.510218816 1.4673945844
C 6.1361978852 1.8430912005 1.6812150635
C 4.6499312472 1.3200797876 1.5669826655
O 4.7061326948 -0.0358875342 2.1540117347
H 5.953233306 -0.1281178665 -0.9541445993
H 4.6766612905 1.85876808 -0.613278433
H 2.1162600837 -2.4751429871 -1.8964467232
H 6.0111665239 -1.5823748547 1.4728032997
H 7.5333222011 0.24778114 2.3614865104
H 7.6234024304 0.5593203295 0.6004029231
H 6.3164398036 2.2700557551 2.6805302964
H 6.3654368771 2.6088495671 0.9230351566
H 3.8904748993 1.940091347 2.0821370824
H 3.5704420608 -3.4453949323 -2.3290221346
H 2.8674643093 -2.2907747845 -3.5326133414
H -5.4882172796 -4.6965972349 0.3624610385
H -3.889215275 -4.067401718 0.9303759058
H -4.1513414262 -4.3986051584 -0.818969781
H -0.0899510831 0.042706473 -1.2907044413
H 0.0884958218 0.5777498609 0.4187470884
H 0.9459544455 2.0335443369 -2.1824881592
H 0.4016037938 3.0338742534 -0.7932358447
$end

$rem
JOBTYPE                   OPT
METHOD                    B3LYP
DFT_D                     d3_op
BASIS                     STO-3G
GEOM_OPT_MAX_CYCLES       100
GEOM_OPT_TOL_GRADIENT     300
GEOM_OPT_TOL_DISPLACEMENT 1200
GEOM_OPT_TOL_ENERGY       100
SYMMETRY                  False
THRESH                    12
SCF_CONVERGENCE           8
MAX_SUB_FILE_NUM          128
MEM_STATIC                400
MEM_TOTAL                 4000
$end
--------------------------------------------------------------

   16   -1510.2644275262      6.04E-09 Convergence criterion met
 Total energy in the final basis set = -1510.26442753
   14   -1510.2693219793      1.92E-09 Convergence criterion met
 Total energy in the final basis set = -1510.26932198
   14   -1510.2734382879      1.67E-09 Convergence criterion met
 Total energy in the final basis set = -1510.27343829
   13   -1510.2764855727      7.26E-09 Convergence criterion met
 Total energy in the final basis set = -1510.27648557
   14   -1510.2786977398      1.72E-09 Convergence criterion met
 Total energy in the final basis set = -1510.27869774
   13   -1510.2802678576      5.74E-09 Convergence criterion met
 Total energy in the final basis set = -1510.28026786
   13   -1510.2813435407      6.52E-09 Convergence criterion met
 Total energy in the final basis set = -1510.28134354
   12   -1510.2822291805      8.59E-09 Convergence criterion met
   12   -1510.3077394757      3.14E-09 Convergence criterion met
 Total energy in the final basis set = -1510.30773948
   12   -1510.3077736445      2.44E-09 Convergence criterion met
 Total energy in the final basis set = -1510.30777364
   12   -1510.3078264053      2.97E-09 Convergence criterion met
 Total energy in the final basis set = -1510.30782641
   11   -1510.3078615258      9.28E-09 Convergence criterion met
 Total energy in the final basis set = -1510.30786153
   11   -1510.3079107036      9.05E-09 Convergence criterion met
 Total energy in the final basis set = -1510.30791070
   11   -1510.3079258408      4.91E-09 Convergence criterion met
 Total energy in the final basis set = -1510.30792584

             Standard Nuclear Orientation (Angstroms)
    I     Atom           X                Y                Z
 ----------------------------------------------------------------
    1      O      -2.4644184577     3.1717930943    -0.5079583518
    2      C      -3.1390575084     2.1289247288    -0.6435788042
    3      C      -3.1921621874     0.8905575581     0.3268223774
    4      C      -2.4682621816    -0.3991556849    -0.2319958080
    5      C      -1.7608618347    -0.1736801193    -1.6103382169
    6      O      -1.2990043714    -1.4475759101    -2.0508229125
    7      C      -0.4222179083    -1.3388051673    -3.2389952527
    8      C       0.7077180875    -2.4253753362    -3.1022421411
    9      O       1.9005174149    -1.9543781244    -2.3651038662
   10      C       1.6807367116    -1.9825109044    -0.9416656563
   11      C       3.0312233927    -1.5464074066    -0.2429447308
   12      C       3.1572086669     0.0063495487     0.0313243892
   13      C       1.8573469407     0.7478915826    -0.4166025957
   14      O       0.8970290352     0.1956208503    -1.0101446653
   15      O      -4.1218467143     1.9219008888    -1.6692152029
   16      O       1.8730492333     2.1044940055    -0.0284023305
   17      O       0.6821338107    -2.4941475957    -0.3839236853
   18      C       0.5133381372     2.6771448804    -0.2490827710
   19      C       3.0951862627    -2.1148947902     1.2354552021
   20      C       4.5878453912    -2.0356340251     1.7426988492
   21      C       4.7389040996    -0.4898746859     1.9989613309
   22      C       3.2968876832     0.0264033954     1.6138625783
   23      O       2.4027336859    -1.0760742045     2.0349421900
   24      H       3.8682639325    -1.9083011482    -0.8655834820
   25      H       4.0360122544     0.4547856404    -0.4664623891
   26      H       2.5948646125    -3.0938836757     1.3659077401
   27      H       4.7092892520    -2.6123125527     2.6735336379
   28      H       5.3023667112    -2.4158730725     0.9952062541
   29      H       4.9550490435    -0.2739738316     3.0573373980
   30      H       5.5228963742    -0.0288896408     1.3772052962
   31      H       2.9893769165     0.9829879758     2.0791916734
   32      O      -1.5974625605     0.9068275497    -2.2209239340
   33      C      -4.0486712845     3.0180368002    -2.6593557429
   34      C      -2.3644693584     1.1529627741     1.6520160645
   35      C      -2.7972757277     0.0944411307     2.7363403892
   36      C      -2.1032165036    -1.2062939141     2.1833489595
   37      C      -1.3781113149    -0.6584220106     0.8949823770
   38      O      -0.9917505847     0.7210281139     1.2912604645
   39      H      -4.2536824403     0.6745105903     0.5433275064
   40      H      -3.1586976945    -1.2558067982    -0.3277957549
   41      H      -3.0701005753     3.0174359339    -3.1820322660
   42      H      -2.3583518301     2.2103366427     1.9807728643
   43      H      -2.4025067055     0.3735388200     3.7262357055
   44      H      -3.8924031595    -0.0025419544     2.8070326675
   45      H      -1.3630763174    -1.6035628392     2.8961192446
   46      H      -2.8242485978    -2.0034564544     1.9419957596
   47      H      -0.5027856972    -1.2567870262     0.5465054940
   48      H      -4.1972793219     4.0104386753    -2.1866506504
   49      H      -4.8579180714     2.8293403708    -3.3886679907
   50      H       0.5359067580     3.6903346702     0.1891531772
   51      H      -0.2347801174     2.0228178233     0.2656081462
   52      H       0.2740445432     2.7388049239    -1.3293933429
   53      H       0.2717360844    -3.3258566623    -2.6163855556
   54      H       1.0777394323    -2.6942731178    -4.1127164330
   55      H       0.0073240262    -0.3167381290    -3.3095070305
   56      H      -1.0183052564    -1.5410619759    -4.1570176415
 ----------------------------------------------------------------

    9   -1510.3079255979      5.88E-09 Convergence criterion met
 Total energy in the final basis set = -1510.30792560
 Final energy is   -1510.30792559786
 **  OPTIMIZATION CONVERGED  **

                    Orbital Energies (a.u.)
 --------------------------------------------------------------

 Alpha MOs
 -- Occupied --
-18.934 -18.927 -18.918 -18.917 -18.890 -18.884 -18.876 -18.870
-18.857 -18.856 -10.100 -10.095 -10.093 -10.087 -10.067 -10.065
-10.057 -10.055 -10.054 -10.051 -10.043 -10.036 -10.030 -10.029
-10.029 -10.028 -10.018 -10.017 -10.014 -10.010  -1.014  -1.006
 -0.996  -0.993  -0.967  -0.967  -0.934  -0.931  -0.924  -0.921
 -0.759  -0.756  -0.722  -0.717  -0.708  -0.701  -0.690  -0.651
 -0.644  -0.611  -0.590  -0.573  -0.541  -0.538  -0.533  -0.528
 -0.507  -0.502  -0.478  -0.467  -0.456  -0.451  -0.446  -0.444
 -0.429  -0.428  -0.423  -0.408  -0.402  -0.399  -0.396  -0.391
 -0.386  -0.372  -0.367  -0.360  -0.355  -0.351  -0.344  -0.342
 -0.339  -0.335  -0.334  -0.327  -0.324  -0.321  -0.315  -0.309
 -0.304  -0.300  -0.296  -0.294  -0.288  -0.276  -0.267  -0.266
 -0.263  -0.251  -0.245  -0.240  -0.238  -0.231  -0.226  -0.181
 -0.173  -0.162  -0.157  -0.151  -0.149  -0.142  -0.141  -0.138
 -0.137

          Ground-State Mulliken Net Atomic Charges

     Atom                 Charge (a.u.)
  ----------------------------------------
      1 O                    -0.221767
      2 C                     0.215576
      3 C                    -0.082833
      4 C                    -0.078192
      5 C                     0.224956
      6 O                    -0.168683
      7 C                    -0.048728
      8 C                    -0.047819
      9 O                    -0.178551
     10 C                     0.221504
     11 C                    -0.082234
     12 C                    -0.078878
     13 C                     0.221076
     14 O                    -0.214594
     15 O                    -0.175532
     16 O                    -0.167534
     17 O                    -0.228578
     18 C                    -0.143703
     19 C                     0.024208
     20 C                    -0.144151
     21 C                    -0.143938
     22 C                     0.024822
     23 O                    -0.190014
     24 H                     0.083287
     25 H                     0.086323
     26 H                     0.086326
     27 H                     0.077373
     28 H                     0.072868
     29 H                     0.077858
     30 H                     0.073343
     31 H                     0.089551
     32 O                    -0.215037
     33 C                    -0.128302
     34 C                     0.024951
     35 C                    -0.143775
     36 C                    -0.143123
     37 C                     0.018961
     38 O                    -0.191444
     39 H                     0.083566
     40 H                     0.086979
     41 H                     0.091642
     42 H                     0.086892
     43 H                     0.077438
     44 H                     0.072390
     45 H                     0.081252
     46 H                     0.073479
     47 H                     0.113552
     48 H                     0.085929
     49 H                     0.085627
     50 H                     0.084086
     51 H                     0.119933
     52 H                     0.086709
     53 H                     0.094786
     54 H                     0.085822
     55 H                     0.103533
     56 H                     0.080811
  ----------------------------------------
  Sum of atomic charges =     0.000000

                    Cartesian Multipole Moments
 -----------------------------------------------------------------
    Charge (ESU x 10^10)
                 0.0000
    Dipole Moment (Debye)
         X       0.7083      Y      -1.1104      Z      -0.6229
       Tot       1.4569
    Quadrupole Moments (Debye-Ang)
        XX    -143.8348     XY      -2.9871     YY    -160.5439
        XZ      -0.3442     YZ       2.2803     ZZ    -151.9516

 Total job time:  210.97s(wall), 10060.08s(cpu)
        *  Thank you very much for using Q-Chem.  Have a nice day.  *
