 Q-Chem 5.0, Q-Chem, Inc., Pleasanton, CA (2017)
 Q-Chem 5.0.1 for Intel X86 EM64T Linux

User input:
--------------------------------------------------------------
$molecule
0  1
O -4.4644278021 0.6997839467 1.8837190287
C -5.2555682392 0.7574567822 0.9196357482
C -5.183312649 0.0731917389 -0.4878695503
C -3.7610687643 -0.0066159487 -1.1861976883
C -2.5330726699 0.3394386799 -0.2750318289
O -1.7801605135 1.3747259612 -0.9307839554
C -0.6197263222 1.7770904372 -0.0977528669
C 0.4398310817 0.6294407958 0.0971130727
O 1.7774076645 1.2744544966 0.0677347611
C 2.8005063244 0.2748130312 -0.0444647129
C 4.19078755 0.9998715633 0.0524943514
C 5.347554259 0.0759861057 0.5991524901
C 4.922308084 -1.1457967838 1.4860753109
O 5.6261653965 -2.1455461566 1.7503178596
O -6.4886134874 1.4961854852 0.9528317506
O 3.6926049144 -0.8319989928 2.1529040888
O 2.5779955763 -0.9297930063 -0.2890186806
C 3.2579418825 -1.9595444733 3.0078084426
C 4.702802744 1.2027166429 -1.4427873485
C 6.052596758 2.027236827 -1.446857921
C 7.097225434 0.9181182981 -1.0495910798
C 6.1317878216 -0.2893875301 -0.7346699011
O 5.1148002387 -0.1739819275 -1.8061531064
H 4.085668839 1.9450382105 0.6119910608
H 6.0066849547 0.6828812159 1.2498210839
H 3.9270162521 1.5719537631 -2.1417229654
H 6.2537675629 2.4363539177 -2.4494449391
H 6.0250795882 2.860125822 -0.7257253841
H 7.7575458687 0.6690366425 -1.8958413816
H 7.7188052653 1.2004419502 -0.1849889632
H 6.5947993662 -1.2953814251 -0.7338914617
O -2.184066258 -0.2010771262 0.7948638065
C -6.6615262602 2.1329711215 2.2784617269
C -5.5920991519 -1.4704037403 -0.447716055
C -6.1092597642 -1.8577379957 -1.8874160999
C -4.7576309378 -1.8614591613 -2.6945716485
C -3.7116031382 -1.5567391044 -1.549155391
O -4.3033883953 -2.1868122629 -0.347373545
H -5.8865900609 0.6253859904 -1.1360765326
H -3.719463067 0.636513538 -2.0822830065
H -5.8422665695 2.8475714989 2.498606697
H -6.2607494257 -1.7515300032 0.3887953993
H -6.5705167174 -2.8582797776 -1.8713206959
H -6.8426428584 -1.1349296197 -2.2790151676
H -4.5574152879 -2.8465521407 -3.1448676925
H -4.7347550748 -1.0991923695 -3.4901370271
H -2.6920271824 -1.949853293 -1.7280833626
H -6.6974581063 1.3806207371 3.0927912105
H -7.6235393947 2.6758474944 2.233662138
H 2.358369229 -2.4295149765 2.5618847523
H 3.0066298327 -1.5608426247 4.0094647318
H 4.0747787412 -2.705706222 3.0821653974
H 0.2778552608 0.0974666825 1.058158052
H 0.3538546776 -0.115083489 -0.7248764448
H -0.9619866994 2.149257447 0.8914798701
H -0.1445031639 2.6125014414 -0.6514402455
$end

$rem
JOBTYPE                   OPT
METHOD                    B3LYP
DFT_D                     d3_op
BASIS                     STO-3G
GEOM_OPT_MAX_CYCLES       100
GEOM_OPT_TOL_GRADIENT     300
GEOM_OPT_TOL_DISPLACEMENT 1200
GEOM_OPT_TOL_ENERGY       100
SYMMETRY                  False
THRESH                    12
SCF_CONVERGENCE           8
MAX_SUB_FILE_NUM          128
MEM_STATIC                400
MEM_TOTAL                 4000
$end
--------------------------------------------------------------

   16   -1510.2711347737      6.36E-09 Convergence criterion met
 Total energy in the final basis set = -1510.27113477
   13   -1510.2734075365      7.27E-09 Convergence criterion met
 Total energy in the final basis set = -1510.27340754
   13   -1510.2751313248      3.71E-09 Convergence criterion met
 Total energy in the final basis set = -1510.27513132
   13   -1510.2765606241      3.89E-09 Convergence criterion met
 Total energy in the final basis set = -1510.27656062
   13   -1510.2779692107      8.14E-09 Convergence criterion met
 Total energy in the final basis set = -1510.27796921
   13   -1510.2792884723      6.37E-09 Convergence criterion met
 Total energy in the final basis set = -1510.27928847
   13   -1510.2806134322      7.06E-09 Convergence criterion met
 Total energy in the final basis set = -1510.28061343
   13   -1510.2819194282      7.60E-09 Convergence criterion met
   11   -1510.2936665382      6.03E-09 Convergence criterion met
 Total energy in the final basis set = -1510.29366654
   12   -1510.2935606972      7.40E-09 Convergence criterion met
 Total energy in the final basis set = -1510.29356070
   12   -1510.2936674788      5.51E-09 Convergence criterion met
 Total energy in the final basis set = -1510.29366748
   11   -1510.2936681998      3.74E-09 Convergence criterion met
 Total energy in the final basis set = -1510.29366820
   11   -1510.2936712378      4.72E-09 Convergence criterion met
 Total energy in the final basis set = -1510.29367124
    9   -1510.2936732402      9.52E-09 Convergence criterion met
 Total energy in the final basis set = -1510.29367324

             Standard Nuclear Orientation (Angstroms)
    I     Atom           X                Y                Z
 ----------------------------------------------------------------
    1      O       2.5417995878    -1.2840520927    -0.4292854710
    2      C       3.7765516706    -1.0869590287    -0.3530004765
    3      C       4.4946210814     0.2028197942     0.1635016685
    4      C       3.4876705466     1.3986083686     0.4129525456
    5      C       2.0031866493     1.0812780628     0.0011270376
    6      O       1.9078120481     1.2067750910    -1.4239491117
    7      C       0.5642812554     0.8015618069    -1.9035973441
    8      C      -0.5340864997     1.9000828961    -1.6527120979
    9      O      -1.8453808129     1.3302637749    -2.0445729679
   10      C      -2.6556228490     1.1197520285    -0.8755615941
   11      C      -3.9572860207     0.3697328122    -1.3130616614
   12      C      -4.1736769105    -0.9946811985    -0.5303061766
   13      C      -3.0371624827    -1.3314024764     0.5015239869
   14      O      -3.1840366570    -1.6045542492     1.7124972761
   15      O       4.7622712589    -2.0570769978    -0.7042818088
   16      O      -1.7834315953    -1.3069464039    -0.1855559443
   17      O      -2.3499079515     1.5138766544     0.2711911297
   18      C      -0.6623531077    -1.5492888535     0.7593476960
   19      C      -5.2676264521     1.1601117516    -0.8801917596
   20      C      -6.5012440707     0.5362208790    -1.6472857585
   21      C      -6.7123549379    -0.8044336177    -0.8482223890
   22      C      -5.5452089494    -0.7109316245     0.2094772089
   23      O      -5.4748919578     0.7360568286     0.5215454188
   24      H      -3.9138614518     0.2091534424    -2.4042972151
   25      H      -4.2595154191    -1.8373475547    -1.2408489689
   26      H      -5.1814132711     2.2622412715    -0.9433736278
   27      H      -7.3784582746     1.1974999697    -1.5663746229
   28      H      -6.2832403603     0.3664229399    -2.7139203886
   29      H      -7.6914971549    -0.8234402344    -0.3437234113
   30      H      -6.6251203040    -1.6989017397    -1.4852905916
   31      H      -5.6804667662    -1.2990554214     1.1381776202
   32      O       1.0393431158     0.8839471578     0.7754719602
   33      C       4.1051955262    -3.3084424431    -1.1521136747
   34      C       5.0541298634    -0.0255503073     1.6358943874
   35      C       6.0199070686     1.1714601505     1.9968611752
   36      C       4.9855289987     2.3248796608     2.2761551170
   37      C       3.6222708644     1.5865565722     1.9816726448
   38      O       3.8620546343     0.2107202987     2.4792143035
   39      H       5.3007069524     0.4725008164    -0.5419203290
   40      H       3.8117043828     2.2986861476    -0.1392686534
   41      H       3.4984424052    -3.1439083481    -2.0659897025
   42      H       5.4671867136    -1.0379046941     1.8120297494
   43      H       6.6116520663     0.9316601534     2.8945638116
   44      H       6.7103603649     1.4076591194     1.1714351207
   45      H       5.0245406978     2.6560648298     3.3260803208
   46      H       5.1348193460     3.1993523111     1.6229013104
   47      H       2.7225151438     2.0167014184     2.4627741676
   48      H       3.4484771659    -3.7281709864    -0.3631556998
   49      H       4.9228271721    -4.0188307171    -1.3729944518
   50      H      -0.0573807271    -0.6161598235     0.8473378398
   51      H      -0.0333551040    -2.3601135203     0.3445848185
   52      H      -1.0694689741    -1.8428292244     1.7465039932
   53      H      -0.5739090629     2.1632561117    -0.5730159803
   54      H      -0.3419231844     2.8031450521    -2.2671135186
   55      H       0.2378085575    -0.1422651660    -1.4190897936
   56      H       0.6823809426     0.6239751283    -2.9913968940
 ----------------------------------------------------------------

   10   -1510.2936732186      3.86E-09 Convergence criterion met
 Total energy in the final basis set = -1510.29367322
 Final energy is   -1510.29367321862
 **  OPTIMIZATION CONVERGED  **

                    Orbital Energies (a.u.)
 --------------------------------------------------------------

 Alpha MOs
 -- Occupied --
-18.948 -18.929 -18.924 -18.917 -18.890 -18.890 -18.881 -18.874
-18.868 -18.865 -10.111 -10.102 -10.092 -10.088 -10.073 -10.065
-10.064 -10.060 -10.057 -10.055 -10.051 -10.045 -10.038 -10.032
-10.030 -10.026 -10.023 -10.022 -10.016 -10.015  -1.024  -1.008
 -1.003  -0.995  -0.973  -0.964  -0.948  -0.935  -0.928  -0.922
 -0.767  -0.757  -0.727  -0.719  -0.712  -0.702  -0.690  -0.670
 -0.641  -0.614  -0.595  -0.578  -0.548  -0.540  -0.537  -0.531
 -0.515  -0.501  -0.483  -0.470  -0.463  -0.458  -0.451  -0.444
 -0.435  -0.432  -0.424  -0.420  -0.415  -0.403  -0.399  -0.392
 -0.386  -0.382  -0.371  -0.368  -0.356  -0.352  -0.350  -0.348
 -0.344  -0.340  -0.331  -0.330  -0.325  -0.321  -0.319  -0.315
 -0.308  -0.305  -0.303  -0.298  -0.293  -0.280  -0.278  -0.277
 -0.265  -0.262  -0.252  -0.238  -0.237  -0.234  -0.228  -0.190
 -0.181  -0.166  -0.163  -0.156  -0.151  -0.149  -0.147  -0.143
 -0.137

          Ground-State Mulliken Net Atomic Charges

     Atom                 Charge (a.u.)
  ----------------------------------------
      1 O                    -0.208660
      2 C                     0.215711
      3 C                    -0.077967
      4 C                    -0.081126
      5 C                     0.223428
      6 O                    -0.176015
      7 C                    -0.051157
      8 C                    -0.060660
      9 O                    -0.174947
     10 C                     0.213243
     11 C                    -0.078596
     12 C                    -0.078255
     13 C                     0.213694
     14 O                    -0.211502
     15 O                    -0.167438
     16 O                    -0.179658
     17 O                    -0.209374
     18 C                    -0.152645
     19 C                     0.025720
     20 C                    -0.143977
     21 C                    -0.144148
     22 C                     0.024366
     23 O                    -0.186211
     24 H                     0.085204
     25 H                     0.082941
     26 H                     0.082353
     27 H                     0.077253
     28 H                     0.072629
     29 H                     0.077508
     30 H                     0.072268
     31 H                     0.090952
     32 O                    -0.214885
     33 C                    -0.128120
     34 C                     0.025254
     35 C                    -0.143757
     36 C                    -0.143756
     37 C                     0.025009
     38 O                    -0.188332
     39 H                     0.088171
     40 H                     0.085254
     41 H                     0.090839
     42 H                     0.085237
     43 H                     0.079089
     44 H                     0.073946
     45 H                     0.079365
     46 H                     0.073717
     47 H                     0.091593
     48 H                     0.092355
     49 H                     0.093220
     50 H                     0.112027
     51 H                     0.078434
     52 H                     0.095212
     53 H                     0.107224
     54 H                     0.081001
     55 H                     0.100748
     56 H                     0.086222
  ----------------------------------------
  Sum of atomic charges =     0.000000

                    Cartesian Multipole Moments
 -----------------------------------------------------------------
    Charge (ESU x 10^10)
                 0.0000
    Dipole Moment (Debye)
         X       3.2541      Y      -0.5152      Z      -3.7593
       Tot       4.9987
    Quadrupole Moments (Debye-Ang)
        XX    -139.4592     XY       3.8312     YY    -149.5477
        XZ      11.3858     YZ       2.3931     ZZ    -164.1275

 Total job time:  122.20s(wall), 5820.97s(cpu)
        *  Thank you very much for using Q-Chem.  Have a nice day.  *
