 Q-Chem 5.0, Q-Chem, Inc., Pleasanton, CA (2017)
 Q-Chem 5.0.1 for Intel X86 EM64T Linux

User input:
--------------------------------------------------------------
$molecule
0  1
O -3.94934 -3.66094 2.70899
C -3.26408 -4.56952 2.26188
C -3.36658 -6.02376 2.66595
C -3.60908 -6.32408 4.15419
C -3.89915 -5.13537 5.04353
O -3.02941 -5.12046 6.0965
C -3.21808 -3.99972 6.96689
C -4.58626 -4.07847 7.63622
O -4.49421 -3.61842 8.99371
C -5.57501 -3.87609 9.77127
C -5.46574 -3.26999 11.15017
C -6.80779 -2.96115 11.82972
C -8.02751 -3.61367 11.21068
O -9.11348 -3.74729 11.75601
O -2.24286 -4.25982 1.42044
O -8.14181 -3.41236 9.86522
O -6.22541 -4.89989 9.58401
C -9.20641 -3.77015 9.05494
C -4.83755 -4.22661 12.18293
C -4.23767 -3.41669 13.33064
C -5.49653 -2.9078 14.00358
C -6.56264 -3.64892 13.1868
O -5.93355 -4.84845 12.80593
H -4.82508 -2.36149 11.07012
H -7.01541 -1.87181 11.91351
H -4.07226 -4.90454 11.74522
H -3.73993 -4.14482 14.01087
H -3.50629 -2.63263 13.03876
H -5.49129 -3.25193 15.06161
H -5.64837 -1.80748 13.9588
H -7.49495 -3.75869 13.78353
O -4.85218 -4.37834 4.89888
C -1.96316 -2.98542 0.97331
C -4.64683 -6.6523 2.06992
C -4.49497 -8.17099 1.98475
C -4.59267 -8.54543 3.44837
C -4.88709 -7.17348 4.06416
O -5.62333 -6.50508 3.0709
H -2.49236 -6.56599 2.23856
H -2.76047 -6.90307 4.58613
H -1.73022 -2.32032 1.83223
H -4.90892 -6.24128 1.06971
H -5.39653 -8.56116 1.45983
H -3.5833 -8.53016 1.46082
H -5.46297 -9.22627 3.58002
H -3.67974 -9.00679 3.8833
H -5.38753 -7.28847 5.05148
H -2.82956 -2.58003 0.40807
H -1.08242 -3.02121 0.29985
H -8.8378 -4.43957 8.25041
H -9.63451 -2.8582 8.59095
H -10.008 -4.30485 9.60758
H -5.39488 -3.5613 7.07712
H -4.8243 -5.16679 7.6816
H -3.03644 -3.01528 6.48212
H -2.44663 -4.12785 7.75648
$end

$opt
CONSTRAINT
tors           1           2           3           4     -39.261
tors           3           4           5           6    -125.780
tors           4           5           6           7    +178.388
tors           5           6           7           8     +64.684
tors           6           7           8           9    +142.434
tors           7           8           9          10    -167.870
tors           8           9          10          11    -175.253
tors           9          10          11          12    +153.554
tors          11          12          13          14    +162.400
ENDCONSTRAINT
$end

$rem
JOBTYPE                   OPT
METHOD                    B3LYP
DFT_D                     d3_op
BASIS                     STO-3G
GEOM_OPT_MAX_CYCLES       100
GEOM_OPT_TOL_GRADIENT     300
GEOM_OPT_TOL_DISPLACEMENT 1200
GEOM_OPT_TOL_ENERGY       100
SYMMETRY                  False
THRESH                    12
SCF_CONVERGENCE           8
MAX_SUB_FILE_NUM          128
MEM_STATIC                400
MEM_TOTAL                 4000
$end
--------------------------------------------------------------

   15   -1510.1149658819      7.00E-09 Convergence criterion met
 Total energy in the final basis set = -1510.11496588
   14   -1510.1882689820      4.85E-09 Convergence criterion met
 Total energy in the final basis set = -1510.18826898
   14   -1510.2288112786      5.30E-09 Convergence criterion met
 Total energy in the final basis set = -1510.22881128
   14   -1510.2490685696      6.19E-09 Convergence criterion met
 Total energy in the final basis set = -1510.24906857
   14   -1510.2576223840      2.93E-09 Convergence criterion met
 Total energy in the final basis set = -1510.25762238
   14   -1510.2619451954      4.24E-09 Convergence criterion met
 Total energy in the final basis set = -1510.26194520
   12   -1510.2646990020      8.94E-09 Convergence criterion met
 Total energy in the final basis set = -1510.26469900
   12   -1510.2663812177      9.85E-09 Convergence criterion met
   11   -1510.2713115991      3.81E-09 Convergence criterion met
 Total energy in the final basis set = -1510.27131160
   11   -1510.2713350575      2.75E-09 Convergence criterion met
 Total energy in the final basis set = -1510.27133506
   10   -1510.2713450608      7.98E-09 Convergence criterion met
 Total energy in the final basis set = -1510.27134506
    9   -1510.2713491192      9.47E-09 Convergence criterion met
 Total energy in the final basis set = -1510.27134912
    9   -1510.2713509876      5.79E-09 Convergence criterion met
 Total energy in the final basis set = -1510.27135099
    9   -1510.2713524735      3.95E-09 Convergence criterion met
 Total energy in the final basis set = -1510.27135247

             Standard Nuclear Orientation (Angstroms)
    I     Atom           X                Y                Z
 ----------------------------------------------------------------
    1      O      -4.4644278021     0.6997839467     1.8837190287
    2      C      -5.2555682392     0.7574567822     0.9196357482
    3      C      -5.1833126490     0.0731917389    -0.4878695503
    4      C      -3.7610687643    -0.0066159487    -1.1861976883
    5      C      -2.5330726699     0.3394386799    -0.2750318289
    6      O      -1.7801605135     1.3747259612    -0.9307839554
    7      C      -0.6197263222     1.7770904372    -0.0977528669
    8      C       0.4398310817     0.6294407958     0.0971130727
    9      O       1.7774076645     1.2744544966     0.0677347611
   10      C       2.8005063244     0.2748130312    -0.0444647129
   11      C       4.1907875500     0.9998715633     0.0524943514
   12      C       5.3475542590     0.0759861057     0.5991524901
   13      C       4.9223080840    -1.1457967838     1.4860753109
   14      O       5.6261653965    -2.1455461566     1.7503178596
   15      O      -6.4886134874     1.4961854852     0.9528317506
   16      O       3.6926049144    -0.8319989928     2.1529040888
   17      O       2.5779955763    -0.9297930063    -0.2890186806
   18      C       3.2579418825    -1.9595444733     3.0078084426
   19      C       4.7028027440     1.2027166429    -1.4427873485
   20      C       6.0525967580     2.0272368270    -1.4468579210
   21      C       7.0972254340     0.9181182981    -1.0495910798
   22      C       6.1317878216    -0.2893875301    -0.7346699011
   23      O       5.1148002387    -0.1739819275    -1.8061531064
   24      H       4.0856688390     1.9450382105     0.6119910608
   25      H       6.0066849547     0.6828812159     1.2498210839
   26      H       3.9270162521     1.5719537631    -2.1417229654
   27      H       6.2537675629     2.4363539177    -2.4494449391
   28      H       6.0250795882     2.8601258220    -0.7257253841
   29      H       7.7575458687     0.6690366425    -1.8958413816
   30      H       7.7188052653     1.2004419502    -0.1849889632
   31      H       6.5947993662    -1.2953814251    -0.7338914617
   32      O      -2.1840662580    -0.2010771262     0.7948638065
   33      C      -6.6615262602     2.1329711215     2.2784617269
   34      C      -5.5920991519    -1.4704037403    -0.4477160550
   35      C      -6.1092597642    -1.8577379957    -1.8874160999
   36      C      -4.7576309378    -1.8614591613    -2.6945716485
   37      C      -3.7116031382    -1.5567391044    -1.5491553910
   38      O      -4.3033883953    -2.1868122629    -0.3473735450
   39      H      -5.8865900609     0.6253859904    -1.1360765326
   40      H      -3.7194630670     0.6365135380    -2.0822830065
   41      H      -5.8422665695     2.8475714989     2.4986066970
   42      H      -6.2607494257    -1.7515300032     0.3887953993
   43      H      -6.5705167174    -2.8582797776    -1.8713206959
   44      H      -6.8426428584    -1.1349296197    -2.2790151676
   45      H      -4.5574152879    -2.8465521407    -3.1448676925
   46      H      -4.7347550748    -1.0991923695    -3.4901370271
   47      H      -2.6920271824    -1.9498532930    -1.7280833626
   48      H      -6.6974581063     1.3806207371     3.0927912105
   49      H      -7.6235393947     2.6758474944     2.2336621380
   50      H       2.3583692290    -2.4295149765     2.5618847523
   51      H       3.0066298327    -1.5608426247     4.0094647318
   52      H       4.0747787412    -2.7057062220     3.0821653974
   53      H       0.2778552608     0.0974666825     1.0581580520
   54      H       0.3538546776    -0.1150834890    -0.7248764448
   55      H      -0.9619866994     2.1492574470     0.8914798701
   56      H      -0.1445031639     2.6125014414    -0.6514402455
 ----------------------------------------------------------------

    9   -1510.2713532912      4.26E-09 Convergence criterion met
 Total energy in the final basis set = -1510.27135329
 Final energy is   -1510.27135329122
 **  OPTIMIZATION CONVERGED  **

                    Orbital Energies (a.u.)
 --------------------------------------------------------------

 Alpha MOs
 -- Occupied --
-18.931 -18.930 -18.929 -18.924 -18.891 -18.886 -18.877 -18.876
-18.872 -18.867 -10.098 -10.097 -10.096 -10.094 -10.071 -10.064
-10.064 -10.062 -10.062 -10.059 -10.058 -10.053 -10.039 -10.038
-10.036 -10.035 -10.022 -10.021 -10.020 -10.018  -1.012  -1.009
 -1.007  -1.001  -0.972  -0.969  -0.937  -0.934  -0.931  -0.927
 -0.764  -0.762  -0.726  -0.722  -0.712  -0.705  -0.694  -0.663
 -0.655  -0.617  -0.596  -0.579  -0.546  -0.543  -0.539  -0.536
 -0.514  -0.509  -0.475  -0.470  -0.461  -0.457  -0.450  -0.448
 -0.434  -0.431  -0.429  -0.412  -0.410  -0.409  -0.404  -0.396
 -0.394  -0.376  -0.372  -0.367  -0.359  -0.355  -0.352  -0.348
 -0.343  -0.337  -0.334  -0.331  -0.329  -0.328  -0.320  -0.312
 -0.311  -0.307  -0.303  -0.301  -0.291  -0.287  -0.281  -0.272
 -0.270  -0.258  -0.251  -0.247  -0.242  -0.236  -0.232  -0.180
 -0.176  -0.173  -0.163  -0.159  -0.155  -0.147  -0.146  -0.141
 -0.140

          Ground-State Mulliken Net Atomic Charges

     Atom                 Charge (a.u.)
  ----------------------------------------
      1 O                    -0.204896
      2 C                     0.204400
      3 C                    -0.080228
      4 C                    -0.079537
      5 C                     0.206487
      6 O                    -0.173656
      7 C                    -0.049498
      8 C                    -0.051694
      9 O                    -0.178573
     10 C                     0.216727
     11 C                    -0.076964
     12 C                    -0.078773
     13 C                     0.215609
     14 O                    -0.215610
     15 O                    -0.172760
     16 O                    -0.171566
     17 O                    -0.212404
     18 C                    -0.135065
     19 C                     0.024609
     20 C                    -0.145271
     21 C                    -0.142003
     22 C                     0.025298
     23 O                    -0.188206
     24 H                     0.086705
     25 H                     0.084189
     26 H                     0.081879
     27 H                     0.077900
     28 H                     0.073434
     29 H                     0.078234
     30 H                     0.073529
     31 H                     0.090284
     32 O                    -0.198797
     33 C                    -0.129545
     34 C                     0.027126
     35 C                    -0.142673
     36 C                    -0.144661
     37 C                     0.026694
     38 O                    -0.183688
     39 H                     0.086689
     40 H                     0.086704
     41 H                     0.088273
     42 H                     0.084169
     43 H                     0.078520
     44 H                     0.074546
     45 H                     0.079097
     46 H                     0.074291
     47 H                     0.084317
     48 H                     0.088841
     49 H                     0.089469
     50 H                     0.089645
     51 H                     0.085750
     52 H                     0.101655
     53 H                     0.097019
     54 H                     0.090948
     55 H                     0.089767
     56 H                     0.093265
  ----------------------------------------
  Sum of atomic charges =     0.000000

                    Cartesian Multipole Moments
 -----------------------------------------------------------------
    Charge (ESU x 10^10)
                 0.0000
    Dipole Moment (Debye)
         X      -1.7127      Y       3.2597      Z      -0.7354
       Tot       3.7550
    Quadrupole Moments (Debye-Ang)
        XX    -139.5568     XY       9.0241     YY    -159.9774
        XZ       5.6244     YZ       2.5347     ZZ    -155.7078

 Total job time:  64.04s(wall), 3044.99s(cpu)
        *  Thank you very much for using Q-Chem.  Have a nice day.  *
