 Q-Chem 5.0, Q-Chem, Inc., Pleasanton, CA (2017)
 Q-Chem 5.0.1 for Intel X86 EM64T Linux

User input:
--------------------------------------------------------------
$molecule
0  1
O -3.0319421871 1.9708253413 0.9175171589
C -3.5038595377 1.7135069711 -0.2090091129
C -4.2797847772 0.4288294143 -0.6781184743
C -3.6465567624 -0.9491017067 -0.2324987444
C -2.1207477562 -0.9317084564 0.1183683973
O -1.6950929565 -2.3015422427 0.2342817848
C -0.2392703273 -2.3402930759 0.5106601842
C 0.5644845452 -2.314503983 -0.8484250628
O 2.0432225049 -2.3177221391 -0.7127506267
C 2.5068622316 -1.1664127687 0.0297395184
C 3.7827719897 -0.5948124358 -0.6821189406
C 4.0328365589 0.9538313346 -0.4454330966
C 3.2090421648 1.5600542958 0.7521283528
O 3.4195821231 1.4246115629 1.9754045692
O -3.4293210591 2.6070790578 -1.3305074979
O 2.0791692531 2.2442488025 0.1926025273
O 1.9221452453 -0.6729303894 1.0197408628
C 1.1375768728 2.6301779083 1.2688817365
C 5.1699075652 -1.2145936262 -0.1944618317
C 6.2005940779 -1.0280867382 -1.375185782
C 6.4331632904 0.5276068043 -1.3176848341
C 5.5712479051 0.9265406172 -0.0539842206
O 5.6527740652 -0.2634081426 0.8273864712
H 3.6470567121 -0.7983632999 -1.7591578635
H 3.8255091584 1.5371597312 -1.3595411707
H 5.1012315974 -2.2385008895 0.221710355
H 7.1293419443 -1.5817027402 -1.1626962528
H 5.7977024481 -1.3672925566 -2.3428277359
H 7.4945548997 0.7741873433 -1.1572925513
H 6.0862021643 1.0406472078 -2.2290674812
H 5.9183027606 1.827111141 0.4880407662
O -1.3400653857 0.0395119518 0.2068652092
C -2.7010733158 3.836579727 -0.943668098
C -5.6406984385 0.3731526575 0.1483467779
C -6.5595781066 -0.7931215377 -0.3965592279
C -5.8887677054 -2.0537556459 0.2658162048
C -4.6301926506 -1.3888614708 0.9464249119
O -5.175131898 -0.1160204518 1.4673467618
H -4.439766901 0.4832901205 -1.7686712712
H -3.7461470331 -1.6743339466 -1.0612422251
H -1.6556005031 3.612258891 -0.6472988434
H -6.1453486997 1.3527448304 0.2567673122
H -7.5980785008 -0.6582954156 -0.0553109433
H -6.5541809824 -0.8394316297 -1.4975320305
H -6.5440574555 -2.5019066624 1.0299762957
H -5.6140381615 -2.8302002434 -0.4659123922
H -4.1549278326 -1.9766377857 1.7554221271
H -3.1983456422 4.3610703146 -0.1021867126
H -2.6998472274 4.4874431389 -1.8372652294
H 0.2619307261 3.0802311676 0.7655402176
H 1.586807832 3.3679211683 1.9650338729
H 0.8114802784 1.7430546234 1.8489770749
H 0.3282553758 -3.2163142537 -1.4494924892
H 0.2463367694 -1.4156598006 -1.4229269461
H -0.0479864272 -3.2879823288 1.052153755
H 0.0988993976 -1.4755197738 1.1196605273
$end

$rem
JOBTYPE                   OPT
METHOD                    B3LYP
DFT_D                     d3_op
BASIS                     STO-3G
GEOM_OPT_MAX_CYCLES       100
GEOM_OPT_TOL_GRADIENT     300
GEOM_OPT_TOL_DISPLACEMENT 1200
GEOM_OPT_TOL_ENERGY       100
SYMMETRY                  False
THRESH                    12
SCF_CONVERGENCE           8
MAX_SUB_FILE_NUM          128
MEM_STATIC                400
MEM_TOTAL                 4000
$end
--------------------------------------------------------------

   16   -1510.2668374849      7.43E-09 Convergence criterion met
 Total energy in the final basis set = -1510.26683748
   14   -1510.2709521121      7.13E-09 Convergence criterion met
 Total energy in the final basis set = -1510.27095211
   14   -1510.2747813230      2.60E-09 Convergence criterion met
 Total energy in the final basis set = -1510.27478132
   14   -1510.2778512870      5.47E-09 Convergence criterion met
 Total energy in the final basis set = -1510.27785129
   13   -1510.2799184913      4.81E-09 Convergence criterion met
 Total energy in the final basis set = -1510.27991849
   13   -1510.2815843999      5.53E-09 Convergence criterion met
 Total energy in the final basis set = -1510.28158440
   13   -1510.2830566473      5.10E-09 Convergence criterion met
 Total energy in the final basis set = -1510.28305665
   13   -1510.2842990988      4.34E-09 Convergence criterion met
   11   -1510.3009545196      7.61E-09 Convergence criterion met
 Total energy in the final basis set = -1510.30095452
   10   -1510.3009558626      8.42E-09 Convergence criterion met
 Total energy in the final basis set = -1510.30095586
    9   -1510.3009573601      6.55E-09 Convergence criterion met
 Total energy in the final basis set = -1510.30095736
    9   -1510.3009594112      7.78E-09 Convergence criterion met
 Total energy in the final basis set = -1510.30095941
    9   -1510.3009613405      7.26E-09 Convergence criterion met
 Total energy in the final basis set = -1510.30096134
    9   -1510.3009538434      9.38E-09 Convergence criterion met
 Total energy in the final basis set = -1510.30095384

             Standard Nuclear Orientation (Angstroms)
    I     Atom           X                Y                Z
 ----------------------------------------------------------------
    1      O      -1.0842392957     0.6759962314     2.0919984469
    2      C      -1.8223702485     0.7560727323     1.0865101353
    3      C      -3.1858481746     0.0011691902     0.8584386764
    4      C      -3.2060144472    -1.0204686000    -0.3474987317
    5      C      -1.7951703898    -1.3164400149    -0.9547932862
    6      O      -1.9937516055    -1.8356817261    -2.2742606224
    7      C      -0.7435489509    -2.3944267411    -2.8417845128
    8      C       0.3413801131    -1.3241891746    -3.2492063917
    9      O       1.4476202591    -1.3479802275    -2.2646507179
   10      C       1.6208648038    -0.0569870154    -1.6701084035
   11      C       2.6709377258    -0.1917117441    -0.5236171212
   12      C       3.5078039448     1.1262069695    -0.2520017068
   13      C       3.0652833798     2.3430468544    -1.1442699652
   14      O       2.4591246028     3.3728358956    -0.7817218894
   15      O      -1.6242575853     1.6215351236    -0.0275290378
   16      O       3.5433684395     2.1077068449    -2.4759635359
   17      O       1.0069751374     0.9710562580    -2.0344618307
   18      C       3.0546864516     3.1736085165    -3.3785196847
   19      C       1.9504151389    -0.3936173762     0.8856611933
   20      C       3.0145097492    -0.9656320165     1.8964406183
   21      C       3.9056528800     0.3086392859     2.1567902269
   22      C       3.1717479248     1.3889727346     1.2703424174
   23      O       1.7477170473     0.9895656213     1.3708207328
   24      H       3.3237376674    -1.0510549165    -0.7557176788
   25      H       4.5847652691     0.9433491606    -0.4174393852
   26      H       0.9764645407    -0.9211285676     0.8180323397
   27      H       2.5195122493    -1.3060032503     2.8197873195
   28      H       3.5848032726    -1.8050875606     1.4680452722
   29      H       3.8855540461     0.6045668655     3.2175788570
   30      H       4.9538737015     0.1643114310     1.8496169259
   31      H       3.2960230846     2.4421989012     1.5880748984
   32      O      -0.6812228243    -1.2055098823    -0.3990373125
   33      C      -0.4245100421     2.4750592571     0.1712639012
   34      C      -3.5558942963    -0.9485363050     2.0740531713
   35      C      -5.1137043966    -1.1937634175     2.0437538126
   36      C      -5.2407383987    -2.1358191515     0.7892342206
   37      C      -3.7223773299    -2.3320983229     0.3949227397
   38      O      -3.0023106773    -2.2685592458     1.6853569108
   39      H      -3.9685906145     0.7661858266     0.7077398517
   40      H      -3.8857708748    -0.7075001750    -1.1593713506
   41      H      -0.1427528505     2.8458055503    -0.8304837198
   42      H      -3.1305255566    -0.6234400868     3.0433818105
   43      H      -5.4414958631    -1.7045004365     2.9633079486
   44      H      -5.6842676934    -0.2575938190     1.9352635251
   45      H      -5.6988258753    -3.1029592237     1.0504890870
   46      H      -5.8219920918    -1.6800518252    -0.0283511316
   47      H      -3.4940952648    -3.2765916115    -0.1368814728
   48      H       0.4277587817     1.9035884864     0.6203210240
   49      H      -0.6757920725     3.3359775566     0.8236814381
   50      H       3.4820807697     2.9534898832    -4.3740926124
   51      H       3.3852622243     4.1786633802    -3.0454777912
   52      H       1.9469561526     3.1671844019    -3.4400272459
   53      H       0.7610592260    -1.5821996915    -4.2442725826
   54      H      -0.0880969908    -0.2981121467    -3.2857819120
   55      H      -1.0762570738    -2.9476533675    -3.7428553605
   56      H      -0.2746894418    -3.1100608278    -2.1307651589
 ----------------------------------------------------------------

    9   -1510.3009547532      7.83E-09 Convergence criterion met
 Total energy in the final basis set = -1510.30095475
 Final energy is   -1510.30095475320
 **  OPTIMIZATION CONVERGED  **

                    Orbital Energies (a.u.)
 --------------------------------------------------------------

 Alpha MOs
 -- Occupied --
-18.939 -18.934 -18.924 -18.903 -18.897 -18.884 -18.883 -18.878
-18.867 -18.849 -10.106 -10.102 -10.092 -10.079 -10.077 -10.071
-10.059 -10.058 -10.057 -10.052 -10.051 -10.036 -10.036 -10.034
-10.025 -10.018 -10.018 -10.016 -10.015 -10.009  -1.020  -1.011
 -1.001  -0.984  -0.972  -0.966  -0.944  -0.938  -0.928  -0.910
 -0.762  -0.758  -0.726  -0.719  -0.711  -0.701  -0.694  -0.656
 -0.632  -0.618  -0.592  -0.577  -0.544  -0.539  -0.534  -0.531
 -0.512  -0.504  -0.481  -0.464  -0.459  -0.449  -0.448  -0.444
 -0.436  -0.428  -0.425  -0.411  -0.406  -0.400  -0.397  -0.390
 -0.378  -0.375  -0.374  -0.361  -0.354  -0.352  -0.349  -0.345
 -0.341  -0.334  -0.329  -0.328  -0.325  -0.321  -0.318  -0.307
 -0.305  -0.302  -0.297  -0.295  -0.294  -0.279  -0.271  -0.268
 -0.265  -0.257  -0.249  -0.246  -0.239  -0.231  -0.216  -0.190
 -0.172  -0.168  -0.160  -0.157  -0.153  -0.145  -0.141  -0.139
 -0.129

          Ground-State Mulliken Net Atomic Charges

     Atom                 Charge (a.u.)
  ----------------------------------------
      1 O                    -0.215560
      2 C                     0.209896
      3 C                    -0.081215
      4 C                    -0.077183
      5 C                     0.219339
      6 O                    -0.172205
      7 C                    -0.050313
      8 C                    -0.056759
      9 O                    -0.171159
     10 C                     0.221466
     11 C                    -0.079110
     12 C                    -0.080894
     13 C                     0.214579
     14 O                    -0.212568
     15 O                    -0.181308
     16 O                    -0.175629
     17 O                    -0.214121
     18 C                    -0.128781
     19 C                     0.022669
     20 C                    -0.142618
     21 C                    -0.143588
     22 C                     0.027012
     23 O                    -0.178583
     24 H                     0.087364
     25 H                     0.084870
     26 H                     0.112213
     27 H                     0.082524
     28 H                     0.073468
     29 H                     0.079854
     30 H                     0.072811
     31 H                     0.090317
     32 O                    -0.213628
     33 C                    -0.151854
     34 C                     0.023747
     35 C                    -0.143423
     36 C                    -0.144154
     37 C                     0.024819
     38 O                    -0.190726
     39 H                     0.082268
     40 H                     0.087666
     41 H                     0.085729
     42 H                     0.090713
     43 H                     0.077110
     44 H                     0.073430
     45 H                     0.077158
     46 H                     0.073548
     47 H                     0.080220
     48 H                     0.119275
     49 H                     0.068998
     50 H                     0.086884
     51 H                     0.087600
     52 H                     0.092358
     53 H                     0.085108
     54 H                     0.105922
     55 H                     0.090425
     56 H                     0.094020
  ----------------------------------------
  Sum of atomic charges =     0.000000

                    Cartesian Multipole Moments
 -----------------------------------------------------------------
    Charge (ESU x 10^10)
                -0.0000
    Dipole Moment (Debye)
         X       0.2183      Y      -1.8558      Z      -2.4105
       Tot       3.0500
    Quadrupole Moments (Debye-Ang)
        XX    -140.0366     XY       2.0510     YY    -160.2643
        XZ       0.3952     YZ       2.8014     ZZ    -154.0582

 Total job time:  159.32s(wall), 7605.40s(cpu)
        *  Thank you very much for using Q-Chem.  Have a nice day.  *
