 Q-Chem 5.0, Q-Chem, Inc., Pleasanton, CA (2017)
 Q-Chem 5.0.1 for Intel X86 EM64T Linux

User input:
--------------------------------------------------------------
$molecule
0  1
O -3.94934 -3.66094 2.70899
C -3.26408 -4.56952 2.26188
C -3.36658 -6.02376 2.66595
C -3.46297 -6.33012 4.16951
C -3.62515 -5.14151 5.09093
O -3.44823 -5.53212 6.38768
C -3.53369 -4.44827 7.31892
C -2.17023 -3.7837 7.47856
O -2.26853 -2.67771 8.38961
C -3.1277 -1.69465 8.02278
C -2.57419 -0.31004 8.26181
C -3.14368 0.782 7.34453
C -4.40697 0.41884 6.59025
O -5.52779 0.35468 7.07421
O -2.26759 -4.26433 1.38982
O -4.26944 0.27205 5.24616
O -4.3352 -1.86936 8.07915
C -5.30194 -0.0436 4.38819
C -2.92631 0.28346 9.64257
C -1.88908 1.33971 10.02145
C -2.23099 2.43983 9.03418
C -3.49414 1.85086 8.39312
O -4.06852 1.07455 9.41808
H -1.46436 -0.37712 8.18
H -2.38536 1.10619 6.59697
H -3.0099 -0.48447 10.44235
H -2.14988 1.68863 11.04661
H -0.82907 1.00643 10.01074
H -2.46334 3.36489 9.6068
H -1.45348 2.64818 8.26746
H -4.13542 2.65571 7.97039
O -3.56269 -3.95456 4.85073
C -1.99803 -2.99099 0.93347
C -4.71369 -6.6126 2.19527
C -4.61506 -8.13438 2.09394
C -4.58245 -8.51196 3.55948
C -4.77216 -7.13479 4.20328
O -5.58061 -6.43808 3.28864
H -2.54605 -6.58272 2.16079
H -2.58214 -6.91264 4.52258
H -1.73874 -2.3259 1.78493
H -5.0596 -6.18921 1.22622
H -5.57335 -8.49691 1.65729
H -3.76773 -8.51593 1.48464
H -5.45752 -9.16512 3.77379
H -3.64688 -9.00384 3.90353
H -5.18144 -7.24282 5.23224
H -2.87953 -2.58366 0.39355
H -1.1373 -3.02939 0.2348
H -4.90874 -0.10379 3.35262
H -6.0877 0.74074 4.42835
H -5.73794 -1.02827 4.66229
H -1.4365 -4.52068 7.86834
H -1.7925 -3.41002 6.50271
H -3.80201 -4.86976 8.31099
H -4.39655 -3.81715 7.03706
$end

$opt
CONSTRAINT
tors           1           2           3           4     -45.424
tors           3           4           5           6    -168.819
tors           4           5           6           7    +177.640
tors           5           6           7           8     -87.010
tors           6           7           8           9    +178.651
tors           7           8           9          10     -59.928
tors           8           9          10          11    -137.578
tors           9          10          11          12    +153.554
tors          11          12          13          14     +75.258
ENDCONSTRAINT
$end

$rem
JOBTYPE                   OPT
METHOD                    B3LYP
DFT_D                     d3_op
BASIS                     STO-3G
GEOM_OPT_MAX_CYCLES       100
GEOM_OPT_TOL_GRADIENT     300
GEOM_OPT_TOL_DISPLACEMENT 1200
GEOM_OPT_TOL_ENERGY       100
SYMMETRY                  False
THRESH                    12
SCF_CONVERGENCE           8
MAX_SUB_FILE_NUM          128
MEM_STATIC                400
MEM_TOTAL                 4000
$end
--------------------------------------------------------------

   16   -1510.1045298361      2.79E-09 Convergence criterion met
 Total energy in the final basis set = -1510.10452984
   14   -1510.1800381225      3.75E-09 Convergence criterion met
 Total energy in the final basis set = -1510.18003812
   14   -1510.2207247875      2.33E-09 Convergence criterion met
 Total energy in the final basis set = -1510.22072479
   14   -1510.2443065731      7.12E-09 Convergence criterion met
 Total energy in the final basis set = -1510.24430657
   14   -1510.2544340800      4.33E-09 Convergence criterion met
 Total energy in the final basis set = -1510.25443408
   14   -1510.2594839150      4.00E-09 Convergence criterion met
 Total energy in the final basis set = -1510.25948392
   14   -1510.2622946904      3.81E-09 Convergence criterion met
 Total energy in the final basis set = -1510.26229469
   14   -1510.2637823183      2.63E-09 Convergence criterion met
   11   -1510.2665782444      8.70E-09 Convergence criterion met
 Total energy in the final basis set = -1510.26657824
   11   -1510.2666319901      4.92E-09 Convergence criterion met
 Total energy in the final basis set = -1510.26663199
   12   -1510.2666969322      3.58E-09 Convergence criterion met
 Total energy in the final basis set = -1510.26669693
   11   -1510.2667331437      7.68E-09 Convergence criterion met
 Total energy in the final basis set = -1510.26673314
   11   -1510.2667475897      5.95E-09 Convergence criterion met
 Total energy in the final basis set = -1510.26674759
    9   -1510.2667494489      8.40E-09 Convergence criterion met
 Total energy in the final basis set = -1510.26674945

             Standard Nuclear Orientation (Angstroms)
    I     Atom           X                Y                Z
 ----------------------------------------------------------------
    1      O      -3.0319421871     1.9708253413     0.9175171589
    2      C      -3.5038595377     1.7135069711    -0.2090091129
    3      C      -4.2797847772     0.4288294143    -0.6781184743
    4      C      -3.6465567624    -0.9491017067    -0.2324987444
    5      C      -2.1207477562    -0.9317084564     0.1183683973
    6      O      -1.6950929565    -2.3015422427     0.2342817848
    7      C      -0.2392703273    -2.3402930759     0.5106601842
    8      C       0.5644845452    -2.3145039830    -0.8484250628
    9      O       2.0432225049    -2.3177221391    -0.7127506267
   10      C       2.5068622316    -1.1664127687     0.0297395184
   11      C       3.7827719897    -0.5948124358    -0.6821189406
   12      C       4.0328365589     0.9538313346    -0.4454330966
   13      C       3.2090421648     1.5600542958     0.7521283528
   14      O       3.4195821231     1.4246115629     1.9754045692
   15      O      -3.4293210591     2.6070790578    -1.3305074979
   16      O       2.0791692531     2.2442488025     0.1926025273
   17      O       1.9221452453    -0.6729303894     1.0197408628
   18      C       1.1375768728     2.6301779083     1.2688817365
   19      C       5.1699075652    -1.2145936262    -0.1944618317
   20      C       6.2005940779    -1.0280867382    -1.3751857820
   21      C       6.4331632904     0.5276068043    -1.3176848341
   22      C       5.5712479051     0.9265406172    -0.0539842206
   23      O       5.6527740652    -0.2634081426     0.8273864712
   24      H       3.6470567121    -0.7983632999    -1.7591578635
   25      H       3.8255091584     1.5371597312    -1.3595411707
   26      H       5.1012315974    -2.2385008895     0.2217103550
   27      H       7.1293419443    -1.5817027402    -1.1626962528
   28      H       5.7977024481    -1.3672925566    -2.3428277359
   29      H       7.4945548997     0.7741873433    -1.1572925513
   30      H       6.0862021643     1.0406472078    -2.2290674812
   31      H       5.9183027606     1.8271111410     0.4880407662
   32      O      -1.3400653857     0.0395119518     0.2068652092
   33      C      -2.7010733158     3.8365797270    -0.9436680980
   34      C      -5.6406984385     0.3731526575     0.1483467779
   35      C      -6.5595781066    -0.7931215377    -0.3965592279
   36      C      -5.8887677054    -2.0537556459     0.2658162048
   37      C      -4.6301926506    -1.3888614708     0.9464249119
   38      O      -5.1751318980    -0.1160204518     1.4673467618
   39      H      -4.4397669010     0.4832901205    -1.7686712712
   40      H      -3.7461470331    -1.6743339466    -1.0612422251
   41      H      -1.6556005031     3.6122588910    -0.6472988434
   42      H      -6.1453486997     1.3527448304     0.2567673122
   43      H      -7.5980785008    -0.6582954156    -0.0553109433
   44      H      -6.5541809824    -0.8394316297    -1.4975320305
   45      H      -6.5440574555    -2.5019066624     1.0299762957
   46      H      -5.6140381615    -2.8302002434    -0.4659123922
   47      H      -4.1549278326    -1.9766377857     1.7554221271
   48      H      -3.1983456422     4.3610703146    -0.1021867126
   49      H      -2.6998472274     4.4874431389    -1.8372652294
   50      H       0.2619307261     3.0802311676     0.7655402176
   51      H       1.5868078320     3.3679211683     1.9650338729
   52      H       0.8114802784     1.7430546234     1.8489770749
   53      H       0.3282553758    -3.2163142537    -1.4494924892
   54      H       0.2463367694    -1.4156598006    -1.4229269461
   55      H      -0.0479864272    -3.2879823288     1.0521537550
   56      H       0.0988993976    -1.4755197738     1.1196605273
 ----------------------------------------------------------------

    9   -1510.2667490726      8.17E-09 Convergence criterion met
 Total energy in the final basis set = -1510.26674907
 Final energy is   -1510.26674907257
 **  OPTIMIZATION CONVERGED  **

                    Orbital Energies (a.u.)
 --------------------------------------------------------------

 Alpha MOs
 -- Occupied --
-18.932 -18.928 -18.927 -18.918 -18.898 -18.890 -18.888 -18.880
-18.869 -18.861 -10.110 -10.101 -10.092 -10.087 -10.074 -10.062
-10.062 -10.061 -10.060 -10.060 -10.058 -10.048 -10.040 -10.039
-10.037 -10.034 -10.022 -10.021 -10.021 -10.019  -1.017  -1.012
 -1.003  -0.995  -0.972  -0.970  -0.945  -0.938  -0.927  -0.921
 -0.764  -0.762  -0.726  -0.722  -0.714  -0.705  -0.693  -0.660
 -0.650  -0.618  -0.595  -0.582  -0.546  -0.545  -0.539  -0.537
 -0.514  -0.511  -0.478  -0.468  -0.463  -0.453  -0.450  -0.448
 -0.437  -0.432  -0.428  -0.410  -0.408  -0.402  -0.397  -0.393
 -0.391  -0.383  -0.372  -0.366  -0.360  -0.356  -0.350  -0.346
 -0.343  -0.334  -0.332  -0.331  -0.328  -0.327  -0.323  -0.315
 -0.314  -0.306  -0.305  -0.300  -0.298  -0.289  -0.279  -0.275
 -0.272  -0.260  -0.250  -0.243  -0.241  -0.235  -0.233  -0.191
 -0.174  -0.168  -0.165  -0.156  -0.154  -0.146  -0.144  -0.141
 -0.137

          Ground-State Mulliken Net Atomic Charges

     Atom                 Charge (a.u.)
  ----------------------------------------
      1 O                    -0.204414
      2 C                     0.211855
      3 C                    -0.079651
      4 C                    -0.079903
      5 C                     0.207901
      6 O                    -0.176140
      7 C                    -0.064593
      8 C                    -0.051359
      9 O                    -0.180197
     10 C                     0.216488
     11 C                    -0.079892
     12 C                    -0.079920
     13 C                     0.211693
     14 O                    -0.206469
     15 O                    -0.173244
     16 O                    -0.175421
     17 O                    -0.191135
     18 C                    -0.127787
     19 C                     0.026614
     20 C                    -0.142323
     21 C                    -0.145307
     22 C                     0.026061
     23 O                    -0.183628
     24 H                     0.085498
     25 H                     0.084508
     26 H                     0.084885
     27 H                     0.078323
     28 H                     0.073712
     29 H                     0.078149
     30 H                     0.073201
     31 H                     0.085147
     32 O                    -0.207059
     33 C                    -0.128495
     34 C                     0.025820
     35 C                    -0.145365
     36 C                    -0.141864
     37 C                     0.027100
     38 O                    -0.185318
     39 H                     0.085754
     40 H                     0.084814
     41 H                     0.088004
     42 H                     0.082530
     43 H                     0.078505
     44 H                     0.073697
     45 H                     0.078564
     46 H                     0.074098
     47 H                     0.087456
     48 H                     0.087991
     49 H                     0.088297
     50 H                     0.087371
     51 H                     0.084557
     52 H                     0.099048
     53 H                     0.087926
     54 H                     0.081493
     55 H                     0.085244
     56 H                     0.117181
  ----------------------------------------
  Sum of atomic charges =    -0.000000

                    Cartesian Multipole Moments
 -----------------------------------------------------------------
    Charge (ESU x 10^10)
                -0.0000
    Dipole Moment (Debye)
         X      -1.2028      Y      -0.8732      Z      -4.5743
       Tot       4.8097
    Quadrupole Moments (Debye-Ang)
        XX    -148.7075     XY       3.2271     YY    -150.2529
        XZ      -5.2797     YZ      -1.9507     ZZ    -166.0208

 Total job time:  72.72s(wall), 3464.11s(cpu)
        *  Thank you very much for using Q-Chem.  Have a nice day.  *
