 Q-Chem 5.0, Q-Chem, Inc., Pleasanton, CA (2017)
 Q-Chem 5.0.1 for Intel X86 EM64T Linux

User input:
--------------------------------------------------------------
$molecule
0  1
O 3.967767672 -0.914271478 -2.5884645755
C 3.7718095998 0.0524455627 -1.8232292655
C 4.7360851824 0.5993548789 -0.7064716519
C 4.1972731415 0.3863507923 0.7688142839
C 2.8365115966 -0.3793767832 0.802431111
O 2.1339812155 -0.0285928731 2.0005271477
C 0.824454808 -0.727492027 2.0416750045
C -0.2429340654 0.0990194151 1.2427290548
O -1.4898716785 -0.7055303739 1.2205849998
C -2.4958042131 -0.0053813078 0.4762482758
C -3.8020655441 -0.8755074242 0.4727447814
C -5.1138679404 -0.012830601 0.3028421627
C -5.003916897 1.5037781798 0.6845871048
O -5.7085561631 2.4359175454 0.2397539101
O 2.6255249627 0.9153856348 -1.8727513026
O -4.1183140259 1.6288560767 1.8067386626
O -2.2923445934 1.068410436 -0.1297115329
C -3.9951112412 3.0456005884 2.2158970043
C -3.8354105037 -1.6807003571 -0.902126139
C -5.0753414787 -2.6626353266 -0.9197984333
C -6.2530130871 -1.6731662213 -1.2568417826
C -5.492508173 -0.2920849471 -1.2143793101
O -4.2008134031 -0.6145871465 -1.8649751673
H -3.822972482 -1.5288929807 1.361598194
H -5.9039159389 -0.4257059063 0.9592969829
H -2.868263962 -2.1421345713 -1.1819864644
H -4.9508869386 -3.4286744024 -1.7012697342
H -5.2108838493 -3.1676672815 0.0501970545
H -6.6545738432 -1.8574120476 -2.2661926725
H -7.0795209835 -1.7240654627 -0.5301050707
H -5.9922431962 0.5550850431 -1.7235386784
O 2.4080208774 -1.1933181974 -0.046296523
C 1.6348517997 0.3833403377 -2.8345905776
C 6.084393741 -0.2306718796 -0.6624273222
C 7.1554969613 0.602435305 0.1432593625
C 6.624840299 0.4318994448 1.6156269946
C 5.3694611803 -0.4998867671 1.3832608786
O 5.7695604977 -1.3579386245 0.2479509874
H 4.91859538 1.6718850286 -0.8995788107
H 4.0812662355 1.3398623687 1.3132793636
H 1.255590139 -0.6077277326 -2.5102927307
H 6.4086156705 -0.6144780297 -1.6491344144
H 8.1578005364 0.1612836936 0.0228002829
H 7.1913553327 1.6556870024 -0.177888349
H 7.3642636558 -0.0726289014 2.2576491893
H 6.3468253217 1.3903535797 2.0824049401
H 5.0709940811 -1.1153053474 2.2542791115
H 2.0630937339 0.2817127735 -3.8525634054
H 0.8017563362 1.1103135997 -2.8527568994
H -2.996440248 3.4281354238 1.9232747293
H -4.1018906367 3.0986659152 3.316327616
H -4.7837925725 3.6466427038 1.7199167123
H -0.4157731916 1.0841225249 1.7274811556
H 0.123356278 0.2841439092 0.2088441566
H 0.5418874724 -0.8011718378 3.1105552431
H 0.9079685759 -1.7434503933 1.6007759374
$end

$rem
JOBTYPE                   OPT
METHOD                    B3LYP
DFT_D                     d3_op
BASIS                     STO-3G
GEOM_OPT_MAX_CYCLES       100
GEOM_OPT_TOL_GRADIENT     300
GEOM_OPT_TOL_DISPLACEMENT 1200
GEOM_OPT_TOL_ENERGY       100
SYMMETRY                  False
THRESH                    12
SCF_CONVERGENCE           8
MAX_SUB_FILE_NUM          128
MEM_STATIC                400
MEM_TOTAL                 4000
$end
--------------------------------------------------------------

   16   -1510.2820932152      6.12E-09 Convergence criterion met
 Total energy in the final basis set = -1510.28209322
   13   -1510.2835919686      3.09E-09 Convergence criterion met
 Total energy in the final basis set = -1510.28359197
   13   -1510.2846249872      2.13E-09 Convergence criterion met
 Total energy in the final basis set = -1510.28462499
   13   -1510.2854268926      3.67E-09 Convergence criterion met
 Total energy in the final basis set = -1510.28542689
   13   -1510.2859322208      3.37E-09 Convergence criterion met
 Total energy in the final basis set = -1510.28593222
   13   -1510.2863460160      3.52E-09 Convergence criterion met
 Total energy in the final basis set = -1510.28634602
   13   -1510.2869239815      5.68E-09 Convergence criterion met
 Total energy in the final basis set = -1510.28692398
   14   -1510.2869795308      2.69E-09 Convergence criterion met
   12   -1510.2914488660      2.78E-09 Convergence criterion met
 Total energy in the final basis set = -1510.29144887
   11   -1510.2914613113      8.37E-09 Convergence criterion met
 Total energy in the final basis set = -1510.29146131
   10   -1510.2914644803      7.21E-09 Convergence criterion met
 Total energy in the final basis set = -1510.29146448
   12   -1510.2914656721      2.12E-09 Convergence criterion met
 Total energy in the final basis set = -1510.29146567
   11   -1510.2914669871      7.28E-09 Convergence criterion met
 Total energy in the final basis set = -1510.29146699
    9   -1510.2914599911      8.07E-09 Convergence criterion met
 Total energy in the final basis set = -1510.29145999

             Standard Nuclear Orientation (Angstroms)
    I     Atom           X                Y                Z
 ----------------------------------------------------------------
    1      O       3.3960709092    -2.2173950632    -1.5277712590
    2      C       3.2160346965    -1.0088034515    -1.2677494138
    3      C       4.3262452251     0.0736481754    -1.0110960400
    4      C       4.1204401971     0.9184231103     0.3172430354
    5      C       2.8265635716     0.5287013183     1.1047003807
    6      O       1.9777514436     1.6881561860     1.1584970263
    7      C       0.6898212599     1.3475821524     1.8091459060
    8      C      -0.4721644363     1.7108685491     0.8215423221
    9      O      -1.7471633392     1.1457132354     1.3312868137
   10      C      -2.2972742765     0.2176042668     0.3916476818
   11      C      -3.6443517961    -0.3319017552     0.9716682731
   12      C      -4.9119841588     0.0757149289     0.1058150049
   13      C      -4.5648148967     0.9554371185    -1.1455528764
   14      O      -4.9803038827     0.8113645255    -2.3143966442
   15      O       1.9325024786    -0.3850738405    -1.1691021389
   16      O      -3.6797159314     2.0012951819    -0.7196104513
   17      O      -1.7498328874    -0.1136912274    -0.6866489816
   18      C      -3.1926953992     2.7802216851    -1.8808315479
   19      C      -3.7187597900    -1.9169161939     0.8614453039
   20      C      -4.9033633324    -2.4282315699     1.7731352443
   21      C      -6.1537030979    -2.0222799387     0.9061667216
   22      C      -5.4543727178    -1.3455380355    -0.3355641867
   23      O      -4.2157997036    -2.1393877628    -0.5144662343
   24      H      -3.7386669899     0.0201371712     2.0135837867
   25      H      -5.6474140775     0.6229158730     0.7242345480
   26      H      -2.7505467148    -2.4329737109     1.0110654806
   27      H      -4.8400944049    -3.5202115717     1.9041243743
   28      H      -4.8997090339    -1.9530616619     2.7671275006
   29      H      -6.7287272067    -2.9068640252     0.5895640997
   30      H      -6.8303121004    -1.3295945681     1.4315514860
   31      H      -6.0411110730    -1.3259096996    -1.2746925994
   32      O       2.5511437708    -0.5666348962     1.6417329718
   33      C       0.8599355177    -1.3983055349    -1.3275655288
   34      C       5.7172659816    -0.6231474954    -0.7185153910
   35      C       6.8621193802     0.4529462816    -0.8607856706
   36      C       6.6590258973     1.2865551162     0.4599382219
   37      C       5.4385684492     0.5262773422     1.1163451396
   38      O       5.6629221594    -0.8861493745     0.7390512425
   39      H       4.3755210369     0.7405920610    -1.8917267377
   40      H       4.0755971201     2.0000572669     0.1011613113
   41      H       0.9963712720    -2.2335265915    -0.6118463714
   42      H       5.8655449168    -1.5691110649    -1.2753233015
   43      H       7.8499506928    -0.0339697187    -0.8829426895
   44      H       6.7475582593     1.0628686725    -1.7710768156
   45      H       7.5436368706     1.2294791836     1.1138096379
   46      H       6.4305370104     2.3464522587     0.2643093244
   47      H       5.3551810402     0.6251368598     2.2160277840
   48      H       0.8545147197    -1.8148226538    -2.3549228221
   49      H      -0.1022241271    -0.8768285456    -1.1255648238
   50      H      -2.1441151296     2.4928637776    -2.0996030863
   51      H      -3.2348941156     3.8539236007    -1.6170137911
   52      H      -3.8247869620     2.5709484413    -2.7668972173
   53      H      -0.5916664482     2.8113796974     0.7431949506
   54      H      -0.2654959501     1.2862325548    -0.1839867374
   55      H       0.5965453352     1.9239674542     2.7534098855
   56      H       0.6901018786     0.2593067554     2.0411258977
 ----------------------------------------------------------------

    9   -1510.2914606780      1.66E-09 Convergence criterion met
 Total energy in the final basis set = -1510.29146068
 Final energy is   -1510.29146067798
 **  OPTIMIZATION CONVERGED  **

                    Orbital Energies (a.u.)
 --------------------------------------------------------------

 Alpha MOs
 -- Occupied --
-18.942 -18.940 -18.929 -18.925 -18.891 -18.888 -18.885 -18.881
-18.872 -18.869 -10.110 -10.108 -10.098 -10.092 -10.069 -10.066
-10.065 -10.064 -10.062 -10.058 -10.054 -10.045 -10.043 -10.039
-10.036 -10.034 -10.024 -10.023 -10.019 -10.017  -1.023  -1.014
 -1.010  -1.001  -0.974  -0.967  -0.946  -0.943  -0.933  -0.928
 -0.769  -0.761  -0.729  -0.723  -0.714  -0.705  -0.696  -0.666
 -0.648  -0.619  -0.598  -0.579  -0.550  -0.542  -0.541  -0.535
 -0.515  -0.507  -0.484  -0.473  -0.467  -0.459  -0.457  -0.448
 -0.439  -0.432  -0.428  -0.420  -0.418  -0.407  -0.400  -0.399
 -0.396  -0.382  -0.381  -0.364  -0.362  -0.359  -0.355  -0.353
 -0.348  -0.337  -0.335  -0.332  -0.329  -0.325  -0.323  -0.314
 -0.309  -0.308  -0.304  -0.301  -0.292  -0.290  -0.281  -0.276
 -0.269  -0.255  -0.255  -0.246  -0.243  -0.238  -0.231  -0.187
 -0.181  -0.170  -0.169  -0.166  -0.161  -0.156  -0.148  -0.146
 -0.141

          Ground-State Mulliken Net Atomic Charges

     Atom                 Charge (a.u.)
  ----------------------------------------
      1 O                    -0.209758
      2 C                     0.211581
      3 C                    -0.078600
      4 C                    -0.079069
      5 C                     0.214694
      6 O                    -0.174035
      7 C                    -0.056131
      8 C                    -0.055523
      9 O                    -0.168537
     10 C                     0.222058
     11 C                    -0.078265
     12 C                    -0.077724
     13 C                     0.216118
     14 O                    -0.205961
     15 O                    -0.177270
     16 O                    -0.172188
     17 O                    -0.222391
     18 C                    -0.135083
     19 C                     0.025856
     20 C                    -0.143779
     21 C                    -0.143938
     22 C                     0.024305
     23 O                    -0.186131
     24 H                     0.088187
     25 H                     0.086989
     26 H                     0.084943
     27 H                     0.079642
     28 H                     0.074212
     29 H                     0.079500
     30 H                     0.073551
     31 H                     0.091695
     32 O                    -0.215702
     33 C                    -0.144955
     34 C                     0.024238
     35 C                    -0.144266
     36 C                    -0.143807
     37 C                     0.025700
     38 O                    -0.186679
     39 H                     0.083836
     40 H                     0.085786
     41 H                     0.085785
     42 H                     0.091397
     43 H                     0.078101
     44 H                     0.072794
     45 H                     0.077788
     46 H                     0.072931
     47 H                     0.082825
     48 H                     0.082455
     49 H                     0.109941
     50 H                     0.088888
     51 H                     0.088083
     52 H                     0.103065
     53 H                     0.085739
     54 H                     0.102960
     55 H                     0.082996
     56 H                     0.101152
  ----------------------------------------
  Sum of atomic charges =     0.000000

                    Cartesian Multipole Moments
 -----------------------------------------------------------------
    Charge (ESU x 10^10)
                 0.0000
    Dipole Moment (Debye)
         X      -1.4905      Y       3.6419      Z       1.3520
       Tot       4.1609
    Quadrupole Moments (Debye-Ang)
        XX    -147.0934     XY      11.4512     YY    -160.8390
        XZ     -13.6029     YZ      -4.0695     ZZ    -160.9996

 Total job time:  107.62s(wall), 5126.03s(cpu)
        *  Thank you very much for using Q-Chem.  Have a nice day.  *
