 Q-Chem 5.0, Q-Chem, Inc., Pleasanton, CA (2017)
 Q-Chem 5.0.1 for Intel X86 EM64T Linux

User input:
--------------------------------------------------------------
$molecule
0  1
O -3.94934 -3.66094 2.70899
C -3.26408 -4.56952 2.26188
C -3.36658 -6.02376 2.66595
C -2.18121 -6.62309 3.44025
C -1.10406 -5.65595 3.87899
O 0.08311 -6.31639 4.01998
C 1.16083 -5.45988 4.41262
C 1.77912 -4.79708 3.18603
O 2.78308 -3.85409 3.59312
C 3.39139 -3.17901 2.58646
C 4.43774 -2.20721 3.07782
C 5.55878 -1.90077 2.07401
C 5.29138 -2.31005 0.63954
O 5.79712 -1.79922 -0.34932
O -2.29887 -4.27798 1.35102
O 4.97027 -3.62775 0.48798
O 2.79956 -2.99622 1.52711
C 4.80899 -4.31032 -0.70523
C 3.87674 -0.79188 3.32058
C 4.76432 -0.05638 4.32239
C 6.00807 0.16445 3.48569
C 5.52152 -0.35983 2.12842
O 4.14025 -0.09352 2.12975
H 4.83813 -2.59952 4.04116
H 6.54144 -2.32991 2.36876
H 2.81955 -0.79102 3.66594
H 4.28291 0.92997 4.51225
H 4.93128 -0.57239 5.29228
H 6.21258 1.25732 3.44481
H 6.91373 -0.38303 3.82598
H 6.10518 0.11136 1.30726
O -1.34037 -4.55007 4.35422
C -2.02339 -3.00832 0.8892
C -4.50541 -6.25607 3.68187
C -4.9257 -7.72666 3.67991
C -3.75439 -8.35296 4.40297
C -2.91803 -7.10763 4.70567
O -3.88008 -6.10741 4.93024
H -3.59057 -6.58897 1.73388
H -1.70573 -7.48417 2.91702
H -1.71636 -2.35348 1.73265
H -5.39494 -5.61422 3.49878
H -5.83062 -7.8282 4.32075
H -5.13865 -8.13917 2.67021
H -4.12354 -8.78947 5.35806
H -3.19445 -9.12237 3.82878
H -2.2231 -7.31233 5.55062
H -2.91731 -2.58115 0.3865
H -1.19142 -3.06038 0.15731
H 3.78689 -4.74064 -0.73919
H 5.54583 -5.13816 -0.75394
H 4.94023 -3.65924 -1.5955
H 2.2081 -5.57307 2.51308
H 0.96858 -4.25432 2.64934
H 1.94922 -6.08116 4.88781
H 0.85819 -4.71339 5.1819
$end

$opt
CONSTRAINT
tors           1           2           3           4    -112.120
tors           3           4           5           6    -154.390
tors           4           5           6           7    +178.989
tors           5           6           7           8     -84.924
tors           6           7           8           9    +175.136
tors           7           8           9          10    -178.851
tors           8           9          10          11    -179.839
tors           9          10          11          12    +153.554
tors          11          12          13          14    +154.408
ENDCONSTRAINT
$end

$rem
JOBTYPE                   OPT
METHOD                    B3LYP
DFT_D                     d3_op
BASIS                     STO-3G
GEOM_OPT_MAX_CYCLES       100
GEOM_OPT_TOL_GRADIENT     300
GEOM_OPT_TOL_DISPLACEMENT 1200
GEOM_OPT_TOL_ENERGY       100
SYMMETRY                  False
THRESH                    12
SCF_CONVERGENCE           8
MAX_SUB_FILE_NUM          128
MEM_STATIC                400
MEM_TOTAL                 4000
$end
--------------------------------------------------------------

   15   -1510.1323476240      7.15E-09 Convergence criterion met
 Total energy in the final basis set = -1510.13234762
   14   -1510.2035494051      5.89E-09 Convergence criterion met
 Total energy in the final basis set = -1510.20354941
   14   -1510.2430472158      3.73E-09 Convergence criterion met
 Total energy in the final basis set = -1510.24304722
   14   -1510.2626573517      4.25E-09 Convergence criterion met
 Total energy in the final basis set = -1510.26265735
    2   -1510.2626573517      4.55E-09 Convergence criterion met
 Total energy in the final basis set = -1510.26265735
   13   -1510.2709701722      7.88E-09 Convergence criterion met
 Total energy in the final basis set = -1510.27097017
    2   -1510.2709701721      8.59E-09 Convergence criterion met
 Total energy in the final basis set = -1510.27097017
   13   -1510.2746429936      5.49E-09 Convergence criterion met
    9   -1510.2821354359      8.39E-09 Convergence criterion met
 Total energy in the final basis set = -1510.28213544
    9   -1510.2821370957      2.55E-09 Convergence criterion met
 Total energy in the final basis set = -1510.28213710
    9   -1510.2821381322      2.50E-09 Convergence criterion met
 Total energy in the final basis set = -1510.28213813
    9   -1510.2821395189      3.38E-09 Convergence criterion met
 Total energy in the final basis set = -1510.28213952
    9   -1510.2821409744      2.56E-09 Convergence criterion met
 Total energy in the final basis set = -1510.28214097
    9   -1510.2821424063      1.66E-09 Convergence criterion met
 Total energy in the final basis set = -1510.28214241

             Standard Nuclear Orientation (Angstroms)
    I     Atom           X                Y                Z
 ----------------------------------------------------------------
    1      O       3.9677676720    -0.9142714780    -2.5884645755
    2      C       3.7718095998     0.0524455627    -1.8232292655
    3      C       4.7360851824     0.5993548789    -0.7064716519
    4      C       4.1972731415     0.3863507923     0.7688142839
    5      C       2.8365115966    -0.3793767832     0.8024311110
    6      O       2.1339812155    -0.0285928731     2.0005271477
    7      C       0.8244548080    -0.7274920270     2.0416750045
    8      C      -0.2429340654     0.0990194151     1.2427290548
    9      O      -1.4898716785    -0.7055303739     1.2205849998
   10      C      -2.4958042131    -0.0053813078     0.4762482758
   11      C      -3.8020655441    -0.8755074242     0.4727447814
   12      C      -5.1138679404    -0.0128306010     0.3028421627
   13      C      -5.0039168970     1.5037781798     0.6845871048
   14      O      -5.7085561631     2.4359175454     0.2397539101
   15      O       2.6255249627     0.9153856348    -1.8727513026
   16      O      -4.1183140259     1.6288560767     1.8067386626
   17      O      -2.2923445934     1.0684104360    -0.1297115329
   18      C      -3.9951112412     3.0456005884     2.2158970043
   19      C      -3.8354105037    -1.6807003571    -0.9021261390
   20      C      -5.0753414787    -2.6626353266    -0.9197984333
   21      C      -6.2530130871    -1.6731662213    -1.2568417826
   22      C      -5.4925081730    -0.2920849471    -1.2143793101
   23      O      -4.2008134031    -0.6145871465    -1.8649751673
   24      H      -3.8229724820    -1.5288929807     1.3615981940
   25      H      -5.9039159389    -0.4257059063     0.9592969829
   26      H      -2.8682639620    -2.1421345713    -1.1819864644
   27      H      -4.9508869386    -3.4286744024    -1.7012697342
   28      H      -5.2108838493    -3.1676672815     0.0501970545
   29      H      -6.6545738432    -1.8574120476    -2.2661926725
   30      H      -7.0795209835    -1.7240654627    -0.5301050707
   31      H      -5.9922431962     0.5550850431    -1.7235386784
   32      O       2.4080208774    -1.1933181974    -0.0462965230
   33      C       1.6348517997     0.3833403377    -2.8345905776
   34      C       6.0843937410    -0.2306718796    -0.6624273222
   35      C       7.1554969613     0.6024353050     0.1432593625
   36      C       6.6248402990     0.4318994448     1.6156269946
   37      C       5.3694611803    -0.4998867671     1.3832608786
   38      O       5.7695604977    -1.3579386245     0.2479509874
   39      H       4.9185953800     1.6718850286    -0.8995788107
   40      H       4.0812662355     1.3398623687     1.3132793636
   41      H       1.2555901390    -0.6077277326    -2.5102927307
   42      H       6.4086156705    -0.6144780297    -1.6491344144
   43      H       8.1578005364     0.1612836936     0.0228002829
   44      H       7.1913553327     1.6556870024    -0.1778883490
   45      H       7.3642636558    -0.0726289014     2.2576491893
   46      H       6.3468253217     1.3903535797     2.0824049401
   47      H       5.0709940811    -1.1153053474     2.2542791115
   48      H       2.0630937339     0.2817127735    -3.8525634054
   49      H       0.8017563362     1.1103135997    -2.8527568994
   50      H      -2.9964402480     3.4281354238     1.9232747293
   51      H      -4.1018906367     3.0986659152     3.3163276160
   52      H      -4.7837925725     3.6466427038     1.7199167123
   53      H      -0.4157731916     1.0841225249     1.7274811556
   54      H       0.1233562780     0.2841439092     0.2088441566
   55      H       0.5418874724    -0.8011718378     3.1105552431
   56      H       0.9079685759    -1.7434503933     1.6007759374
 ----------------------------------------------------------------

    9   -1510.2821425132      2.27E-09 Convergence criterion met
 Total energy in the final basis set = -1510.28214251
 Final energy is   -1510.28214251317
 **  OPTIMIZATION CONVERGED  **

                    Orbital Energies (a.u.)
 --------------------------------------------------------------

 Alpha MOs
 -- Occupied --
-18.942 -18.933 -18.932 -18.921 -18.888 -18.888 -18.883 -18.876
-18.872 -18.865 -10.106 -10.101 -10.099 -10.091 -10.077 -10.073
-10.063 -10.061 -10.059 -10.058 -10.057 -10.054 -10.041 -10.039
-10.038 -10.034 -10.022 -10.021 -10.020 -10.019  -1.021  -1.014
 -1.007  -0.999  -0.971  -0.970  -0.944  -0.937  -0.932  -0.926
 -0.765  -0.763  -0.729  -0.723  -0.714  -0.706  -0.697  -0.659
 -0.655  -0.619  -0.597  -0.581  -0.546  -0.545  -0.538  -0.537
 -0.515  -0.509  -0.485  -0.472  -0.460  -0.458  -0.453  -0.451
 -0.439  -0.432  -0.430  -0.413  -0.409  -0.407  -0.404  -0.400
 -0.394  -0.380  -0.376  -0.367  -0.360  -0.357  -0.352  -0.348
 -0.345  -0.341  -0.340  -0.333  -0.331  -0.326  -0.324  -0.313
 -0.311  -0.305  -0.304  -0.298  -0.293  -0.289  -0.279  -0.274
 -0.272  -0.258  -0.253  -0.247  -0.246  -0.234  -0.234  -0.185
 -0.180  -0.169  -0.167  -0.160  -0.159  -0.151  -0.145  -0.144
 -0.143

          Ground-State Mulliken Net Atomic Charges

     Atom                 Charge (a.u.)
  ----------------------------------------
      1 O                    -0.211104
      2 C                     0.214962
      3 C                    -0.080217
      4 C                    -0.078513
      5 C                     0.212733
      6 O                    -0.170886
      7 C                    -0.049703
      8 C                    -0.048899
      9 O                    -0.174944
     10 C                     0.216252
     11 C                    -0.076757
     12 C                    -0.078814
     13 C                     0.216624
     14 O                    -0.214057
     15 O                    -0.178290
     16 O                    -0.173614
     17 O                    -0.213203
     18 C                    -0.135095
     19 C                     0.024630
     20 C                    -0.144954
     21 C                    -0.142161
     22 C                     0.024905
     23 O                    -0.188426
     24 H                     0.087184
     25 H                     0.084533
     26 H                     0.083337
     27 H                     0.078872
     28 H                     0.073774
     29 H                     0.078673
     30 H                     0.073424
     31 H                     0.090943
     32 O                    -0.209636
     33 C                    -0.129952
     34 C                     0.024978
     35 C                    -0.143988
     36 C                    -0.143602
     37 C                     0.025747
     38 O                    -0.187343
     39 H                     0.084076
     40 H                     0.087223
     41 H                     0.091203
     42 H                     0.090562
     43 H                     0.078316
     44 H                     0.073468
     45 H                     0.078326
     46 H                     0.073774
     47 H                     0.082887
     48 H                     0.088008
     49 H                     0.090052
     50 H                     0.086641
     51 H                     0.085163
     52 H                     0.101984
     53 H                     0.087486
     54 H                     0.092328
     55 H                     0.091485
     56 H                     0.099608
  ----------------------------------------
  Sum of atomic charges =    -0.000000

                    Cartesian Multipole Moments
 -----------------------------------------------------------------
    Charge (ESU x 10^10)
                 0.0000
    Dipole Moment (Debye)
         X      -0.3321      Y       0.5551      Z       3.1023
       Tot       3.1690
    Quadrupole Moments (Debye-Ang)
        XX    -150.3894     XY      21.4754     YY    -161.5506
        XZ       0.4672     YZ       0.4314     ZZ    -157.7316

 Total job time:  72.85s(wall), 3462.35s(cpu)
        *  Thank you very much for using Q-Chem.  Have a nice day.  *
