 Q-Chem 5.0, Q-Chem, Inc., Pleasanton, CA (2017)
 Q-Chem 5.0.1 for Intel X86 EM64T Linux

User input:
--------------------------------------------------------------
$molecule
0  1
O -3.94934 -3.66094 2.70899
C -3.26408 -4.56952 2.26188
C -3.36658 -6.02376 2.66595
C -2.05964 -6.74391 3.03628
C -0.81946 -5.88328 3.13304
O -0.36499 -5.58185 1.88083
C 0.5206 -4.45735 1.85871
C -0.26196 -3.17732 1.58442
O 0.61138 -2.04073 1.67558
C 1.28771 -1.91732 2.84455
C 2.18462 -0.70284 2.88
C 2.90374 -0.46799 4.21641
C 2.91079 -1.63949 5.17778
O 3.48259 -1.6665 6.25801
O -2.77763 -4.41278 1.00334
O 2.89149 -2.88176 4.60506
O 0.70173 -2.27155 3.86515
C 3.08035 -4.08372 5.26139
C 3.38451 -0.80035 1.9188
C 3.88421 0.60397 1.58429
C 4.50231 1.00644 2.90861
C 4.34439 -0.30134 3.69366
O 4.43164 -1.30379 2.70956
H 1.5539 0.17098 2.59762
H 2.53354 0.42192 4.77076
H 3.15988 -1.36386 0.98695
H 4.69832 0.48697 0.83325
H 3.11835 1.30385 1.18618
H 5.57686 1.23871 2.73729
H 4.00515 1.85424 3.42796
H 5.09853 -0.35659 4.5098
O -0.27442 -5.55482 4.18179
C -3.17531 -3.39769 0.14961
C -4.16917 -6.20722 3.97213
C -4.71821 -7.63116 4.05734
C -3.45215 -8.40151 4.35511
C -2.44394 -7.25223 4.44438
O -3.19107 -6.18874 4.97945
H -3.90393 -6.54065 1.83878
H -1.81787 -7.60755 2.37697
H -2.95083 -2.40259 0.59033
H -5.0042 -5.48234 4.08745
H -5.38219 -7.68487 4.94979
H -5.28022 -7.96651 3.15921
H -3.56176 -8.88493 5.35168
H -3.16601 -9.16129 3.59607
H -1.56105 -7.57683 5.0384
H -4.26588 -3.47445 -0.04789
H -2.63722 -3.49794 -0.81537
H 2.99347 -4.91391 4.53108
H 2.30408 -4.21415 6.04522
H 4.09139 -4.1199 5.71999
H -0.66595 -3.21457 0.55912
H -1.07443 -3.05694 2.33081
H 1.24365 -4.59641 1.02714
H 1.16325 -4.42705 2.76276
$end

$opt
CONSTRAINT
tors           1           2           3           4    -130.585
tors           3           4           5           6     -76.760
tors           4           5           6           7    +161.394
tors           5           6           7           8     -92.909
tors           6           7           8           9    +175.136
tors           7           8           9          10     -55.477
tors           8           9          10          11    -179.839
tors           9          10          11          12    +176.232
tors          11          12          13          14    +176.402
ENDCONSTRAINT
$end

$rem
JOBTYPE                   OPT
METHOD                    B3LYP
DFT_D                     d3_op
BASIS                     STO-3G
GEOM_OPT_MAX_CYCLES       100
GEOM_OPT_TOL_GRADIENT     300
GEOM_OPT_TOL_DISPLACEMENT 1200
GEOM_OPT_TOL_ENERGY       100
SYMMETRY                  False
THRESH                    12
SCF_CONVERGENCE           8
MAX_SUB_FILE_NUM          128
MEM_STATIC                400
MEM_TOTAL                 4000
$end
--------------------------------------------------------------

   15   -1510.1002789976      8.17E-09 Convergence criterion met
 Total energy in the final basis set = -1510.10027900
   14   -1510.1751675412      7.60E-09 Convergence criterion met
 Total energy in the final basis set = -1510.17516754
   14   -1510.2135960151      9.81E-09 Convergence criterion met
 Total energy in the final basis set = -1510.21359602
   15   -1510.2355727254      1.74E-09 Convergence criterion met
 Total energy in the final basis set = -1510.23557273
   14   -1510.2466788369      5.14E-09 Convergence criterion met
 Total energy in the final basis set = -1510.24667884
   14   -1510.2527909046      3.95E-09 Convergence criterion met
 Total energy in the final basis set = -1510.25279090
   13   -1510.2559103045      9.00E-09 Convergence criterion met
 Total energy in the final basis set = -1510.25591030
   13   -1510.2579973313      6.55E-09 Convergence criterion met
   11   -1510.2596889189      4.30E-09 Convergence criterion met
 Total energy in the final basis set = -1510.25968892
   11   -1510.2597015941      3.64E-09 Convergence criterion met
 Total energy in the final basis set = -1510.25970159
   11   -1510.2597075067      3.43E-09 Convergence criterion met
 Total energy in the final basis set = -1510.25970751
   11   -1510.2597121068      2.39E-09 Convergence criterion met
 Total energy in the final basis set = -1510.25971211
   10   -1510.2597141543      8.97E-09 Convergence criterion met
 Total energy in the final basis set = -1510.25971415
    9   -1510.2597160023      9.44E-09 Convergence criterion met
 Total energy in the final basis set = -1510.25971600

             Standard Nuclear Orientation (Angstroms)
    I     Atom           X                Y                Z
 ----------------------------------------------------------------
    1      O      -3.2947358751     2.2066197342     1.7229849641
    2      C      -3.4926496909     1.8408109815     0.5432278680
    3      C      -4.4662339025     0.7037770714     0.0750044524
    4      C      -3.9766865830    -0.4291868885    -0.9263534637
    5      C      -2.4265466597    -0.6348728305    -1.0978222164
    6      O      -1.8614373248     0.3916006682    -1.9302153614
    7      C      -0.3937918353     0.4494186887    -1.7168651580
    8      C      -0.0331682953     1.5086658145    -0.6082832014
    9      O       1.4061432107     1.5540346207    -0.2471164810
   10      C       1.9141343654     0.2733510720     0.1637748227
   11      C       3.4271477789     0.5066720269     0.5073410024
   12      C       4.2637919974    -0.6993400406     1.0837714190
   13      C       3.9704460521    -2.1485901478     0.5297142284
   14      O       4.6079271123    -3.1749001262     0.8581052637
   15      O      -3.0356638655     2.5731474849    -0.6010044694
   16      O       3.0812697138    -2.1046324832    -0.5849195666
   17      O       1.2045060028    -0.7368857371     0.3503384291
   18      C       2.9379099847    -3.4552538688    -1.1737369163
   19      C       4.3848740156     1.0454419726    -0.6522214218
   20      C       5.3793351032     2.0574505304     0.0360251755
   21      C       6.1993630067     1.0663988776     0.9441319047
   22      C       5.6772019350    -0.3371548917     0.4356725695
   23      O       5.2748751034    -0.0935235309    -0.9734544344
   24      H       3.3942138745     1.2855131088     1.2936335817
   25      H       4.2774007325    -0.7189039140     2.1877253992
   26      H       3.8661430577     1.4135547165    -1.5582859849
   27      H       6.0242165665     2.5333744266    -0.7203147246
   28      H       4.8607746262     2.8418615030     0.6099776749
   29      H       7.2839417692     1.1604338486     0.7774130935
   30      H       5.9957301439     1.2107181449     2.0173878255
   31      H       6.4149486108    -1.1612326620     0.4920806111
   32      O      -1.7559843588    -1.5548284999    -0.5797106149
   33      C      -2.4367179258     3.8576378954    -0.1637340442
   34      C      -5.0191454559    -0.1642978186     1.2852830334
   35      C      -6.4660201167    -0.6557416912     0.8972247303
   36      C      -6.1243960044    -1.7100212322    -0.2216159821
   37      C      -4.5444394162    -1.7103394668    -0.1783189253
   38      O      -4.2214785765    -1.4097080519     1.2369612796
   39      H      -5.3041455237     1.2380278518    -0.4128295886
   40      H      -4.4279742939    -0.2755342960    -1.9236519100
   41      H      -1.6575482271     3.7128383903     0.6104638948
   42      H      -4.9168275667     0.3308515812     2.2707652666
   43      H      -6.9534323458    -1.1323214113     1.7629321268
   44      H      -7.1080970889     0.1630069319     0.5351728708
   45      H      -6.5169802815    -2.7083612646     0.0279340355
   46      H      -6.5098933164    -1.4184447913    -1.2119750405
   47      H      -4.0586202226    -2.6554973168    -0.4881199270
   48      H      -3.2116487076     4.5382257233     0.2453161939
   49      H      -1.9904114317     4.3123638153    -1.0670502075
   50      H       2.2774281070    -3.3327067887    -2.0516594158
   51      H       2.4734483283    -4.1640392310    -0.4583591874
   52      H       3.9168494053    -3.8660862511    -1.4951706047
   53      H      -0.2686721385     2.5296451696    -0.9619437783
   54      H      -0.6461019031     1.2906408058     0.2948555441
   55      H       0.0677107033     0.7283682264    -2.6847197763
   56      H      -0.0307146697    -0.5451933816    -1.3817620148
 ----------------------------------------------------------------

    9   -1510.2597169770      7.23E-09 Convergence criterion met
 Total energy in the final basis set = -1510.25971698
 Final energy is   -1510.25971697705
 **  OPTIMIZATION CONVERGED  **

                    Orbital Energies (a.u.)
 --------------------------------------------------------------

 Alpha MOs
 -- Occupied --
-18.939 -18.930 -18.929 -18.928 -18.886 -18.884 -18.881 -18.880
-18.878 -18.860 -10.104 -10.101 -10.097 -10.091 -10.071 -10.069
-10.061 -10.060 -10.058 -10.056 -10.056 -10.055 -10.040 -10.039
-10.036 -10.035 -10.021 -10.019 -10.019 -10.018  -1.016  -1.012
 -1.007  -1.001  -0.970  -0.968  -0.940  -0.938  -0.933  -0.924
 -0.763  -0.762  -0.725  -0.721  -0.712  -0.704  -0.692  -0.668
 -0.654  -0.619  -0.598  -0.584  -0.544  -0.543  -0.537  -0.536
 -0.511  -0.509  -0.478  -0.476  -0.468  -0.457  -0.452  -0.438
 -0.436  -0.430  -0.425  -0.418  -0.413  -0.409  -0.402  -0.392
 -0.386  -0.378  -0.375  -0.369  -0.362  -0.356  -0.354  -0.351
 -0.343  -0.337  -0.334  -0.330  -0.329  -0.327  -0.317  -0.312
 -0.312  -0.304  -0.303  -0.300  -0.294  -0.288  -0.283  -0.273
 -0.268  -0.260  -0.255  -0.242  -0.238  -0.233  -0.232  -0.187
 -0.182  -0.171  -0.163  -0.160  -0.152  -0.149  -0.143  -0.142
 -0.140

          Ground-State Mulliken Net Atomic Charges

     Atom                 Charge (a.u.)
  ----------------------------------------
      1 O                    -0.211482
      2 C                     0.205440
      3 C                    -0.079363
      4 C                    -0.076756
      5 C                     0.206675
      6 O                    -0.170862
      7 C                    -0.062566
      8 C                    -0.051269
      9 O                    -0.177718
     10 C                     0.213643
     11 C                    -0.079846
     12 C                    -0.076275
     13 C                     0.212654
     14 O                    -0.220901
     15 O                    -0.166430
     16 O                    -0.161313
     17 O                    -0.198317
     18 C                    -0.125378
     19 C                     0.026379
     20 C                    -0.140933
     21 C                    -0.146130
     22 C                     0.023549
     23 O                    -0.191251
     24 H                     0.084221
     25 H                     0.085804
     26 H                     0.085581
     27 H                     0.077446
     28 H                     0.074276
     29 H                     0.078574
     30 H                     0.074112
     31 H                     0.086438
     32 O                    -0.199843
     33 C                    -0.130476
     34 C                     0.022659
     35 C                    -0.142809
     36 C                    -0.145728
     37 C                     0.025509
     38 O                    -0.187132
     39 H                     0.085055
     40 H                     0.085385
     41 H                     0.092540
     42 H                     0.090478
     43 H                     0.078331
     44 H                     0.071979
     45 H                     0.078419
     46 H                     0.072342
     47 H                     0.088846
     48 H                     0.086759
     49 H                     0.089909
     50 H                     0.089971
     51 H                     0.090610
     52 H                     0.089058
     53 H                     0.088770
     54 H                     0.084010
     55 H                     0.083727
     56 H                     0.113631
  ----------------------------------------
  Sum of atomic charges =     0.000000

                    Cartesian Multipole Moments
 -----------------------------------------------------------------
    Charge (ESU x 10^10)
                 0.0000
    Dipole Moment (Debye)
         X      -1.5179      Y       3.2726      Z      -1.5195
       Tot       3.9144
    Quadrupole Moments (Debye-Ang)
        XX    -145.3097     XY       6.8668     YY    -157.4591
        XZ       7.8967     YZ       4.7118     ZZ    -161.9621

 Total job time:  64.28s(wall), 3059.29s(cpu)
        *  Thank you very much for using Q-Chem.  Have a nice day.  *
