 Q-Chem 5.0, Q-Chem, Inc., Pleasanton, CA (2017)
 Q-Chem 5.0.1 for Intel X86 EM64T Linux

User input:
--------------------------------------------------------------
$molecule
0  1
O -3.2947358751 2.2066197342 1.7229849641
C -3.4926496909 1.8408109815 0.543227868
C -4.4662339025 0.7037770714 0.0750044524
C -3.976686583 -0.4291868885 -0.9263534637
C -2.4265466597 -0.6348728305 -1.0978222164
O -1.8614373248 0.3916006682 -1.9302153614
C -0.3937918353 0.4494186887 -1.716865158
C -0.0331682953 1.5086658145 -0.6082832014
O 1.4061432107 1.5540346207 -0.247116481
C 1.9141343654 0.273351072 0.1637748227
C 3.4271477789 0.5066720269 0.5073410024
C 4.2637919974 -0.6993400406 1.083771419
C 3.9704460521 -2.1485901478 0.5297142284
O 4.6079271123 -3.1749001262 0.8581052637
O -3.0356638655 2.5731474849 -0.6010044694
O 3.0812697138 -2.1046324832 -0.5849195666
O 1.2045060028 -0.7368857371 0.3503384291
C 2.9379099847 -3.4552538688 -1.1737369163
C 4.3848740156 1.0454419726 -0.6522214218
C 5.3793351032 2.0574505304 0.0360251755
C 6.1993630067 1.0663988776 0.9441319047
C 5.677201935 -0.3371548917 0.4356725695
O 5.2748751034 -0.0935235309 -0.9734544344
H 3.3942138745 1.2855131088 1.2936335817
H 4.2774007325 -0.718903914 2.1877253992
H 3.8661430577 1.4135547165 -1.5582859849
H 6.0242165665 2.5333744266 -0.7203147246
H 4.8607746262 2.841861503 0.6099776749
H 7.2839417692 1.1604338486 0.7774130935
H 5.9957301439 1.2107181449 2.0173878255
H 6.4149486108 -1.161232662 0.4920806111
O -1.7559843588 -1.5548284999 -0.5797106149
C -2.4367179258 3.8576378954 -0.1637340442
C -5.0191454559 -0.1642978186 1.2852830334
C -6.4660201167 -0.6557416912 0.8972247303
C -6.1243960044 -1.7100212322 -0.2216159821
C -4.5444394162 -1.7103394668 -0.1783189253
O -4.2214785765 -1.4097080519 1.2369612796
H -5.3041455237 1.2380278518 -0.4128295886
H -4.4279742939 -0.275534296 -1.92365191
H -1.6575482271 3.7128383903 0.6104638948
H -4.9168275667 0.3308515812 2.2707652666
H -6.9534323458 -1.1323214113 1.7629321268
H -7.1080970889 0.1630069319 0.5351728708
H -6.5169802815 -2.7083612646 0.0279340355
H -6.5098933164 -1.4184447913 -1.2119750405
H -4.0586202226 -2.6554973168 -0.488119927
H -3.2116487076 4.5382257233 0.2453161939
H -1.9904114317 4.3123638153 -1.0670502075
H 2.277428107 -3.3327067887 -2.0516594158
H 2.4734483283 -4.164039231 -0.4583591874
H 3.9168494053 -3.8660862511 -1.4951706047
H -0.2686721385 2.5296451696 -0.9619437783
H -0.6461019031 1.2906408058 0.2948555441
H 0.0677107033 0.7283682264 -2.6847197763
H -0.0307146697 -0.5451933816 -1.3817620148
$end

$rem
JOBTYPE                   OPT
METHOD                    B3LYP
DFT_D                     d3_op
BASIS                     STO-3G
GEOM_OPT_MAX_CYCLES       100
GEOM_OPT_TOL_GRADIENT     300
GEOM_OPT_TOL_DISPLACEMENT 1200
GEOM_OPT_TOL_ENERGY       100
SYMMETRY                  False
THRESH                    12
SCF_CONVERGENCE           8
MAX_SUB_FILE_NUM          128
MEM_STATIC                400
MEM_TOTAL                 4000
$end
--------------------------------------------------------------

   16   -1510.2596170077      6.17E-09 Convergence criterion met
 Total energy in the final basis set = -1510.25961701
   15   -1510.2633131045      1.57E-09 Convergence criterion met
 Total energy in the final basis set = -1510.26331310
   14   -1510.2671519686      5.25E-09 Convergence criterion met
 Total energy in the final basis set = -1510.26715197
   13   -1510.2698590216      5.06E-09 Convergence criterion met
 Total energy in the final basis set = -1510.26985902
   13   -1510.2723164055      8.84E-09 Convergence criterion met
 Total energy in the final basis set = -1510.27231641
   13   -1510.2746531694      5.89E-09 Convergence criterion met
 Total energy in the final basis set = -1510.27465317
   13   -1510.2767998991      8.49E-09 Convergence criterion met
 Total energy in the final basis set = -1510.27679990
   14   -1510.2788665463      5.70E-09 Convergence criterion met
   13   -1510.2963177285      7.60E-09 Convergence criterion met
 Total energy in the final basis set = -1510.29631773
   12   -1510.2963699964      8.08E-09 Convergence criterion met
 Total energy in the final basis set = -1510.29637000
   12   -1510.2963916456      2.70E-09 Convergence criterion met
 Total energy in the final basis set = -1510.29639165
   12   -1510.2963904172      2.51E-09 Convergence criterion met
 Total energy in the final basis set = -1510.29639042
   11   -1510.2964062259      6.86E-09 Convergence criterion met
 Total energy in the final basis set = -1510.29640623
   11   -1510.2964085444      3.98E-09 Convergence criterion met
 Total energy in the final basis set = -1510.29640854

             Standard Nuclear Orientation (Angstroms)
    I     Atom           X                Y                Z
 ----------------------------------------------------------------
    1      O      -3.2274907924    -0.0892522844     2.5442473898
    2      C      -3.3555960200     0.4498364876     1.4237273682
    3      C      -4.3817468877     0.0481569338     0.2994679938
    4      C      -3.7136667238    -0.4461315415    -1.0505594385
    5      C      -2.1566580225    -0.5015995072    -0.9530775514
    6      O      -1.5938841662    -0.2167441152    -2.2341867092
    7      C      -0.1143801696    -0.1122198835    -2.1470451291
    8      C       0.2835441036     1.3146752475    -1.6213462024
    9      O       1.7486469777     1.3675656525    -1.4146606409
   10      C       2.0597090434     1.6924369072    -0.0554736404
   11      C       3.6190891824     1.7377676061     0.1377192013
   12      C       4.1449366038     0.6670040436     1.1869767892
   13      C       3.0294025381    -0.2463102683     1.7929805055
   14      O       2.8714029731    -0.5331158497     3.0002872658
   15      O      -2.6334941176     1.6043910693     0.9807773764
   16      O       2.2106589348    -0.7295445391     0.7254272404
   17      O       1.2067096268     1.9750256093     0.8172512874
   18      C       1.1186087583    -1.5901853433     1.2457948504
   19      C       4.4382905454     1.3230623146    -1.1543882700
   20      C       5.9380058426     1.7811424832    -0.9586305802
   21      C       6.4551115647     0.7051637738     0.0668891631
   22      C       5.1530582791    -0.1638297400     0.2753546519
   23      O       4.5082881481    -0.1531389666    -1.0554621942
   24      H       3.8768799506     2.7595988394     0.4726118531
   25      H       4.6709013698     1.1522632129     2.0276377971
   26      H       3.9663912906     1.6256667398    -2.1078969034
   27      H       6.4849556963     1.7249269204    -1.9132499096
   28      H       6.0108779625     2.8096181808    -0.5701279878
   29      H       7.2624106076     0.0919727953    -0.3640962298
   30      H       6.8124054578     1.1502065602     1.0092278465
   31      H       5.3273091723    -1.2035391087     0.6141767357
   32      O      -1.4951380092    -0.7649418977     0.0778786503
   33      C      -1.6287861083     2.0093620371     1.9961333960
   34      C      -5.2108352785    -1.2352727355     0.7185676251
   35      C      -6.4909799442    -1.3233160272    -0.2001164001
   36      C      -5.8521651793    -1.7830811272    -1.5636675587
   37      C      -4.3290386824    -1.9122010429    -1.1603919771
   38      O      -4.3704258113    -2.3619766933     0.2466570675
   39      H      -5.0400740974     0.9145505198     0.1061663152
   40      H      -3.9950081535     0.1805265957    -1.9146186714
   41      H      -0.6125769704     1.9634809851     1.5453453050
   42      H      -5.3862898921    -1.3184562652     1.8086738837
   43      H      -7.1949620841    -2.0762475828     0.1888380019
   44      H      -7.0140042745    -0.3568710995    -0.2787199016
   45      H      -6.2465610592    -2.7589640201    -1.8888892465
   46      H      -6.0046885974    -1.0522773920    -2.3739518886
   47      H      -3.7356193318    -2.6134226880    -1.7791348194
   48      H      -1.6950600564     1.3287748449     2.8677690918
   49      H      -1.8479723773     3.0476752920     2.3127427529
   50      H       1.3117323934    -2.6371484744     0.9389228864
   51      H       0.1557871961    -1.2398204234     0.8102039950
   52      H       1.0955106724    -1.5302619138     2.3513240088
   53      H       0.0019585358     2.0886990716    -2.3656004153
   54      H      -0.2281743652     1.5241276213    -0.6580024845
   55      H       0.2645913311    -0.2712913795    -3.1758583937
   56      H       0.3076304710    -0.8869930893    -1.4737339792
 ----------------------------------------------------------------

    9   -1510.2964084088      6.96E-09 Convergence criterion met
 Total energy in the final basis set = -1510.29640841
 Final energy is   -1510.29640840881
 **  OPTIMIZATION CONVERGED  **

                    Orbital Energies (a.u.)
 --------------------------------------------------------------

 Alpha MOs
 -- Occupied --
-18.949 -18.941 -18.925 -18.917 -18.892 -18.889 -18.889 -18.880
-18.870 -18.865 -10.114 -10.110 -10.094 -10.091 -10.079 -10.072
-10.064 -10.061 -10.059 -10.057 -10.043 -10.041 -10.037 -10.036
-10.032 -10.032 -10.022 -10.021 -10.020 -10.020  -1.026  -1.018
 -1.002  -0.998  -0.971  -0.971  -0.950  -0.942  -0.929  -0.924
 -0.765  -0.764  -0.730  -0.723  -0.715  -0.707  -0.697  -0.647
 -0.645  -0.619  -0.598  -0.583  -0.546  -0.546  -0.538  -0.537
 -0.516  -0.510  -0.485  -0.481  -0.468  -0.457  -0.456  -0.443
 -0.435  -0.432  -0.428  -0.412  -0.409  -0.407  -0.403  -0.400
 -0.393  -0.380  -0.375  -0.366  -0.363  -0.356  -0.353  -0.349
 -0.340  -0.337  -0.334  -0.332  -0.329  -0.326  -0.318  -0.313
 -0.309  -0.305  -0.303  -0.303  -0.296  -0.292  -0.281  -0.276
 -0.274  -0.259  -0.252  -0.239  -0.237  -0.235  -0.234  -0.195
 -0.176  -0.171  -0.166  -0.161  -0.158  -0.149  -0.148  -0.145
 -0.144

          Ground-State Mulliken Net Atomic Charges

     Atom                 Charge (a.u.)
  ----------------------------------------
      1 O                    -0.213503
      2 C                     0.214790
      3 C                    -0.079155
      4 C                    -0.078335
      5 C                     0.220829
      6 O                    -0.167804
      7 C                    -0.050161
      8 C                    -0.055947
      9 O                    -0.168056
     10 C                     0.224485
     11 C                    -0.077013
     12 C                    -0.079217
     13 C                     0.209878
     14 O                    -0.212356
     15 O                    -0.182558
     16 O                    -0.174612
     17 O                    -0.221036
     18 C                    -0.153931
     19 C                     0.024720
     20 C                    -0.144490
     21 C                    -0.143746
     22 C                     0.026269
     23 O                    -0.186472
     24 H                     0.085218
     25 H                     0.085685
     26 H                     0.091064
     27 H                     0.077744
     28 H                     0.072958
     29 H                     0.078125
     30 H                     0.074471
     31 H                     0.083738
     32 O                    -0.209267
     33 C                    -0.150776
     34 C                     0.024898
     35 C                    -0.143930
     36 C                    -0.143637
     37 C                     0.025909
     38 O                    -0.186966
     39 H                     0.084237
     40 H                     0.087678
     41 H                     0.105439
     42 H                     0.092076
     43 H                     0.078673
     44 H                     0.073547
     45 H                     0.078671
     46 H                     0.073794
     47 H                     0.082713
     48 H                     0.097742
     49 H                     0.076789
     50 H                     0.076888
     51 H                     0.111783
     52 H                     0.097085
     53 H                     0.085479
     54 H                     0.104737
     55 H                     0.093538
     56 H                     0.101319
  ----------------------------------------
  Sum of atomic charges =     0.000000

                    Cartesian Multipole Moments
 -----------------------------------------------------------------
    Charge (ESU x 10^10)
                -0.0000
    Dipole Moment (Debye)
         X       0.0694      Y       2.0026      Z      -3.4871
       Tot       4.0219
    Quadrupole Moments (Debye-Ang)
        XX    -136.5225     XY       4.0042     YY    -157.9071
        XZ       6.4900     YZ       2.4908     ZZ    -167.9853

 Total job time:  131.20s(wall), 6258.78s(cpu)
        *  Thank you very much for using Q-Chem.  Have a nice day.  *
