 Q-Chem 5.0, Q-Chem, Inc., Pleasanton, CA (2017)
 Q-Chem 5.0.1 for Intel X86 EM64T Linux

User input:
--------------------------------------------------------------
$molecule
0  1
O -4.076309076 1.4929495382 2.3446194196
C -3.7820190457 1.4922381303 1.1310988023
C -4.5898018631 0.8316963775 -0.0485485393
C -3.8696165388 -0.4028962186 -0.7261505369
C -2.5774599264 -0.8447337708 0.038224826
O -1.9711994316 -1.9230111391 -0.6816336127
C -0.7249194991 -2.3592608619 -0.0032708019
C 0.5196869177 -1.7834600734 -0.7737132354
O 1.7434064657 -2.0041160103 0.033262168
C 2.5051737158 -0.7751818614 0.1194253875
C 4.0151416711 -1.0534554161 -0.2195440882
C 4.7774258665 0.2423008785 -0.6990611162
C 3.8914674407 1.3914654981 -1.2947645181
O 4.1702736975 2.6098838416 -1.317969421
O -2.7036670803 2.2403221047 0.5484977281
O 2.8150535569 0.7989280789 -2.0398025684
O 2.0046653382 0.3220942029 0.4429359473
C 1.9602019752 1.8470930699 -2.6402406807
C 4.7718328066 -1.3094623726 1.1603757582
C 6.2844776053 -1.6806070026 0.8868406926
C 6.9069814625 -0.2625065151 0.5995330634
C 5.6068374234 0.6302500769 0.5981258347
O 4.8250780182 0.0615913785 1.7219527463
H 4.0901464958 -1.8969871541 -0.9265189809
H 5.4781270419 -0.0358889316 -1.5100905
H 4.238001285 -1.9924529351 1.8497422487
H 6.7347703705 -2.1530469149 1.7741331695
H 6.3867781798 -2.3680310161 0.0316082376
H 7.5840271128 0.0495004842 1.4109185176
H 7.4534710205 -0.2180404699 -0.3560369897
H 5.7617309374 1.7184089002 0.7341881252
O -2.1438194929 -0.3891464802 1.1205952254
C -1.8587081027 2.8150314519 1.6183441896
C -5.9405754901 0.1632676509 0.4452797258
C -6.889331529 -0.0018778299 -0.8047425696
C -6.1796698052 -1.1848936221 -1.5644827648
C -4.9938232743 -1.518888933 -0.5742061702
O -5.5537821652 -1.2317111992 0.7647307332
H -4.7839583416 1.6156924698 -0.8022129309
H -3.6169204719 -0.2159491543 -1.7851885808
H -1.3563999779 2.0158362701 2.2013662809
H -6.3881989547 0.6502167495 1.3335021469
H -7.9052885715 -0.2821725742 -0.4835979463
H -6.9486573292 0.9183047673 -1.4073924016
H -6.8462577803 -2.0547774677 -1.6758550041
H -5.8130908655 -0.8906544022 -2.561058047
H -4.6103185765 -2.5565344164 -0.6269426771
H -2.4497639293 3.4443362219 2.3146616849
H -1.0968528607 3.4350499884 1.1109860863
H 0.9809713299 1.8654130415 -2.1203917378
H 1.804477244 1.6014768669 -3.7084420504
H 2.4552853066 2.8339894392 -2.5391635688
H 0.6405504117 -2.295876078 -1.7536297932
H 0.3528473424 -0.6993252241 -0.9518498547
H -0.7152677701 -3.467774934 -0.0052521278
H -0.7212801978 -1.9768950119 1.0402576371
$end

$rem
JOBTYPE                   OPT
METHOD                    B3LYP
DFT_D                     d3_op
BASIS                     STO-3G
GEOM_OPT_MAX_CYCLES       100
GEOM_OPT_TOL_GRADIENT     300
GEOM_OPT_TOL_DISPLACEMENT 1200
GEOM_OPT_TOL_ENERGY       100
SYMMETRY                  False
THRESH                    12
SCF_CONVERGENCE           8
MAX_SUB_FILE_NUM          128
MEM_STATIC                400
MEM_TOTAL                 4000
$end
--------------------------------------------------------------

   16   -1510.2686701631      5.09E-09 Convergence criterion met
 Total energy in the final basis set = -1510.26867016
   14   -1510.2733038442      4.54E-09 Convergence criterion met
 Total energy in the final basis set = -1510.27330384
   14   -1510.2776421823      2.36E-09 Convergence criterion met
 Total energy in the final basis set = -1510.27764218
   14   -1510.2812456063      3.23E-09 Convergence criterion met
 Total energy in the final basis set = -1510.28124561
   14   -1510.2839154765      1.72E-09 Convergence criterion met
 Total energy in the final basis set = -1510.28391548
   14   -1510.2853899124      2.08E-09 Convergence criterion met
 Total energy in the final basis set = -1510.28538991
   14   -1510.2864199832      1.68E-09 Convergence criterion met
 Total energy in the final basis set = -1510.28641998
   14   -1510.2875473596      2.32E-09 Convergence criterion met
   13   -1510.3007913807      2.15E-09 Convergence criterion met
 Total energy in the final basis set = -1510.30079138
   12   -1510.3008231361      4.94E-09 Convergence criterion met
 Total energy in the final basis set = -1510.30082314
   11   -1510.3008265686      2.76E-09 Convergence criterion met
 Total energy in the final basis set = -1510.30082657
   10   -1510.3008317457      8.53E-09 Convergence criterion met
 Total energy in the final basis set = -1510.30083175
   11   -1510.3008269703      3.27E-09 Convergence criterion met
 Total energy in the final basis set = -1510.30082697
    9   -1510.3008302034      4.97E-09 Convergence criterion met
 Total energy in the final basis set = -1510.30083020

             Standard Nuclear Orientation (Angstroms)
    I     Atom           X                Y                Z
 ----------------------------------------------------------------
    1      O      -1.0438901896     1.2513824227     1.7875785664
    2      C      -1.6856502793     1.2018149443     0.7160435878
    3      C      -3.1269409047     0.5991337223     0.5117020123
    4      C      -3.2194829153    -0.6440274471    -0.4607200739
    5      C      -1.8284556169    -1.2490158655    -0.8417850754
    6      O      -1.9981943302    -2.0240958649    -2.0329768654
    7      C      -0.8013893023    -2.8488953648    -2.3270092554
    8      C       0.4627666146    -2.0417549029    -2.8163211425
    9      O       1.4631240201    -1.9902092106    -1.7257077119
   10      C       1.7720231820    -0.6323147058    -1.3896589383
   11      C       2.6782408849    -0.6463038960    -0.1193211351
   12      C       3.7132240600     0.5499825412    -0.0455157814
   13      C       3.5573017965     1.5832245820    -1.2205857506
   14      O       3.1071676829     2.7463896789    -1.1574222506
   15      O      -1.2827221557     1.7731921727    -0.5252224038
   16      O       4.0886129433     0.9811160889    -2.4088832615
   17      O       1.3568676370     0.3587450383    -2.0311741560
   18      C       3.8536913114     1.8702444604    -3.5682820305
   19      C       1.8170018194    -0.3903129825     1.2011432468
   20      C       2.6657698911    -0.8749157994     2.4355327647
   21      C       3.7644962990     0.2532922744     2.5112874554
   22      C       3.3154668607     1.2069007998     1.3356836899
   23      O       1.8384671995     1.0819641840     1.3491294796
   24      H       3.1828004612    -1.6269829369    -0.0720711966
   25      H       4.7505509451     0.1697774398    -0.0469634433
   26      H       0.7711776075    -0.7542726019     1.1281583728
   27      H       2.0418811688    -0.8903298115     3.3433352822
   28      H       3.0933564055    -1.8784267768     2.2809651438
   29      H       3.7290294453     0.7864963871     3.4743961060
   30      H       4.7839469051    -0.1361582612     2.3595566631
   31      H       3.6096819737     2.2695240626     1.4347985501
   32      O      -0.7558622922    -1.1568770266    -0.2065559115
   33      C       0.0042160006     2.5026068901    -0.3833890938
   34      C      -3.7142799280    -0.0109968729     1.8525483222
   35      C      -5.2857123554    -0.0413350960     1.7257538111
   36      C      -5.4745709213    -1.1959857067     0.6718604646
   37      C      -3.9830927417    -1.6827947636     0.4748495094
   38      O      -3.3483572748    -1.4470095452     1.7898300678
   39      H      -3.7744791434     1.4115818795     0.1353747335
   40      H      -3.7824340966    -0.4228026614    -1.3845132833
   41      H       0.7287408064     1.9580208376     0.2745000210
   42      H      -3.3048601523     0.4505487336     2.7720897673
   43      H      -5.7455310315    -0.3021522475     2.6924297898
   44      H      -5.6984288129     0.9214201664     1.3844485159
   45      H      -6.0971564822    -2.0130594275     1.0697281095
   46      H      -5.9190070224    -0.8422740474    -0.2722611998
   47      H      -3.8707304742    -2.7412132844     0.1681634263
   48      H      -0.1801269123     3.5152303879     0.0299106666
   49      H       0.4180768924     2.5939470164    -1.4034112449
   50      H       2.7683400197     1.9769485899    -3.7728274410
   51      H       4.3478014814     1.3881736364    -4.4318649118
   52      H       4.2841902854     2.8794715076    -3.4069572157
   53      H       0.9238995945    -2.5624331966    -3.6819945519
   54      H       0.1958225114    -1.0025114514    -3.1117622519
   55      H      -1.1357945461    -3.5394298255    -3.1270758730
   56      H      -0.5079134157    -3.4446877857    -1.4344590663
 ----------------------------------------------------------------

    9   -1510.3008305540      5.36E-09 Convergence criterion met
 Total energy in the final basis set = -1510.30083055
 Final energy is   -1510.30083055401
 **  OPTIMIZATION CONVERGED  **

                    Orbital Energies (a.u.)
 --------------------------------------------------------------

 Alpha MOs
 -- Occupied --
-18.939 -18.933 -18.924 -18.904 -18.897 -18.884 -18.883 -18.877
-18.867 -18.849 -10.107 -10.101 -10.092 -10.079 -10.077 -10.071
-10.059 -10.058 -10.057 -10.051 -10.051 -10.036 -10.035 -10.034
-10.025 -10.018 -10.017 -10.016 -10.015 -10.010  -1.020  -1.011
 -1.001  -0.984  -0.972  -0.966  -0.944  -0.937  -0.928  -0.910
 -0.762  -0.758  -0.726  -0.719  -0.711  -0.701  -0.694  -0.656
 -0.632  -0.618  -0.592  -0.577  -0.544  -0.539  -0.534  -0.531
 -0.511  -0.504  -0.481  -0.464  -0.459  -0.449  -0.449  -0.444
 -0.436  -0.428  -0.425  -0.411  -0.405  -0.400  -0.397  -0.391
 -0.378  -0.376  -0.374  -0.361  -0.354  -0.352  -0.349  -0.345
 -0.342  -0.334  -0.330  -0.328  -0.326  -0.320  -0.318  -0.308
 -0.304  -0.301  -0.297  -0.295  -0.293  -0.279  -0.272  -0.268
 -0.266  -0.257  -0.249  -0.246  -0.239  -0.231  -0.216  -0.190
 -0.172  -0.168  -0.160  -0.157  -0.153  -0.145  -0.141  -0.140
 -0.130

          Ground-State Mulliken Net Atomic Charges

     Atom                 Charge (a.u.)
  ----------------------------------------
      1 O                    -0.216222
      2 C                     0.209954
      3 C                    -0.081189
      4 C                    -0.077115
      5 C                     0.219544
      6 O                    -0.171879
      7 C                    -0.050263
      8 C                    -0.056751
      9 O                    -0.171244
     10 C                     0.221524
     11 C                    -0.079244
     12 C                    -0.080802
     13 C                     0.214246
     14 O                    -0.212245
     15 O                    -0.181187
     16 O                    -0.175524
     17 O                    -0.214694
     18 C                    -0.128986
     19 C                     0.022588
     20 C                    -0.142518
     21 C                    -0.143676
     22 C                     0.027083
     23 O                    -0.178838
     24 H                     0.087344
     25 H                     0.084895
     26 H                     0.112556
     27 H                     0.082630
     28 H                     0.073475
     29 H                     0.079606
     30 H                     0.072664
     31 H                     0.089974
     32 O                    -0.213724
     33 C                    -0.151716
     34 C                     0.023623
     35 C                    -0.143275
     36 C                    -0.144178
     37 C                     0.024774
     38 O                    -0.191041
     39 H                     0.082291
     40 H                     0.087758
     41 H                     0.119592
     42 H                     0.090941
     43 H                     0.077178
     44 H                     0.073461
     45 H                     0.077160
     46 H                     0.073552
     47 H                     0.080432
     48 H                     0.069017
     49 H                     0.085878
     50 H                     0.091963
     51 H                     0.086897
     52 H                     0.088365
     53 H                     0.085010
     54 H                     0.105790
     55 H                     0.090475
     56 H                     0.094071
  ----------------------------------------
  Sum of atomic charges =     0.000000

                    Cartesian Multipole Moments
 -----------------------------------------------------------------
    Charge (ESU x 10^10)
                -0.0000
    Dipole Moment (Debye)
         X       0.0354      Y      -2.3506      Z      -1.8813
       Tot       3.0110
    Quadrupole Moments (Debye-Ang)
        XX    -140.2649     XY      -1.1005     YY    -159.1645
        XZ       1.8906     YZ       3.7058     ZZ    -155.2335

 Total job time:  137.78s(wall), 6561.10s(cpu)
        *  Thank you very much for using Q-Chem.  Have a nice day.  *
