 Q-Chem 5.0, Q-Chem, Inc., Pleasanton, CA (2017)
 Q-Chem 5.0.1 for Intel X86 EM64T Linux

User input:
--------------------------------------------------------------
$molecule
0  1
O -3.94934 -3.66094 2.70899
C -3.26408 -4.56952 2.26188
C -3.36658 -6.02376 2.66595
C -2.18121 -6.62309 3.44025
C -1.10406 -5.65595 3.87899
O -0.0962 -6.33533 4.50195
C 0.97566 -5.48719 4.92741
C 2.15354 -5.60625 3.96586
O 3.12402 -4.5869 4.25218
C 3.5603 -3.87964 3.18046
C 5.0652 -3.76756 3.12254
C 5.63975 -3.48094 1.72754
C 4.6455 -3.00144 0.68915
O 4.91578 -2.32108 -0.28994
O -2.34831 -4.28745 1.29663
O 3.57317 -3.82866 0.52076
O 2.83327 -2.99345 2.75132
C 2.58283 -3.71942 -0.43991
C 5.61593 -2.56701 3.91546
C 7.06985 -2.83326 4.29953
C 7.7411 -2.73279 2.94475
C 6.55278 -2.28911 2.08189
O 5.74748 -1.5428 2.96187
H 5.48497 -4.70714 3.55043
H 6.19009 -4.34388 1.29255
H 5.01427 -2.3229 4.81831
H 7.39938 -1.97252 4.92495
H 7.25792 -3.77859 4.85256
H 8.51692 -1.93699 2.99708
H 8.18579 -3.6773 2.5628
H 6.9179 -1.74764 1.18164
O -1.09579 -4.44932 3.66965
C -2.11341 -3.02599 0.7911
C -4.49456 -6.26593 3.69558
C -4.9322 -7.73036 3.66268
C -3.74612 -8.39434 4.32751
C -2.90518 -7.16554 4.68431
O -3.85798 -6.16523 4.94557
H -3.60728 -6.59173 1.73936
H -1.67606 -7.41719 2.84567
H -1.77618 -2.34555 1.60203
H -5.38005 -5.61082 3.54283
H -5.81378 -7.82879 4.33608
H -5.19452 -8.12052 2.65581
H -4.09959 -8.89957 5.25396
H -3.18567 -9.11434 3.69263
H -2.21069 -7.40652 5.51886
H -3.03647 -2.62349 0.32189
H -1.3169 -3.08548 0.0212
H 1.59825 -3.63405 0.0648
H 2.58254 -4.63365 -1.06822
H 2.71449 -2.83257 -1.09546
H 2.60868 -6.61353 4.07496
H 1.7726 -5.51335 2.92059
H 1.28875 -5.7671 5.95539
H 0.70551 -4.4102 5.00165
$end

$opt
CONSTRAINT
tors           1           2           3           4    -112.120
tors           3           4           5           6    -177.498
tors           4           5           6           7    +178.989
tors           5           6           7           8    -102.418
tors           6           7           8           9    +169.664
tors           7           8           9          10    -131.231
tors           8           9          10          11    -131.488
tors           9          10          11          12    +157.457
tors          11          12          13          14    +154.408
ENDCONSTRAINT
$end

$rem
JOBTYPE                   OPT
METHOD                    B3LYP
DFT_D                     d3_op
BASIS                     STO-3G
GEOM_OPT_MAX_CYCLES       100
GEOM_OPT_TOL_GRADIENT     300
GEOM_OPT_TOL_DISPLACEMENT 1200
GEOM_OPT_TOL_ENERGY       100
SYMMETRY                  False
THRESH                    12
SCF_CONVERGENCE           8
MAX_SUB_FILE_NUM          128
MEM_STATIC                400
MEM_TOTAL                 4000
$end
--------------------------------------------------------------

   15   -1510.1174315568      6.35E-09 Convergence criterion met
 Total energy in the final basis set = -1510.11743156
   13   -1510.1891671029      9.65E-09 Convergence criterion met
 Total energy in the final basis set = -1510.18916710
   14   -1510.2284065393      6.94E-09 Convergence criterion met
 Total energy in the final basis set = -1510.22840654
   14   -1510.2476498023      5.86E-09 Convergence criterion met
 Total energy in the final basis set = -1510.24764980
   13   -1510.2562474665      8.89E-09 Convergence criterion met
 Total energy in the final basis set = -1510.25624747
    2   -1510.2562474666      8.93E-09 Convergence criterion met
 Total energy in the final basis set = -1510.25624747
   13   -1510.2603395461      4.20E-09 Convergence criterion met
 Total energy in the final basis set = -1510.26033955
   13   -1510.2625001147      4.40E-09 Convergence criterion met
   11   -1510.2686005892      7.58E-09 Convergence criterion met
 Total energy in the final basis set = -1510.26860059
   11   -1510.2686514161      6.87E-09 Convergence criterion met
 Total energy in the final basis set = -1510.26865142
   11   -1510.2686751337      2.29E-09 Convergence criterion met
 Total energy in the final basis set = -1510.26867513
   10   -1510.2686957157      5.72E-09 Convergence criterion met
 Total energy in the final basis set = -1510.26869572
    9   -1510.2687041405      9.73E-09 Convergence criterion met
 Total energy in the final basis set = -1510.26870414
    9   -1510.2687060900      6.42E-09 Convergence criterion met
 Total energy in the final basis set = -1510.26870609

             Standard Nuclear Orientation (Angstroms)
    I     Atom           X                Y                Z
 ----------------------------------------------------------------
    1      O      -4.0763090760     1.4929495382     2.3446194196
    2      C      -3.7820190457     1.4922381303     1.1310988023
    3      C      -4.5898018631     0.8316963775    -0.0485485393
    4      C      -3.8696165388    -0.4028962186    -0.7261505369
    5      C      -2.5774599264    -0.8447337708     0.0382248260
    6      O      -1.9711994316    -1.9230111391    -0.6816336127
    7      C      -0.7249194991    -2.3592608619    -0.0032708019
    8      C       0.5196869177    -1.7834600734    -0.7737132354
    9      O       1.7434064657    -2.0041160103     0.0332621680
   10      C       2.5051737158    -0.7751818614     0.1194253875
   11      C       4.0151416711    -1.0534554161    -0.2195440882
   12      C       4.7774258665     0.2423008785    -0.6990611162
   13      C       3.8914674407     1.3914654981    -1.2947645181
   14      O       4.1702736975     2.6098838416    -1.3179694210
   15      O      -2.7036670803     2.2403221047     0.5484977281
   16      O       2.8150535569     0.7989280789    -2.0398025684
   17      O       2.0046653382     0.3220942029     0.4429359473
   18      C       1.9602019752     1.8470930699    -2.6402406807
   19      C       4.7718328066    -1.3094623726     1.1603757582
   20      C       6.2844776053    -1.6806070026     0.8868406926
   21      C       6.9069814625    -0.2625065151     0.5995330634
   22      C       5.6068374234     0.6302500769     0.5981258347
   23      O       4.8250780182     0.0615913785     1.7219527463
   24      H       4.0901464958    -1.8969871541    -0.9265189809
   25      H       5.4781270419    -0.0358889316    -1.5100905000
   26      H       4.2380012850    -1.9924529351     1.8497422487
   27      H       6.7347703705    -2.1530469149     1.7741331695
   28      H       6.3867781798    -2.3680310161     0.0316082376
   29      H       7.5840271128     0.0495004842     1.4109185176
   30      H       7.4534710205    -0.2180404699    -0.3560369897
   31      H       5.7617309374     1.7184089002     0.7341881252
   32      O      -2.1438194929    -0.3891464802     1.1205952254
   33      C      -1.8587081027     2.8150314519     1.6183441896
   34      C      -5.9405754901     0.1632676509     0.4452797258
   35      C      -6.8893315290    -0.0018778299    -0.8047425696
   36      C      -6.1796698052    -1.1848936221    -1.5644827648
   37      C      -4.9938232743    -1.5188889330    -0.5742061702
   38      O      -5.5537821652    -1.2317111992     0.7647307332
   39      H      -4.7839583416     1.6156924698    -0.8022129309
   40      H      -3.6169204719    -0.2159491543    -1.7851885808
   41      H      -1.3563999779     2.0158362701     2.2013662809
   42      H      -6.3881989547     0.6502167495     1.3335021469
   43      H      -7.9052885715    -0.2821725742    -0.4835979463
   44      H      -6.9486573292     0.9183047673    -1.4073924016
   45      H      -6.8462577803    -2.0547774677    -1.6758550041
   46      H      -5.8130908655    -0.8906544022    -2.5610580470
   47      H      -4.6103185765    -2.5565344164    -0.6269426771
   48      H      -2.4497639293     3.4443362219     2.3146616849
   49      H      -1.0968528607     3.4350499884     1.1109860863
   50      H       0.9809713299     1.8654130415    -2.1203917378
   51      H       1.8044772440     1.6014768669    -3.7084420504
   52      H       2.4552853066     2.8339894392    -2.5391635688
   53      H       0.6405504117    -2.2958760780    -1.7536297932
   54      H       0.3528473424    -0.6993252241    -0.9518498547
   55      H      -0.7152677701    -3.4677749340    -0.0052521278
   56      H      -0.7212801978    -1.9768950119     1.0402576371
 ----------------------------------------------------------------

    9   -1510.2687064488      2.87E-09 Convergence criterion met
 Total energy in the final basis set = -1510.26870645
 Final energy is   -1510.26870644877
 **  OPTIMIZATION CONVERGED  **

                    Orbital Energies (a.u.)
 --------------------------------------------------------------

 Alpha MOs
 -- Occupied --
-18.940 -18.932 -18.915 -18.915 -18.891 -18.889 -18.889 -18.886
-18.878 -18.858 -10.107 -10.105 -10.103 -10.088 -10.074 -10.070
-10.063 -10.061 -10.061 -10.059 -10.055 -10.049 -10.041 -10.041
-10.040 -10.031 -10.023 -10.022 -10.021 -10.018  -1.020  -1.015
 -1.005  -0.994  -0.972  -0.969  -0.945  -0.939  -0.935  -0.921
 -0.766  -0.762  -0.728  -0.723  -0.713  -0.706  -0.695  -0.661
 -0.650  -0.617  -0.598  -0.580  -0.548  -0.543  -0.540  -0.536
 -0.515  -0.508  -0.482  -0.477  -0.462  -0.458  -0.454  -0.453
 -0.434  -0.433  -0.430  -0.415  -0.412  -0.405  -0.401  -0.398
 -0.391  -0.385  -0.375  -0.369  -0.362  -0.357  -0.351  -0.348
 -0.343  -0.339  -0.335  -0.332  -0.330  -0.325  -0.323  -0.314
 -0.313  -0.309  -0.305  -0.301  -0.296  -0.291  -0.275  -0.274
 -0.272  -0.256  -0.252  -0.243  -0.241  -0.235  -0.233  -0.189
 -0.175  -0.163  -0.163  -0.161  -0.160  -0.156  -0.146  -0.144
 -0.139

          Ground-State Mulliken Net Atomic Charges

     Atom                 Charge (a.u.)
  ----------------------------------------
      1 O                    -0.215852
      2 C                     0.216235
      3 C                    -0.081608
      4 C                    -0.077167
      5 C                     0.215761
      6 O                    -0.174256
      7 C                    -0.054452
      8 C                    -0.047651
      9 O                    -0.190216
     10 C                     0.224379
     11 C                    -0.077292
     12 C                    -0.079032
     13 C                     0.216788
     14 O                    -0.213213
     15 O                    -0.178468
     16 O                    -0.176894
     17 O                    -0.194127
     18 C                    -0.135964
     19 C                     0.024823
     20 C                    -0.145028
     21 C                    -0.141964
     22 C                     0.024848
     23 O                    -0.188110
     24 H                     0.087136
     25 H                     0.084911
     26 H                     0.084768
     27 H                     0.079089
     28 H                     0.073684
     29 H                     0.079116
     30 H                     0.073555
     31 H                     0.091494
     32 O                    -0.202986
     33 C                    -0.128936
     34 C                     0.024509
     35 C                    -0.143618
     36 C                    -0.144069
     37 C                     0.024970
     38 O                    -0.189516
     39 H                     0.082951
     40 H                     0.086308
     41 H                     0.094137
     42 H                     0.090220
     43 H                     0.078023
     44 H                     0.073146
     45 H                     0.078132
     46 H                     0.073012
     47 H                     0.085044
     48 H                     0.086676
     49 H                     0.086750
     50 H                     0.086212
     51 H                     0.084604
     52 H                     0.102753
     53 H                     0.082038
     54 H                     0.091075
     55 H                     0.088197
     56 H                     0.105079
  ----------------------------------------
  Sum of atomic charges =    -0.000000

                    Cartesian Multipole Moments
 -----------------------------------------------------------------
    Charge (ESU x 10^10)
                -0.0000
    Dipole Moment (Debye)
         X       1.2101      Y      -1.6807      Z      -4.3456
       Tot       4.8138
    Quadrupole Moments (Debye-Ang)
        XX    -146.6067     XY     -10.6277     YY    -158.8290
        XZ       9.2336     YZ      -0.0970     ZZ    -163.0760

 Total job time:  61.49s(wall), 2924.85s(cpu)
        *  Thank you very much for using Q-Chem.  Have a nice day.  *
