 Q-Chem 5.0, Q-Chem, Inc., Pleasanton, CA (2017)
 Q-Chem 5.0.1 for Intel X86 EM64T Linux

User input:
--------------------------------------------------------------
$molecule
0  1
O -3.94934 -3.66094 2.70899
C -3.26408 -4.56952 2.26188
C -3.36658 -6.02376 2.66595
C -2.29005 -6.56525 3.62079
C -1.33425 -5.54902 4.20544
O -0.22138 -6.18013 4.68358
C 0.74445 -5.27842 5.23436
C 1.4428 -4.50973 4.11742
O 2.40765 -3.60405 4.67571
C 2.9869 -2.75252 3.79337
C 4.04272 -1.87778 4.4264
C 4.80802 -0.97547 3.4474
C 4.18562 -0.81164 2.07536
O 3.95113 0.25513 1.5262
O -2.24401 -4.26703 1.41698
O 4.34598 -1.88735 1.25164
O 2.59664 -2.7223 2.6378
C 4.02674 -1.9051 -0.0913
C 3.48942 -0.84323 5.42079
C 4.58547 -0.45479 6.4102
C 5.51076 0.33843 5.50896
C 4.68587 0.35906 4.21516
O 3.35028 0.33161 4.66023
H 4.74644 -2.56821 4.94532
H 5.86422 -1.29229 3.29937
H 2.58139 -1.18919 5.96117
H 4.12263 0.24105 7.14647
H 5.06264 -1.29782 6.95475
H 5.61603 1.36253 5.93099
H 6.51335 -0.11166 5.34199
H 4.97614 1.2362 3.59625
O -1.68562 -4.43276 4.57343
C -1.93645 -2.9909 0.99467
C -4.62877 -6.28344 3.52104
C -5.00581 -7.76453 3.47232
C -3.91901 -8.35862 4.34021
C -3.1798 -7.08705 4.76454
O -4.19367 -6.1177 4.84621
H -3.46054 -6.61123 1.72541
H -1.69154 -7.38618 3.16432
H -1.67785 -2.35209 1.86627
H -5.50193 -5.66748 3.21221
H -5.98026 -7.88164 3.99853
H -5.08617 -8.1914 2.44947
H -4.39637 -8.83212 5.2271
H -3.25076 -9.08892 3.83471
H -2.6061 -7.27158 5.70009
H -2.79708 -2.5508 0.44705
H -1.0623 -3.03423 0.3131
H 4.25262 -2.9091 -0.50523
H 4.62814 -1.1491 -0.6398
H 2.94409 -1.69658 -0.22847
H 1.93631 -5.21861 3.41551
H 0.66844 -3.92969 3.56726
H 1.51852 -5.879 5.75732
H 0.29302 -4.59955 5.99323
$end

$opt
CONSTRAINT
tors           1           2           3           4    -102.951
tors           3           4           5           6    -161.683
tors           4           5           6           7    +178.989
tors           5           6           7           8     -73.041
tors           6           7           8           9    +179.833
tors           7           8           9          10    -172.737
tors           8           9          10          11    -176.951
tors           9          10          11          12    +175.286
tors          11          12          13          14    +127.927
ENDCONSTRAINT
$end

$rem
JOBTYPE                   OPT
METHOD                    B3LYP
DFT_D                     d3_op
BASIS                     STO-3G
GEOM_OPT_MAX_CYCLES       100
GEOM_OPT_TOL_GRADIENT     300
GEOM_OPT_TOL_DISPLACEMENT 1200
GEOM_OPT_TOL_ENERGY       100
SYMMETRY                  False
THRESH                    12
SCF_CONVERGENCE           8
MAX_SUB_FILE_NUM          128
MEM_STATIC                400
MEM_TOTAL                 4000
$end
--------------------------------------------------------------

   15   -1510.1422074402      6.62E-09 Convergence criterion met
 Total energy in the final basis set = -1510.14220744
   14   -1510.2131024581      4.01E-09 Convergence criterion met
 Total energy in the final basis set = -1510.21310246
   14   -1510.2500098921      4.29E-09 Convergence criterion met
 Total energy in the final basis set = -1510.25000989
   14   -1510.2673725127      9.23E-09 Convergence criterion met
 Total energy in the final basis set = -1510.26737251
   13   -1510.2752500178      6.01E-09 Convergence criterion met
 Total energy in the final basis set = -1510.27525002
   13   -1510.2787378148      3.57E-09 Convergence criterion met
 Total energy in the final basis set = -1510.27873781
   13   -1510.2808708202      2.77E-09 Convergence criterion met
 Total energy in the final basis set = -1510.28087082
   13   -1510.2822646355      4.25E-09 Convergence criterion met
   11   -1510.2854076907      8.73E-09 Convergence criterion met
 Total energy in the final basis set = -1510.28540769
   11   -1510.2854805786      4.81E-09 Convergence criterion met
 Total energy in the final basis set = -1510.28548058
   10   -1510.2855261462      8.93E-09 Convergence criterion met
 Total energy in the final basis set = -1510.28552615
   10   -1510.2855514460      8.81E-09 Convergence criterion met
 Total energy in the final basis set = -1510.28555145
   10   -1510.2855648447      3.95E-09 Convergence criterion met
 Total energy in the final basis set = -1510.28556484
    9   -1510.2855672955      5.17E-09 Convergence criterion met
 Total energy in the final basis set = -1510.28556730

             Standard Nuclear Orientation (Angstroms)
    I     Atom           X                Y                Z
 ----------------------------------------------------------------
    1      O      -3.7266885711     0.8599998580     2.5870657729
    2      C      -3.6770233267     1.2247905113     1.3939988152
    3      C      -4.6896472987     0.8725951542     0.2405565615
    4      C      -4.1683512047    -0.2413560375    -0.7596684063
    5      C      -2.7345959595    -0.7580462839    -0.4128731472
    6      O      -2.1928648005    -1.4091841088    -1.5685578996
    7      C      -0.8184805018    -1.8955586912    -1.2906867417
    8      C       0.2147727994    -0.7156387190    -1.2279872786
    9      O       1.5327493380    -1.3367952150    -0.9426487643
   10      C       2.5118392059    -0.3243019062    -0.7001686175
   11      C       3.9003776128    -1.0147113507    -0.4812658276
   12      C       5.0629494919     0.0424458391    -0.3246518621
   13      C       4.6916660448     1.5020371819    -0.7792437336
   14      O       4.8290705817     2.5553584643    -0.1223926106
   15      O      -2.6822263024     2.1029420424     0.8479231587
   16      O       4.3822035020     1.4554418314    -2.1827757561
   17      O       2.2560095426     0.8989500204    -0.6314967825
   18      C       4.0043902761     2.8043732129    -2.6557360256
   19      C       3.9107440942    -1.6640841895     0.9719127026
   20      C       5.2408440043    -2.4961936477     1.1647749159
   21      C       6.2885946017    -1.3502015840     1.4269350537
   22      C       5.3858501408    -0.0727635938     1.2231766595
   23      O       4.0975450455    -0.4763038651     1.8364829384
   24      H       4.0849246526    -1.7526025407    -1.2815957273
   25      H       5.9351215330    -0.2709747698    -0.9273081758
   26      H       2.9766094977    -2.1983472105     1.2339930644
   27      H       5.1498798347    -3.1717343081     2.0300178216
   28      H       5.4814361004    -3.0965010069     0.2725307404
   29      H       6.6755466656    -1.3877669800     2.4578688401
   30      H       7.1385571260    -1.3795464801     0.7267824438
   31      H       5.7554752041     0.8670096901     1.6777724510
   32      O      -2.1290678772    -0.6521171190     0.6768457566
   33      C      -1.6356746941     2.3646941712     1.8613471216
   34      C      -5.9817533105     0.1639144829     0.8265085577
   35      C      -7.1133952580     0.1891337994    -0.2750759740
   36      C      -6.5946875306    -0.9164406065    -1.2686445275
   37      C      -5.2669062568    -1.3751303135    -0.5466437378
   38      O      -5.5913773208    -1.2648574505     0.8910678255
   39      H      -4.9366069271     1.7998667337    -0.3066102478
   40      H      -4.1628644282     0.1144395056    -1.8053356691
   41      H      -1.1367599165     1.4236300204     2.1714478320
   42      H      -6.2786396796     0.5236998431     1.8305782158
   43      H      -8.0858621081    -0.0863134020     0.1629295106
   44      H      -7.2064641388     1.1785538782    -0.7505193366
   45      H      -7.3016653509    -1.7581047658    -1.3426349310
   46      H      -6.4032944437    -0.5256063658    -2.2807802830
   47      H      -4.9230249026    -2.3981222637    -0.7955069587
   48      H      -2.0512993106     2.8586643882     2.7633632209
   49      H      -0.8992249399     3.0333159796     1.3786971207
   50      H       3.8566121635     2.7183478085    -3.7481118144
   51      H       4.7965556472     3.5513877451    -2.4441349443
   52      H       3.0616295878     3.1456315194    -2.1804379068
   53      H       0.2378201320    -0.1639892628    -2.1927450963
   54      H      -0.0698009944    -0.0055642220    -0.4219074621
   55      H      -0.5690412110    -2.5804769774    -2.1254565679
   56      H      -0.7833801935    -2.4559517777    -0.3317157770
 ----------------------------------------------------------------

    9   -1510.2855677350      2.85E-09 Convergence criterion met
 Total energy in the final basis set = -1510.28556773
 Final energy is   -1510.28556773499
 **  OPTIMIZATION CONVERGED  **

                    Orbital Energies (a.u.)
 --------------------------------------------------------------

 Alpha MOs
 -- Occupied --
-18.945 -18.942 -18.919 -18.918 -18.888 -18.888 -18.886 -18.886
-18.862 -18.862 -10.109 -10.107 -10.091 -10.090 -10.082 -10.077
-10.063 -10.061 -10.057 -10.056 -10.055 -10.052 -10.042 -10.040
-10.034 -10.033 -10.022 -10.021 -10.020 -10.019  -1.024  -1.019
 -0.998  -0.998  -0.971  -0.969  -0.948  -0.943  -0.925  -0.924
 -0.765  -0.763  -0.731  -0.723  -0.715  -0.705  -0.697  -0.655
 -0.653  -0.621  -0.596  -0.582  -0.546  -0.545  -0.538  -0.537
 -0.516  -0.509  -0.484  -0.475  -0.460  -0.455  -0.453  -0.452
 -0.440  -0.431  -0.429  -0.409  -0.406  -0.403  -0.403  -0.400
 -0.395  -0.384  -0.376  -0.365  -0.362  -0.355  -0.350  -0.346
 -0.343  -0.341  -0.339  -0.332  -0.332  -0.326  -0.324  -0.312
 -0.311  -0.305  -0.304  -0.302  -0.297  -0.279  -0.277  -0.275
 -0.274  -0.260  -0.257  -0.245  -0.244  -0.235  -0.233  -0.188
 -0.185  -0.166  -0.165  -0.161  -0.160  -0.145  -0.145  -0.142
 -0.141

          Ground-State Mulliken Net Atomic Charges

     Atom                 Charge (a.u.)
  ----------------------------------------
      1 O                    -0.211664
      2 C                     0.214590
      3 C                    -0.080745
      4 C                    -0.078582
      5 C                     0.213133
      6 O                    -0.170598
      7 C                    -0.047663
      8 C                    -0.050899
      9 O                    -0.173571
     10 C                     0.217963
     11 C                    -0.077063
     12 C                    -0.081046
     13 C                     0.216758
     14 O                    -0.216836
     15 O                    -0.177800
     16 O                    -0.178536
     17 O                    -0.205553
     18 C                    -0.128694
     19 C                     0.024596
     20 C                    -0.144524
     21 C                    -0.142874
     22 C                     0.023698
     23 O                    -0.190469
     24 H                     0.087319
     25 H                     0.083209
     26 H                     0.084889
     27 H                     0.078514
     28 H                     0.073267
     29 H                     0.078348
     30 H                     0.073163
     31 H                     0.091462
     32 O                    -0.207221
     33 C                    -0.129529
     34 C                     0.025464
     35 C                    -0.144302
     36 C                    -0.143426
     37 C                     0.025837
     38 O                    -0.187095
     39 H                     0.084031
     40 H                     0.087055
     41 H                     0.093357
     42 H                     0.089402
     43 H                     0.078364
     44 H                     0.073475
     45 H                     0.078463
     46 H                     0.073733
     47 H                     0.083440
     48 H                     0.086833
     49 H                     0.089064
     50 H                     0.085416
     51 H                     0.087510
     52 H                     0.090285
     53 H                     0.086977
     54 H                     0.100103
     55 H                     0.093039
     56 H                     0.095935
  ----------------------------------------
  Sum of atomic charges =    -0.000000

                    Cartesian Multipole Moments
 -----------------------------------------------------------------
    Charge (ESU x 10^10)
                 0.0000
    Dipole Moment (Debye)
         X       0.1160      Y      -1.3586      Z      -3.9354
       Tot       4.1650
    Quadrupole Moments (Debye-Ang)
        XX    -144.5969     XY     -13.2597     YY    -157.1194
        XZ       7.0387     YZ      -0.0780     ZZ    -163.5797

 Total job time:  55.18s(wall), 2625.03s(cpu)
        *  Thank you very much for using Q-Chem.  Have a nice day.  *
