 Q-Chem 5.0, Q-Chem, Inc., Pleasanton, CA (2017)
 Q-Chem 5.0.1 for Intel X86 EM64T Linux

User input:
--------------------------------------------------------------
$molecule
0  1
O -3.7266885711 0.859999858 2.5870657729
C -3.6770233267 1.2247905113 1.3939988152
C -4.6896472987 0.8725951542 0.2405565615
C -4.1683512047 -0.2413560375 -0.7596684063
C -2.7345959595 -0.7580462839 -0.4128731472
O -2.1928648005 -1.4091841088 -1.5685578996
C -0.8184805018 -1.8955586912 -1.2906867417
C 0.2147727994 -0.715638719 -1.2279872786
O 1.532749338 -1.336795215 -0.9426487643
C 2.5118392059 -0.3243019062 -0.7001686175
C 3.9003776128 -1.0147113507 -0.4812658276
C 5.0629494919 0.0424458391 -0.3246518621
C 4.6916660448 1.5020371819 -0.7792437336
O 4.8290705817 2.5553584643 -0.1223926106
O -2.6822263024 2.1029420424 0.8479231587
O 4.382203502 1.4554418314 -2.1827757561
O 2.2560095426 0.8989500204 -0.6314967825
C 4.0043902761 2.8043732129 -2.6557360256
C 3.9107440942 -1.6640841895 0.9719127026
C 5.2408440043 -2.4961936477 1.1647749159
C 6.2885946017 -1.350201584 1.4269350537
C 5.3858501408 -0.0727635938 1.2231766595
O 4.0975450455 -0.4763038651 1.8364829384
H 4.0849246526 -1.7526025407 -1.2815957273
H 5.935121533 -0.2709747698 -0.9273081758
H 2.9766094977 -2.1983472105 1.2339930644
H 5.1498798347 -3.1717343081 2.0300178216
H 5.4814361004 -3.0965010069 0.2725307404
H 6.6755466656 -1.38776698 2.4578688401
H 7.138557126 -1.3795464801 0.7267824438
H 5.7554752041 0.8670096901 1.677772451
O -2.1290678772 -0.652117119 0.6768457566
C -1.6356746941 2.3646941712 1.8613471216
C -5.9817533105 0.1639144829 0.8265085577
C -7.113395258 0.1891337994 -0.275075974
C -6.5946875306 -0.9164406065 -1.2686445275
C -5.2669062568 -1.3751303135 -0.5466437378
O -5.5913773208 -1.2648574505 0.8910678255
H -4.9366069271 1.7998667337 -0.3066102478
H -4.1628644282 0.1144395056 -1.8053356691
H -1.1367599165 1.4236300204 2.171447832
H -6.2786396796 0.5236998431 1.8305782158
H -8.0858621081 -0.086313402 0.1629295106
H -7.2064641388 1.1785538782 -0.7505193366
H -7.3016653509 -1.7581047658 -1.342634931
H -6.4032944437 -0.5256063658 -2.280780283
H -4.9230249026 -2.3981222637 -0.7955069587
H -2.0512993106 2.8586643882 2.7633632209
H -0.8992249399 3.0333159796 1.3786971207
H 3.8566121635 2.7183478085 -3.7481118144
H 4.7965556472 3.5513877451 -2.4441349443
H 3.0616295878 3.1456315194 -2.1804379068
H 0.237820132 -0.1639892628 -2.1927450963
H -0.0698009944 -0.005564222 -0.4219074621
H -0.569041211 -2.5804769774 -2.1254565679
H -0.7833801935 -2.4559517777 -0.331715777
$end

$rem
JOBTYPE                   OPT
METHOD                    B3LYP
DFT_D                     d3_op
BASIS                     STO-3G
GEOM_OPT_MAX_CYCLES       100
GEOM_OPT_TOL_GRADIENT     300
GEOM_OPT_TOL_DISPLACEMENT 1200
GEOM_OPT_TOL_ENERGY       100
SYMMETRY                  False
THRESH                    12
SCF_CONVERGENCE           8
MAX_SUB_FILE_NUM          128
MEM_STATIC                400
MEM_TOTAL                 4000
$end
--------------------------------------------------------------

   16   -1510.2854072776      5.86E-09 Convergence criterion met
 Total energy in the final basis set = -1510.28540728
   12   -1510.2864074966      7.34E-09 Convergence criterion met
 Total energy in the final basis set = -1510.28640750
   13   -1510.2867129005      2.65E-09 Convergence criterion met
 Total energy in the final basis set = -1510.28671290
   13   -1510.2871834660      6.79E-09 Convergence criterion met
 Total energy in the final basis set = -1510.28718347
   14   -1510.2873560138      1.96E-09 Convergence criterion met
 Total energy in the final basis set = -1510.28735601
   14   -1510.2877518572      2.81E-09 Convergence criterion met
 Total energy in the final basis set = -1510.28775186
   13   -1510.2883751753      9.24E-09 Convergence criterion met
 Total energy in the final basis set = -1510.28837518
   14   -1510.2885933224      2.40E-09 Convergence criterion met
   13   -1510.2925018750      2.21E-09 Convergence criterion met
 Total energy in the final basis set = -1510.29250188
   12   -1510.2926428661      5.87E-09 Convergence criterion met
 Total energy in the final basis set = -1510.29264287
   12   -1510.2926595422      8.40E-09 Convergence criterion met
 Total energy in the final basis set = -1510.29265954
   12   -1510.2926802846      3.23E-09 Convergence criterion met
 Total energy in the final basis set = -1510.29268028
   12   -1510.2926785111      3.18E-09 Convergence criterion met
 Total energy in the final basis set = -1510.29267851
   11   -1510.2926784372      6.19E-09 Convergence criterion met
 Total energy in the final basis set = -1510.29267844

             Standard Nuclear Orientation (Angstroms)
    I     Atom           X                Y                Z
 ----------------------------------------------------------------
    1      O      -2.5372896738     1.4308646746     2.2137457588
    2      C      -2.6141943160     1.2359288179     0.9824145675
    3      C      -3.9193988296     0.9844468770     0.1417315327
    4      C      -3.8682283494    -0.3396287198    -0.7333441350
    5      C      -2.5211771224    -1.1213567329    -0.5945666720
    6      O      -1.9670440216    -1.2859022389    -1.9129868495
    7      C      -0.6546895449    -1.9699200718    -1.8309829097
    8      C       0.4166596866    -1.0883594331    -2.5665679384
    9      O       1.7715203798    -1.4429030907    -2.0660292050
   10      C       2.3383680517    -0.3501948975    -1.3479227861
   11      C       3.6752889471    -0.8121139103    -0.6826617235
   12      C       4.3296209518     0.3124923909     0.2198790498
   13      C       3.6112942910     1.7122293203     0.1599770699
   14      O       2.8808121966     2.2206354086     1.0369445093
   15      O      -1.4995228424     1.2158498956     0.0885707328
   16      O       4.0471270900     2.3873325527    -1.0290821009
   17      O       1.8059199044     0.7832085251    -1.2615332248
   18      C       3.3269469087     3.6732151291    -1.1598042702
   19      C       3.3748242835    -1.9309155870     0.4073224648
   20      C       4.7404040652    -2.5728407815     0.8733685742
   21      C       5.3053080766    -1.4443003150     1.8143221475
   22      C       4.1898602010    -0.3400967832     1.6600929619
   23      O       2.9377430671    -1.1297846471     1.5719431784
   24      H       4.3619103417    -1.1738671956    -1.4695410789
   25      H       5.3880743224     0.4583415110    -0.0599528767
   26      H       2.5891174929    -2.6509684877     0.1054758244
   27      H       4.5557314363    -3.5078039815     1.4259195731
   28      H       5.4056083829    -2.7919340572     0.0226797645
   29      H       5.3662215928    -1.7862698174     2.8597432685
   30      H       6.2976125185    -1.0831272868     1.5002468454
   31      H       4.1183935353     0.3978551518     2.4823970057
   32      O      -1.9976958135    -1.5802831684     0.4442494343
   33      C      -0.2293279506     1.3293425225     0.8462168127
   34      C      -5.1496519827     0.6798992194     1.0906950059
   35      C      -6.4812481056     0.8173856583     0.2546660826
   36      C      -6.4289244112    -0.4921712564    -0.6166630009
   37      C      -5.0856316654    -1.1482423405    -0.1035305372
   38      O      -5.0396165695    -0.7794461269     1.3282942411
   39      H      -4.1007696922     1.8661581020    -0.5002523895
   40      H      -4.0285497710    -0.1243539847    -1.8041071918
   41      H      -0.1340720208     0.5106999710     1.5876478730
   42      H      -5.1175343564     1.2303617863     2.0509205777
   43      H      -7.3570537157     0.8235149305     0.9227928609
   44      H      -6.4965711981     1.7344724766    -0.3557119231
   45      H      -7.2843793767    -1.1534550080    -0.4053471167
   46      H      -6.4025098145    -0.2836656175    -1.6981575108
   47      H      -5.0202088328    -2.2470940234    -0.2238995797
   48      H      -0.1586559853     2.2993233614     1.3773038890
   49      H       0.5827074273     1.2492602450     0.0938383036
   50      H       3.7460845548     4.1723891105    -2.0527707011
   51      H       3.4723786913     4.3174849902    -0.2687600623
   52      H       2.2391895654     3.5073792108    -1.3025293374
   53      H       0.4002945557    -1.2669271600    -3.6609031640
   54      H       0.2303972791    -0.0123701836    -2.3571108409
   55      H      -0.7353463382    -2.9708731263    -2.3041978411
   56      H      -0.3946874451    -2.0943777024    -0.7553922041
 ----------------------------------------------------------------

   10   -1510.2926781586      6.11E-09 Convergence criterion met
 Total energy in the final basis set = -1510.29267816
 Final energy is   -1510.29267815858
 **  OPTIMIZATION CONVERGED  **

                    Orbital Energies (a.u.)
 --------------------------------------------------------------

 Alpha MOs
 -- Occupied --
-18.951 -18.930 -18.923 -18.920 -18.900 -18.890 -18.883 -18.873
-18.866 -18.863 -10.119 -10.098 -10.093 -10.088 -10.075 -10.068
-10.065 -10.059 -10.058 -10.056 -10.053 -10.047 -10.036 -10.035
-10.034 -10.032 -10.023 -10.021 -10.018 -10.016  -1.031  -1.010
 -1.001  -0.997  -0.973  -0.966  -0.954  -0.934  -0.927  -0.924
 -0.767  -0.759  -0.730  -0.721  -0.714  -0.704  -0.695  -0.657
 -0.644  -0.619  -0.596  -0.578  -0.548  -0.541  -0.539  -0.533
 -0.516  -0.505  -0.484  -0.471  -0.461  -0.458  -0.455  -0.447
 -0.442  -0.433  -0.427  -0.413  -0.409  -0.403  -0.402  -0.400
 -0.392  -0.382  -0.370  -0.368  -0.360  -0.354  -0.353  -0.347
 -0.341  -0.336  -0.335  -0.331  -0.328  -0.327  -0.322  -0.314
 -0.309  -0.306  -0.304  -0.299  -0.290  -0.280  -0.278  -0.276
 -0.267  -0.261  -0.247  -0.247  -0.240  -0.237  -0.230  -0.195
 -0.174  -0.171  -0.167  -0.163  -0.156  -0.148  -0.145  -0.142
 -0.139

          Ground-State Mulliken Net Atomic Charges

     Atom                 Charge (a.u.)
  ----------------------------------------
      1 O                    -0.208793
      2 C                     0.211993
      3 C                    -0.078643
      4 C                    -0.078682
      5 C                     0.214571
      6 O                    -0.173922
      7 C                    -0.057124
      8 C                    -0.055964
      9 O                    -0.168925
     10 C                     0.223459
     11 C                    -0.077045
     12 C                    -0.082016
     13 C                     0.214883
     14 O                    -0.218350
     15 O                    -0.178578
     16 O                    -0.175417
     17 O                    -0.209446
     18 C                    -0.128487
     19 C                     0.025012
     20 C                    -0.143910
     21 C                    -0.143645
     22 C                     0.024599
     23 O                    -0.189038
     24 H                     0.089424
     25 H                     0.084716
     26 H                     0.086707
     27 H                     0.079628
     28 H                     0.073782
     29 H                     0.079396
     30 H                     0.073782
     31 H                     0.090616
     32 O                    -0.212924
     33 C                    -0.141359
     34 C                     0.024225
     35 C                    -0.144164
     36 C                    -0.143817
     37 C                     0.025710
     38 O                    -0.186326
     39 H                     0.083364
     40 H                     0.085795
     41 H                     0.090548
     42 H                     0.091421
     43 H                     0.077942
     44 H                     0.072734
     45 H                     0.077528
     46 H                     0.072870
     47 H                     0.082251
     48 H                     0.086484
     49 H                     0.104931
     50 H                     0.086636
     51 H                     0.087819
     52 H                     0.091122
     53 H                     0.088228
     54 H                     0.107946
     55 H                     0.083023
     56 H                     0.103429
  ----------------------------------------
  Sum of atomic charges =    -0.000000

                    Cartesian Multipole Moments
 -----------------------------------------------------------------
    Charge (ESU x 10^10)
                -0.0000
    Dipole Moment (Debye)
         X       1.7023      Y      -0.5358      Z      -4.0232
       Tot       4.4013
    Quadrupole Moments (Debye-Ang)
        XX    -137.8356     XY      -6.4316     YY    -154.4840
        XZ       8.8145     YZ       0.6759     ZZ    -165.3003

 Total job time:  84.83s(wall), 4039.86s(cpu)
        *  Thank you very much for using Q-Chem.  Have a nice day.  *
