 Q-Chem 5.0, Q-Chem, Inc., Pleasanton, CA (2017)
 Q-Chem 5.0.1 for Intel X86 EM64T Linux

User input:
--------------------------------------------------------------
$molecule
0  1
O -3.5319094476 2.0236285791 1.9402162904
C -3.6861901816 1.7355206867 0.7353153013
C -4.8063070883 0.823855488 0.107651727
C -4.2585059855 -0.4568869168 -0.6435056662
C -2.7111312269 -0.6342622008 -0.4747598592
O -2.2718001282 -1.5190782755 -1.502412007
C -0.8119905098 -1.8117507915 -1.5436516612
C 0.1603822826 -0.6680841641 -1.0829583171
O 1.508069658 -1.2906403695 -1.0411522095
C 2.4452594653 -0.374879842 -0.4693236013
C 3.8689183922 -1.0249010736 -0.5088349193
C 5.0174816308 0.0467881838 -0.3364152954
C 4.5386533835 1.5394262398 -0.4605636725
O 4.7439932461 2.4709037403 0.3450773769
O -2.9293602352 2.3052451235 -0.3440795674
O 3.9689692071 1.7088913659 -1.7690701348
O 2.1402366088 0.7453082166 -0.0024589564
C 3.4542185145 3.0873793986 -1.9164752572
C 4.0804957842 -1.884317666 0.8144442833
C 5.4312860517 -2.6957816283 0.6938106963
C 6.4952828631 -1.570547298 0.9773435998
C 5.5612097645 -0.3057393153 1.1096543611
O 4.3748303225 -0.8395148492 1.8212694386
H 3.9748638019 -1.6288752642 -1.4268590254
H 5.7994657798 -0.1126774664 -1.1014597534
H 3.1973649665 -2.4811643758 1.1152683745
H 5.4704617835 -3.4946305151 1.4514259615
H 5.5494886664 -3.1498920775 -0.3031815472
H 7.032644056 -1.7535357891 1.9216315691
H 7.2314336999 -1.4645919565 0.1647448701
H 5.983641832 0.560316619 1.6555610741
O -2.0253032184 -0.1572258353 0.4600385787
C -1.8025613856 3.0974359514 0.1962644777
C -5.7172790448 0.1615671069 1.2220964697
C -7.056718669 -0.3211585765 0.541048115
C -6.5495261114 -1.5743365434 -0.2649526069
C -5.0241801284 -1.6084921382 0.1482729187
O -5.0195916556 -1.1080042953 1.5395427937
H -5.4032133787 1.4462578985 -0.5838284982
H -4.5109006676 -0.4609609323 -1.7182178179
H -1.074556831 2.4474124568 0.724363693
H -5.8295483774 0.7769377669 2.1358803859
H -7.7970585588 -0.6054983922 1.3058049445
H -7.4975916945 0.4524364431 -0.1078479961
H -7.0553664967 -2.4980751335 0.0577968143
H -6.6792846555 -1.4617961239 -1.3532832599
H -4.5422946635 -2.6038288043 0.086552081
H -2.1500334122 3.8823122999 0.8985889461
H -1.3114735194 3.5691625886 -0.6747748056
H 3.1049952557 3.1763401215 -2.961754848
H 4.2410918856 3.8440275075 -1.7205605924
H 2.6061345382 3.2728393182 -1.2253603784
H 0.1416449144 0.1807349321 -1.7999929887
H -0.171102384 -0.2976277131 -0.0892958205
H -0.6069460331 -2.0933299096 -2.597058475
H -0.61472344 -2.7030983326 -0.9059013851
$end

$rem
JOBTYPE                   OPT
METHOD                    B3LYP
DFT_D                     d3_op
BASIS                     STO-3G
GEOM_OPT_MAX_CYCLES       100
GEOM_OPT_TOL_GRADIENT     300
GEOM_OPT_TOL_DISPLACEMENT 1200
GEOM_OPT_TOL_ENERGY       100
SYMMETRY                  False
THRESH                    12
SCF_CONVERGENCE           8
MAX_SUB_FILE_NUM          128
MEM_STATIC                400
MEM_TOTAL                 4000
$end
--------------------------------------------------------------

   16   -1510.2797997033      3.91E-09 Convergence criterion met
 Total energy in the final basis set = -1510.27979970
   14   -1510.2819817159      2.13E-09 Convergence criterion met
 Total energy in the final basis set = -1510.28198172
   14   -1510.2840834303      4.00E-09 Convergence criterion met
 Total energy in the final basis set = -1510.28408343
   13   -1510.2853036182      5.50E-09 Convergence criterion met
 Total energy in the final basis set = -1510.28530362
   13   -1510.2866573670      2.37E-09 Convergence criterion met
 Total energy in the final basis set = -1510.28665737
   13   -1510.2872655933      3.91E-09 Convergence criterion met
 Total energy in the final basis set = -1510.28726559
   13   -1510.2877937564      2.95E-09 Convergence criterion met
 Total energy in the final basis set = -1510.28779376
   13   -1510.2883751664      3.71E-09 Convergence criterion met
   12   -1510.2927756456      2.57E-09 Convergence criterion met
 Total energy in the final basis set = -1510.29277565
   11   -1510.2927899192      7.28E-09 Convergence criterion met
 Total energy in the final basis set = -1510.29278992
   11   -1510.2928027094      9.96E-09 Convergence criterion met
 Total energy in the final basis set = -1510.29280271
   12   -1510.2928231335      2.61E-09 Convergence criterion met
 Total energy in the final basis set = -1510.29282313
   10   -1510.2928249796      4.67E-09 Convergence criterion met
 Total energy in the final basis set = -1510.29282498
    9   -1510.2928259945      3.31E-09 Convergence criterion met
 Total energy in the final basis set = -1510.29282599

             Standard Nuclear Orientation (Angstroms)
    I     Atom           X                Y                Z
 ----------------------------------------------------------------
    1      O      -2.6191601937     1.6391345778     2.0309976738
    2      C      -2.7132689282     1.2380805278     0.8518377691
    3      C      -4.0226881979     0.7851402567     0.1078777705
    4      C      -3.9166568868    -0.6491100866    -0.5648940251
    5      C      -2.5128273616    -1.3150047246    -0.3863885985
    6      O      -1.9817835183    -1.5839736487    -1.6972424749
    7      C      -0.6173894493    -2.1515773391    -1.5850559231
    8      C       0.3595280638    -1.2847822805    -2.4565853981
    9      O       1.7567435770    -1.5357676458    -2.0132076792
   10      C       2.3108333018    -0.3676073327    -1.4137758924
   11      C       3.6969840539    -0.7260704282    -0.7860016303
   12      C       4.3315963869     0.4736453483     0.0292943342
   13      C       3.5322446249     1.8274358393    -0.0606818853
   14      O       2.7944731559     2.3275456286     0.8148385278
   15      O      -1.6194797949     1.1310946745    -0.0615278684
   16      O       3.8995218238     2.4782825878    -1.2860599575
   17      O       1.7380327055     0.7487013891    -1.3892983910
   18      C       3.1063046170     3.7167735530    -1.4468173765
   19      C       3.4999434462    -1.8024198859     0.3688689978
   20      C       4.9144899259    -2.3599871509     0.7946000290
   21      C       5.4740900088    -1.1597975378     1.6455915513
   22      C       4.2993313101    -0.1166038156     1.5023634549
   23      O       3.0840421838    -0.9658329501     1.5161601132
   24      H       4.3685777704    -1.0937294626    -1.5831451963
   25      H       5.3644258552     0.6637635498    -0.3127551011
   26      H       2.7338963774    -2.5685625777     0.1391076346
   27      H       4.8000075140    -3.2707816819     1.4036415654
   28      H       5.5455529409    -2.5962561624    -0.0773207380
   29      H       5.6099088529    -1.4441321538     2.7011451750
   30      H       6.4285101956    -0.7693734852     1.2579787693
   31      H       4.2355578456     0.6540965648     2.2947594481
   32      O      -1.9301944130    -1.6162153767     0.6782266482
   33      C      -0.3437891758     1.4523761275     0.6237766982
   34      C      -5.2009637796     0.5529797814     1.1386129040
   35      C      -6.5618337629     0.4762761826     0.3417970528
   36      C      -6.4534449605    -0.9535426013    -0.3079372212
   37      C      -5.0488238591    -1.4299426705     0.2367163569
   38      O      -4.9825818681    -0.8417245358     1.5916427053
   39      H      -4.2797848267     1.5501202900    -0.6479660134
   40      H      -4.1363296808    -0.6050664764    -1.6458013984
   41      H      -0.1791055224     0.7843781102     1.4928939279
   42      H      -5.1806770827     1.2459624128     2.0022146498
   43      H      -7.4178780546     0.5421904550     1.0320029662
   44      H      -6.6499951764     1.2787355497    -0.4079547534
   45      H      -7.2510421510    -1.6225462659     0.0525813573
   46      H      -6.4859194639    -0.9265022605    -1.4089947421
   47      H      -4.9071879429    -2.5272146159     0.2825797606
   48      H      -0.3271765981     2.5026162939     0.9770728508
   49      H       0.4574340182     1.2927244693    -0.1280282438
   50      H       3.4795876891     4.2053072113    -2.3656224669
   51      H       3.2325033974     4.4002872306    -0.5825590882
   52      H       2.0269663370     3.4864608426    -1.5609342396
   53      H       0.2884244676    -1.5575224629    -3.5291519679
   54      H       0.1291878663    -0.2049271164    -2.3266726141
   55      H      -0.6300482405    -3.2044308219    -1.9372686754
   56      H      -0.3180510856    -2.1289863334    -0.5128496491
 ----------------------------------------------------------------

    9   -1510.2928254987      2.16E-09 Convergence criterion met
 Total energy in the final basis set = -1510.29282550
 Final energy is   -1510.29282549871
 **  OPTIMIZATION CONVERGED  **

                    Orbital Energies (a.u.)
 --------------------------------------------------------------

 Alpha MOs
 -- Occupied --
-18.951 -18.930 -18.922 -18.921 -18.900 -18.890 -18.884 -18.873
-18.866 -18.863 -10.119 -10.098 -10.093 -10.089 -10.075 -10.068
-10.064 -10.059 -10.058 -10.056 -10.053 -10.047 -10.036 -10.035
-10.035 -10.032 -10.023 -10.021 -10.018 -10.016  -1.031  -1.010
 -1.001  -0.998  -0.973  -0.966  -0.954  -0.934  -0.927  -0.925
 -0.767  -0.760  -0.730  -0.721  -0.714  -0.704  -0.695  -0.657
 -0.644  -0.619  -0.596  -0.578  -0.548  -0.541  -0.539  -0.534
 -0.516  -0.505  -0.484  -0.472  -0.461  -0.458  -0.455  -0.446
 -0.442  -0.432  -0.427  -0.413  -0.409  -0.403  -0.402  -0.400
 -0.393  -0.382  -0.370  -0.368  -0.361  -0.355  -0.353  -0.348
 -0.340  -0.336  -0.335  -0.331  -0.328  -0.327  -0.323  -0.314
 -0.309  -0.306  -0.304  -0.299  -0.290  -0.280  -0.279  -0.276
 -0.267  -0.261  -0.247  -0.247  -0.241  -0.237  -0.230  -0.195
 -0.174  -0.171  -0.167  -0.164  -0.156  -0.148  -0.144  -0.143
 -0.140

          Ground-State Mulliken Net Atomic Charges

     Atom                 Charge (a.u.)
  ----------------------------------------
      1 O                    -0.208710
      2 C                     0.211946
      3 C                    -0.078546
      4 C                    -0.078908
      5 C                     0.214708
      6 O                    -0.173972
      7 C                    -0.056867
      8 C                    -0.055379
      9 O                    -0.169150
     10 C                     0.223731
     11 C                    -0.077080
     12 C                    -0.081932
     13 C                     0.214783
     14 O                    -0.218138
     15 O                    -0.178502
     16 O                    -0.175288
     17 O                    -0.209553
     18 C                    -0.128497
     19 C                     0.024889
     20 C                    -0.143904
     21 C                    -0.143747
     22 C                     0.024852
     23 O                    -0.188888
     24 H                     0.089308
     25 H                     0.084778
     26 H                     0.086970
     27 H                     0.079544
     28 H                     0.073740
     29 H                     0.079340
     30 H                     0.073781
     31 H                     0.090296
     32 O                    -0.212934
     33 C                    -0.141548
     34 C                     0.024222
     35 C                    -0.144286
     36 C                    -0.143729
     37 C                     0.025829
     38 O                    -0.186340
     39 H                     0.083411
     40 H                     0.085686
     41 H                     0.090986
     42 H                     0.091362
     43 H                     0.077879
     44 H                     0.072657
     45 H                     0.077601
     46 H                     0.072826
     47 H                     0.082491
     48 H                     0.085614
     49 H                     0.105230
     50 H                     0.086624
     51 H                     0.087848
     52 H                     0.090814
     53 H                     0.088479
     54 H                     0.107373
     55 H                     0.082875
     56 H                     0.103422
  ----------------------------------------
  Sum of atomic charges =     0.000000

                    Cartesian Multipole Moments
 -----------------------------------------------------------------
    Charge (ESU x 10^10)
                 0.0000
    Dipole Moment (Debye)
         X       1.5729      Y      -0.8843      Z      -4.0690
       Tot       4.4511
    Quadrupole Moments (Debye-Ang)
        XX    -136.5472     XY      -4.2633     YY    -154.6466
        XZ       8.3048     YZ       0.1450     ZZ    -166.1635

 Total job time:  98.68s(wall), 4700.17s(cpu)
        *  Thank you very much for using Q-Chem.  Have a nice day.  *
