 Q-Chem 5.0, Q-Chem, Inc., Pleasanton, CA (2017)
 Q-Chem 5.0.1 for Intel X86 EM64T Linux

User input:
--------------------------------------------------------------
$molecule
0  1
O -3.94934 -3.66094 2.70899
C -3.26408 -4.56952 2.26188
C -3.36658 -6.02376 2.66595
C -2.11927 -6.66857 3.29229
C -0.96693 -5.74092 3.60798
O 0.18122 -6.46385 3.76459
C 1.32536 -5.65012 4.04397
C 1.19156 -4.29888 3.34944
O 2.24578 -3.42222 3.77722
C 2.14813 -2.13971 3.34738
C 3.32146 -1.28717 3.76825
C 3.49463 0.01435 2.9718
C 2.30249 0.44395 2.14056
O 1.77748 1.54757 2.17162
O -2.3354 -4.28404 1.31142
O 1.97983 -0.38139 1.10645
O 1.04735 -1.63876 3.1446
C 0.98759 -0.12695 0.18235
C 3.19525 -0.72306 5.19867
C 4.5882 -0.42785 5.75045
C 4.98428 0.75876 4.89394
C 3.66997 1.00394 4.14019
O 2.67241 0.57281 5.03406
H 4.23071 -1.92984 3.71847
H 4.36824 -0.03227 2.28517
H 2.63779 -1.39259 5.88972
H 4.44626 -0.07919 6.79884
H 5.30591 -1.27619 5.74456
H 5.23194 1.60903 5.5673
H 5.82004 0.57434 4.18448
H 3.60875 2.06521 3.81365
O -1.26418 -4.82989 4.3778
C -2.06351 -3.01484 0.84513
C -4.3944 -6.27703 3.79034
C -4.85748 -7.73413 3.75855
C -3.62533 -8.43552 4.29148
C -2.72779 -7.23176 4.59134
O -3.63522 -6.22564 4.97372
H -3.6876 -6.56581 1.74806
H -1.7203 -7.47155 2.63098
H -1.71189 -2.36922 1.67843
H -5.27618 -5.60163 3.74231
H -5.67522 -7.8423 4.50674
H -5.21652 -8.08841 2.76836
H -3.89677 -8.95159 5.23936
H -3.1469 -9.15494 3.59225
H -1.95043 -7.50203 5.33967
H -2.97198 -2.57279 0.38316
H -1.26341 -3.07218 0.07882
H 0.93959 -0.96747 -0.54001
H 1.21013 0.80968 -0.37203
H 0.00456 -0.03856 0.6926
H 1.24642 -4.44844 2.2479
H 0.29049 -3.71816 3.52775
H 2.25463 -6.17097 3.73101
H 1.36974 -5.48118 5.14205
$end

$opt
CONSTRAINT
tors           1           2           3           4    -119.109
tors           3           4           5           6    -161.683
tors           4           5           6           7    +178.989
tors           5           6           7           8     -32.179
tors           6           7           8           9    +172.150
tors           7           8           9          10    -172.737
tors           8           9          10          11    -176.951
tors           9          10          11          12    +161.837
tors          11          12          13          14    +127.927
ENDCONSTRAINT
$end

$rem
JOBTYPE                   OPT
METHOD                    B3LYP
DFT_D                     d3_op
BASIS                     STO-3G
GEOM_OPT_MAX_CYCLES       100
GEOM_OPT_TOL_GRADIENT     300
GEOM_OPT_TOL_DISPLACEMENT 1200
GEOM_OPT_TOL_ENERGY       100
SYMMETRY                  False
THRESH                    12
SCF_CONVERGENCE           8
MAX_SUB_FILE_NUM          128
MEM_STATIC                400
MEM_TOTAL                 4000
$end
--------------------------------------------------------------

   16   -1510.1077407680      3.31E-09 Convergence criterion met
 Total energy in the final basis set = -1510.10774077
   14   -1510.1828061207      5.22E-09 Convergence criterion met
 Total energy in the final basis set = -1510.18280612
   14   -1510.2254234847      8.26E-09 Convergence criterion met
 Total energy in the final basis set = -1510.22542348
   14   -1510.2502401662      2.00E-09 Convergence criterion met
 Total energy in the final basis set = -1510.25024017
   14   -1510.2632376643      3.84E-09 Convergence criterion met
 Total energy in the final basis set = -1510.26323766
   13   -1510.2699956303      5.22E-09 Convergence criterion met
 Total energy in the final basis set = -1510.26999563
   13   -1510.2738725343      4.56E-09 Convergence criterion met
 Total energy in the final basis set = -1510.27387253
   13   -1510.2761429220      4.08E-09 Convergence criterion met
   12   -1510.2796615193      6.97E-09 Convergence criterion met
 Total energy in the final basis set = -1510.27966152
   12   -1510.2797797873      3.31E-09 Convergence criterion met
 Total energy in the final basis set = -1510.27977979
   10   -1510.2798337663      6.75E-09 Convergence criterion met
 Total energy in the final basis set = -1510.27983377
   10   -1510.2798734398      7.20E-09 Convergence criterion met
 Total energy in the final basis set = -1510.27987344
   10   -1510.2799039759      5.81E-09 Convergence criterion met
 Total energy in the final basis set = -1510.27990398
    9   -1510.2799159548      8.84E-09 Convergence criterion met
 Total energy in the final basis set = -1510.27991595

             Standard Nuclear Orientation (Angstroms)
    I     Atom           X                Y                Z
 ----------------------------------------------------------------
    1      O      -3.5319094476     2.0236285791     1.9402162904
    2      C      -3.6861901816     1.7355206867     0.7353153013
    3      C      -4.8063070883     0.8238554880     0.1076517270
    4      C      -4.2585059855    -0.4568869168    -0.6435056662
    5      C      -2.7111312269    -0.6342622008    -0.4747598592
    6      O      -2.2718001282    -1.5190782755    -1.5024120070
    7      C      -0.8119905098    -1.8117507915    -1.5436516612
    8      C       0.1603822826    -0.6680841641    -1.0829583171
    9      O       1.5080696580    -1.2906403695    -1.0411522095
   10      C       2.4452594653    -0.3748798420    -0.4693236013
   11      C       3.8689183922    -1.0249010736    -0.5088349193
   12      C       5.0174816308     0.0467881838    -0.3364152954
   13      C       4.5386533835     1.5394262398    -0.4605636725
   14      O       4.7439932461     2.4709037403     0.3450773769
   15      O      -2.9293602352     2.3052451235    -0.3440795674
   16      O       3.9689692071     1.7088913659    -1.7690701348
   17      O       2.1402366088     0.7453082166    -0.0024589564
   18      C       3.4542185145     3.0873793986    -1.9164752572
   19      C       4.0804957842    -1.8843176660     0.8144442833
   20      C       5.4312860517    -2.6957816283     0.6938106963
   21      C       6.4952828631    -1.5705472980     0.9773435998
   22      C       5.5612097645    -0.3057393153     1.1096543611
   23      O       4.3748303225    -0.8395148492     1.8212694386
   24      H       3.9748638019    -1.6288752642    -1.4268590254
   25      H       5.7994657798    -0.1126774664    -1.1014597534
   26      H       3.1973649665    -2.4811643758     1.1152683745
   27      H       5.4704617835    -3.4946305151     1.4514259615
   28      H       5.5494886664    -3.1498920775    -0.3031815472
   29      H       7.0326440560    -1.7535357891     1.9216315691
   30      H       7.2314336999    -1.4645919565     0.1647448701
   31      H       5.9836418320     0.5603166190     1.6555610741
   32      O      -2.0253032184    -0.1572258353     0.4600385787
   33      C      -1.8025613856     3.0974359514     0.1962644777
   34      C      -5.7172790448     0.1615671069     1.2220964697
   35      C      -7.0567186690    -0.3211585765     0.5410481150
   36      C      -6.5495261114    -1.5743365434    -0.2649526069
   37      C      -5.0241801284    -1.6084921382     0.1482729187
   38      O      -5.0195916556    -1.1080042953     1.5395427937
   39      H      -5.4032133787     1.4462578985    -0.5838284982
   40      H      -4.5109006676    -0.4609609323    -1.7182178179
   41      H      -1.0745568310     2.4474124568     0.7243636930
   42      H      -5.8295483774     0.7769377669     2.1358803859
   43      H      -7.7970585588    -0.6054983922     1.3058049445
   44      H      -7.4975916945     0.4524364431    -0.1078479961
   45      H      -7.0553664967    -2.4980751335     0.0577968143
   46      H      -6.6792846555    -1.4617961239    -1.3532832599
   47      H      -4.5422946635    -2.6038288043     0.0865520810
   48      H      -2.1500334122     3.8823122999     0.8985889461
   49      H      -1.3114735194     3.5691625886    -0.6747748056
   50      H       3.1049952557     3.1763401215    -2.9617548480
   51      H       4.2410918856     3.8440275075    -1.7205605924
   52      H       2.6061345382     3.2728393182    -1.2253603784
   53      H       0.1416449144     0.1807349321    -1.7999929887
   54      H      -0.1711023840    -0.2976277131    -0.0892958205
   55      H      -0.6069460331    -2.0933299096    -2.5970584750
   56      H      -0.6147234400    -2.7030983326    -0.9059013851
 ----------------------------------------------------------------

    9   -1510.2799182753      4.67E-09 Convergence criterion met
 Total energy in the final basis set = -1510.27991828
 Final energy is   -1510.27991827529
 **  OPTIMIZATION CONVERGED  **

                    Orbital Energies (a.u.)
 --------------------------------------------------------------

 Alpha MOs
 -- Occupied --
-18.949 -18.937 -18.921 -18.920 -18.891 -18.888 -18.885 -18.880
-18.865 -18.865 -10.114 -10.102 -10.092 -10.091 -10.083 -10.067
-10.063 -10.060 -10.057 -10.056 -10.055 -10.054 -10.041 -10.038
-10.034 -10.033 -10.022 -10.020 -10.020 -10.018  -1.022  -1.015
 -1.000  -0.999  -0.971  -0.969  -0.951  -0.940  -0.927  -0.926
 -0.764  -0.762  -0.731  -0.722  -0.715  -0.705  -0.697  -0.656
 -0.654  -0.622  -0.596  -0.583  -0.546  -0.544  -0.537  -0.536
 -0.515  -0.508  -0.482  -0.469  -0.460  -0.456  -0.454  -0.450
 -0.444  -0.431  -0.429  -0.409  -0.407  -0.405  -0.403  -0.398
 -0.389  -0.383  -0.381  -0.367  -0.361  -0.355  -0.352  -0.349
 -0.344  -0.342  -0.334  -0.333  -0.331  -0.326  -0.324  -0.312
 -0.310  -0.305  -0.303  -0.303  -0.295  -0.281  -0.279  -0.274
 -0.272  -0.259  -0.253  -0.246  -0.245  -0.235  -0.232  -0.189
 -0.183  -0.166  -0.166  -0.158  -0.157  -0.146  -0.145  -0.143
 -0.142

          Ground-State Mulliken Net Atomic Charges

     Atom                 Charge (a.u.)
  ----------------------------------------
      1 O                    -0.212282
      2 C                     0.215955
      3 C                    -0.080512
      4 C                    -0.077347
      5 C                     0.219743
      6 O                    -0.169218
      7 C                    -0.048499
      8 C                    -0.062429
      9 O                    -0.175315
     10 C                     0.216521
     11 C                    -0.077573
     12 C                    -0.080299
     13 C                     0.216614
     14 O                    -0.213672
     15 O                    -0.179602
     16 O                    -0.178320
     17 O                    -0.207615
     18 C                    -0.128949
     19 C                     0.024966
     20 C                    -0.144344
     21 C                    -0.143126
     22 C                     0.024113
     23 O                    -0.188575
     24 H                     0.086416
     25 H                     0.083201
     26 H                     0.083098
     27 H                     0.078189
     28 H                     0.073130
     29 H                     0.078307
     30 H                     0.072936
     31 H                     0.091602
     32 O                    -0.205463
     33 C                    -0.129744
     34 C                     0.024563
     35 C                    -0.143689
     36 C                    -0.143828
     37 C                     0.025373
     38 O                    -0.188082
     39 H                     0.083557
     40 H                     0.087051
     41 H                     0.094090
     42 H                     0.091493
     43 H                     0.078443
     44 H                     0.073330
     45 H                     0.078456
     46 H                     0.073676
     47 H                     0.082826
     48 H                     0.088737
     49 H                     0.085599
     50 H                     0.085612
     51 H                     0.088263
     52 H                     0.090574
     53 H                     0.083175
     54 H                     0.117490
     55 H                     0.092429
     56 H                     0.088951
  ----------------------------------------
  Sum of atomic charges =    -0.000000

                    Cartesian Multipole Moments
 -----------------------------------------------------------------
    Charge (ESU x 10^10)
                 0.0000
    Dipole Moment (Debye)
         X      -0.5675      Y      -1.9768      Z      -4.4915
       Tot       4.9400
    Quadrupole Moments (Debye-Ang)
        XX    -140.3687     XY      -7.2066     YY    -154.3758
        XZ       1.7327     YZ      -4.0739     ZZ    -167.0108

 Total job time:  56.49s(wall), 2684.90s(cpu)
        *  Thank you very much for using Q-Chem.  Have a nice day.  *
