 Q-Chem 5.0, Q-Chem, Inc., Pleasanton, CA (2017)
 Q-Chem 5.0.1 for Intel X86 EM64T Linux

User input:
--------------------------------------------------------------
$molecule
0  1
O 1.2550611853 2.1586276439 -1.204944103
C 1.711109208 1.6711256672 -0.1515303765
C 3.1360265892 1.0005643207 -0.0219881671
C 3.1944886663 -0.5397701092 0.325752226
C 1.8365062614 -1.2986630286 0.1039861202
O 1.9181240828 -2.5237579562 0.8490512819
C 0.6028899896 -3.1812979217 1.0103991044
C -0.3834708642 -2.4773592999 2.033254569
O -1.6802592488 -2.2278475663 1.3662912177
C -1.8474267384 -0.851557048 1.001218855
C -3.2819167114 -0.71819288 0.3926658973
C -3.7108322501 0.7611919463 0.0295184713
C -2.5887971169 1.8431811797 0.2468120309
O -1.847010759 2.3338705004 -0.6301460502
O 0.9652875363 1.9152906816 1.0630437267
O -2.6289434387 2.2739070507 1.6113768788
O -0.9898266066 0.035098395 1.1943541502
C -1.542028204 3.2576425985 1.8384707104
C -3.393102715 -1.4281646039 -1.0291005768
C -4.9243687332 -1.6566208183 -1.3416497449
C -5.3839125067 -0.1898344681 -1.6802756834
C -4.0264672781 0.6020938918 -1.5171727798
O -3.0010429465 -0.3645068165 -1.9768208647
H -3.9875329823 -1.1763385817 1.1092147139
H -4.602819717 1.0591140519 0.6087027314
H -2.7456111823 -2.3189754517 -1.1443681282
H -5.0417933409 -2.3271062815 -2.207906571
H -5.4656533424 -2.088308292 -0.4845886914
H -5.75614616 -0.1115103832 -2.7140614613
H -6.1634080156 0.1792232335 -0.9945829282
H -3.947575195 1.5437650679 -2.0937873785
O 0.8416401098 -0.9221228108 -0.5496771277
C 1.5079780078 1.3158221974 2.2948130463
C 3.9307510231 1.038543507 -1.3990229791
C 5.4695054969 1.0384192934 -1.0526193421
C 5.6470826266 -0.4329980465 -0.5202940871
C 4.2120451542 -1.0378606809 -0.7951225378
O 3.7281342177 -0.305858664 -1.9861827342
H 3.6992748935 1.5667353054 0.7411655202
H 3.56433031 -0.7412683174 1.3457158851
H 1.5289363776 0.209964948 2.2505880293
H 3.5793270446 1.823258282 -2.0970990702
H 6.0665441692 1.2111253565 -1.9625029668
H 5.7354193889 1.8011761844 -0.3033837829
H 6.4139671777 -0.9832248008 -1.0879404578
H 5.9077683443 -0.4687192409 0.5498072031
H 4.1887590748 -2.1313660688 -0.9695043364
H 0.8121460695 1.6190828825 3.0991318161
H 2.5224282932 1.6902353419 2.5424411408
H -1.5075059085 3.4246209203 2.9306662267
H -1.761383106 4.2191668402 1.3306326535
H -0.5680464314 2.8576836508 1.4668656086
H -0.5840871233 -3.1391218574 2.8994804619
H 0.0490069946 -1.5155250693 2.3856095184
H 0.8416375657 -4.2072678119 1.354160136
H 0.0761161193 -3.2467856318 0.0321338731
$end

$rem
JOBTYPE                   OPT
METHOD                    B3LYP
DFT_D                     d3_op
BASIS                     STO-3G
GEOM_OPT_MAX_CYCLES       100
GEOM_OPT_TOL_GRADIENT     300
GEOM_OPT_TOL_DISPLACEMENT 1200
GEOM_OPT_TOL_ENERGY       100
SYMMETRY                  False
THRESH                    12
SCF_CONVERGENCE           8
MAX_SUB_FILE_NUM          128
MEM_STATIC                400
MEM_TOTAL                 4000
$end
--------------------------------------------------------------

   16   -1510.2751354115      4.95E-09 Convergence criterion met
 Total energy in the final basis set = -1510.27513541
   15   -1510.2734280543      3.88E-09 Convergence criterion met
 Total energy in the final basis set = -1510.27342805
   15   -1510.2622585331      2.28E-09 Convergence criterion met
 Total energy in the final basis set = -1510.26225853
   14   -1510.2724097053      6.95E-09 Convergence criterion met
 Total energy in the final basis set = -1510.27240971
   15   -1510.2747407902      4.38E-09 Convergence criterion met
 Total energy in the final basis set = -1510.27474079
   13   -1510.2758140429      9.11E-09 Convergence criterion met
 Total energy in the final basis set = -1510.27581404
   14   -1510.2772990713      3.55E-09 Convergence criterion met
 Total energy in the final basis set = -1510.27729907
   14   -1510.2777212074      5.50E-09 Convergence criterion met
   11   -1510.2937646582      5.49E-09 Convergence criterion met
 Total energy in the final basis set = -1510.29376466
   11   -1510.2937703060      3.59E-09 Convergence criterion met
 Total energy in the final basis set = -1510.29377031
   10   -1510.2937801771      8.70E-09 Convergence criterion met
 Total energy in the final basis set = -1510.29378018
   11   -1510.2937839471      1.88E-09 Convergence criterion met
 Total energy in the final basis set = -1510.29378395
   10   -1510.2937852329      3.43E-09 Convergence criterion met
 Total energy in the final basis set = -1510.29378523
    9   -1510.2937863593      3.63E-09 Convergence criterion met
 Total energy in the final basis set = -1510.29378636

             Standard Nuclear Orientation (Angstroms)
    I     Atom           X                Y                Z
 ----------------------------------------------------------------
    1      O       2.7391292500     2.9259588941    -1.0678148998
    2      C       2.3194217472     2.2166547641    -0.1290458533
    3      C       3.2286909469     1.2086948874     0.6924232836
    4      C       2.9916266480    -0.3233248063     0.3873012041
    5      C       1.9471311267    -0.5256231887    -0.7575619023
    6      O       1.7919740649    -1.9183588972    -1.0113846437
    7      C       0.6134384595    -2.1656227850    -1.8786277945
    8      C      -0.3625597158    -3.1406432569    -1.1137597240
    9      O      -1.6103132869    -2.5091557877    -0.6210624384
   10      C      -1.3502962140    -1.5145229347     0.3691109975
   11      C      -2.7195583913    -0.9842108354     0.9498855598
   12      C      -3.1526013980     0.4286667387     0.3782631012
   13      C      -2.1333266084     0.9601044638    -0.6819738544
   14      O      -1.3284168421     0.2494480193    -1.3317443895
   15      O       0.9859375348     2.5109346994     0.3540850856
   16      O      -2.2560577308     2.3660507468    -0.7940060393
   17      O      -0.2057539003    -1.2268078323     0.7991707479
   18      C      -1.1400200242     2.9116911248    -1.6160897251
   19      C      -3.9655366866    -1.8712776383     0.5282668916
   20      C      -5.1777823593    -1.5054294482     1.4750358242
   21      C      -5.6090829004    -0.1084516795     0.8936933755
   22      C      -4.5607261704     0.0709800026    -0.2731039546
   23      O      -4.3623431613    -1.3037631979    -0.7814614346
   24      H      -2.6041837571    -0.9371774339     2.0478652361
   25      H      -3.2637722406     1.1833506714     1.1762700756
   26      H      -3.7469319610    -2.9513972775     0.4314809927
   27      H      -5.9826997839    -2.2507227802     1.3750448224
   28      H      -4.8756078702    -1.4511587159     2.5330552563
   29      H      -6.6333806967    -0.1374755433     0.4890324309
   30      H      -5.5446601274     0.7020282388     1.6370660514
   31      H      -4.8734115939     0.7498009175    -1.0903127407
   32      O       1.3464542495     0.3848170325    -1.3745883638
   33      C       0.4576145149     1.6341490936     1.4213149970
   34      C       4.7479563414     1.3659182460     0.2525648857
   35      C       5.6527871110     0.7517339979     1.3909137926
   36      C       5.3947867622    -0.7867251506     1.1815056842
   37      C       4.4417942350    -0.7694890415    -0.0790666323
   38      O       4.9017982545     0.3999384457    -0.8602731189
   39      H       3.1141213608     1.4146505723     1.7704876992
   40      H       2.6513353183    -0.8851687543     1.2756846251
   41      H       0.3046019249     0.5727199219     1.1031617095
   42      H       5.0143134982     2.3857085869    -0.0862783450
   43      H       6.7104152877     1.0091518206     1.2205744049
   44      H       5.3609478784     1.1023643095     2.3938742550
   45      H       6.3270652580    -1.3275776880     0.9541450301
   46      H       4.9144355717    -1.2600488860     2.0527572302
   47      H       4.4543615483    -1.6881532201    -0.6972423153
   48      H      -0.5286248705     2.0657400675     1.6770769867
   49      H       1.0909522101     1.6576837671     2.3303496423
   50      H      -1.3995536884     3.9668613550    -1.8149968650
   51      H      -1.0353364028     2.3590206649    -2.5700094534
   52      H      -0.1935956074     2.8389057443    -1.0229206399
   53      H      -0.7160346115    -3.9390570845    -1.7965274919
   54      H       0.1979197958    -3.6064916413    -0.2724987002
   55      H       0.9653207148    -2.6410108237    -2.8178728057
   56      H       0.1046714091    -1.2019652795    -2.1086823566
 ----------------------------------------------------------------

    9   -1510.2937873016      3.14E-09 Convergence criterion met
 Total energy in the final basis set = -1510.29378730
 Final energy is   -1510.29378730159
 **  OPTIMIZATION CONVERGED  **

                    Orbital Energies (a.u.)
 --------------------------------------------------------------

 Alpha MOs
 -- Occupied --
-18.939 -18.933 -18.932 -18.920 -18.890 -18.884 -18.883 -18.876
-18.872 -18.855 -10.108 -10.102 -10.100 -10.090 -10.075 -10.064
-10.063 -10.061 -10.058 -10.054 -10.046 -10.040 -10.039 -10.037
-10.033 -10.030 -10.023 -10.022 -10.019 -10.017  -1.020  -1.010
 -1.006  -0.989  -0.972  -0.967  -0.941  -0.937  -0.933  -0.921
 -0.765  -0.760  -0.728  -0.721  -0.713  -0.704  -0.694  -0.651
 -0.647  -0.619  -0.595  -0.580  -0.548  -0.544  -0.539  -0.535
 -0.514  -0.507  -0.483  -0.473  -0.461  -0.455  -0.452  -0.446
 -0.436  -0.435  -0.429  -0.417  -0.410  -0.403  -0.397  -0.394
 -0.391  -0.380  -0.377  -0.369  -0.366  -0.358  -0.352  -0.346
 -0.340  -0.334  -0.333  -0.330  -0.326  -0.319  -0.313  -0.311
 -0.308  -0.307  -0.304  -0.298  -0.291  -0.285  -0.281  -0.278
 -0.270  -0.257  -0.249  -0.242  -0.236  -0.232  -0.230  -0.186
 -0.174  -0.171  -0.160  -0.155  -0.152  -0.147  -0.145  -0.141
 -0.134

          Ground-State Mulliken Net Atomic Charges

     Atom                 Charge (a.u.)
  ----------------------------------------
      1 O                    -0.209513
      2 C                     0.219328
      3 C                    -0.085947
      4 C                    -0.079079
      5 C                     0.224190
      6 O                    -0.172981
      7 C                    -0.059372
      8 C                    -0.047420
      9 O                    -0.164825
     10 C                     0.222340
     11 C                    -0.080742
     12 C                    -0.080220
     13 C                     0.213456
     14 O                    -0.211994
     15 O                    -0.174629
     16 O                    -0.170513
     17 O                    -0.234303
     18 C                    -0.146321
     19 C                     0.025878
     20 C                    -0.144593
     21 C                    -0.143542
     22 C                     0.025857
     23 O                    -0.186887
     24 H                     0.082243
     25 H                     0.085077
     26 H                     0.088845
     27 H                     0.078180
     28 H                     0.072648
     29 H                     0.078695
     30 H                     0.074208
     31 H                     0.085663
     32 O                    -0.198903
     33 C                    -0.144425
     34 C                     0.025591
     35 C                    -0.144050
     36 C                    -0.144173
     37 C                     0.024835
     38 O                    -0.188732
     39 H                     0.077332
     40 H                     0.089689
     41 H                     0.104912
     42 H                     0.091296
     43 H                     0.078033
     44 H                     0.071769
     45 H                     0.077777
     46 H                     0.072627
     47 H                     0.086257
     48 H                     0.082407
     49 H                     0.071800
     50 H                     0.082860
     51 H                     0.088205
     52 H                     0.121031
     53 H                     0.091160
     54 H                     0.090578
     55 H                     0.085094
     56 H                     0.123302
  ----------------------------------------
  Sum of atomic charges =    -0.000000

                    Cartesian Multipole Moments
 -----------------------------------------------------------------
    Charge (ESU x 10^10)
                -0.0000
    Dipole Moment (Debye)
         X      -1.4924      Y      -2.6344      Z       4.0827
       Tot       5.0828
    Quadrupole Moments (Debye-Ang)
        XX    -154.4334     XY      -6.6370     YY    -160.7638
        XZ       3.9604     YZ       5.0817     ZZ    -157.2818

 Total job time:  259.52s(wall), 12397.02s(cpu)
        *  Thank you very much for using Q-Chem.  Have a nice day.  *
