 Q-Chem 5.0, Q-Chem, Inc., Pleasanton, CA (2017)
 Q-Chem 5.0.1 for Intel X86 EM64T Linux

User input:
--------------------------------------------------------------
$molecule
0  1
O -3.94934 -3.66094 2.70899
C -3.26408 -4.56952 2.26188
C -3.36658 -6.02376 2.66595
C -2.14639 -6.64683 3.36365
C -1.02787 -5.70021 3.73903
O 0.12074 -6.40459 3.96254
C 1.28909 -5.57842 4.00314
C 1.64438 -5.1011 2.59883
O 1.77631 -3.67095 2.58678
C 0.73707 -2.9941 2.03817
C 0.97044 -1.50315 1.98113
C -0.12776 -0.70295 1.26565
C -1.43515 -1.43425 1.03623
O -2.43914 -1.32432 1.72506
O -2.56103 -4.2989 1.13331
O -1.58138 -1.89946 -0.23473
O -0.18462 -3.571 1.50497
C -2.7888 -2.00105 -0.90004
C 0.97953 -0.82977 3.3652
C 1.77531 0.47147 3.2912
C 0.83948 1.32634 2.46081
C -0.3629 0.38084 2.34202
O -0.33408 -0.36216 3.53699
H 1.95911 -1.3578 1.48889
H 0.20139 -0.25377 0.30191
H 1.37698 -1.48253 4.17293
H 1.81354 0.88563 4.32443
H 2.80988 0.38019 2.89596
H 0.57624 2.23172 3.05153
H 1.22477 1.62049 1.46054
H -1.29107 0.96488 2.15382
O -1.20649 -4.56321 4.16061
C -2.05445 -5.22813 0.23758
C -4.42848 -6.22588 3.77466
C -4.89977 -7.68073 3.80329
C -3.6886 -8.35579 4.40579
C -2.79871 -7.13847 4.66894
O -3.70801 -6.11204 4.97476
H -3.71033 -6.60597 1.78363
H -1.70929 -7.49125 2.78366
H -1.33844 -5.91172 0.73852
H -5.3111 -5.55755 3.66955
H -5.73869 -7.74666 4.53282
H -5.23334 -8.08511 2.82347
H -3.98926 -8.82298 5.37013
H -3.19142 -9.10988 3.758
H -2.04915 -7.37556 5.45661
H -1.51881 -4.69822 -0.57592
H -2.88048 -5.80999 -0.22222
H -2.61433 -2.436 -1.90534
H -3.23402 -0.99093 -1.02281
H -3.50782 -2.64003 -0.35174
H 2.63082 -5.52324 2.30943
H 0.96108 -5.52791 1.83094
H 2.12711 -6.2119 4.36532
H 1.19906 -4.74894 4.74123
$end

$opt
CONSTRAINT
tors           1           2           3           4    -115.783
tors           3           4           5           6    -161.683
tors           4           5           6           7    +165.746
tors           5           6           7           8     -73.041
tors           6           7           8           9    +127.068
tors           7           8           9          10    -103.882
tors           8           9          10          11    -176.614
tors           9          10          11          12    +175.286
tors          11          12          13          14     +99.327
ENDCONSTRAINT
$end

$rem
JOBTYPE                   OPT
METHOD                    B3LYP
DFT_D                     d3_op
BASIS                     STO-3G
GEOM_OPT_MAX_CYCLES       100
GEOM_OPT_TOL_GRADIENT     300
GEOM_OPT_TOL_DISPLACEMENT 1200
GEOM_OPT_TOL_ENERGY       100
SYMMETRY                  False
THRESH                    12
SCF_CONVERGENCE           8
MAX_SUB_FILE_NUM          128
MEM_STATIC                400
MEM_TOTAL                 4000
$end
--------------------------------------------------------------

   15   -1510.1350405947      8.30E-09 Convergence criterion met
 Total energy in the final basis set = -1510.13504059
   14   -1510.2029400382      7.14E-09 Convergence criterion met
 Total energy in the final basis set = -1510.20294004
   15   -1510.2203363405      4.14E-09 Convergence criterion met
 Total energy in the final basis set = -1510.22033634
   15   -1510.2523356201      2.41E-09 Convergence criterion met
 Total energy in the final basis set = -1510.25233562
   14   -1510.2590237259      9.78E-09 Convergence criterion met
 Total energy in the final basis set = -1510.25902373
   13   -1510.2667904314      9.22E-09 Convergence criterion met
 Total energy in the final basis set = -1510.26679043
   13   -1510.2716007747      4.12E-09 Convergence criterion met
 Total energy in the final basis set = -1510.27160077
   14   -1510.2723090312      3.20E-09 Convergence criterion met
   11   -1510.2750706860      8.34E-09 Convergence criterion met
 Total energy in the final basis set = -1510.27507069
   10   -1510.2750761501      7.21E-09 Convergence criterion met
 Total energy in the final basis set = -1510.27507615
   10   -1510.2750875184      9.66E-09 Convergence criterion met
 Total energy in the final basis set = -1510.27508752
   10   -1510.2750963762      9.17E-09 Convergence criterion met
 Total energy in the final basis set = -1510.27509638
    9   -1510.2751021284      7.74E-09 Convergence criterion met
 Total energy in the final basis set = -1510.27510213
   10   -1510.2751063888      6.69E-09 Convergence criterion met
 Total energy in the final basis set = -1510.27510639

             Standard Nuclear Orientation (Angstroms)
    I     Atom           X                Y                Z
 ----------------------------------------------------------------
    1      O       1.2550611853     2.1586276439    -1.2049441030
    2      C       1.7111092080     1.6711256672    -0.1515303765
    3      C       3.1360265892     1.0005643207    -0.0219881671
    4      C       3.1944886663    -0.5397701092     0.3257522260
    5      C       1.8365062614    -1.2986630286     0.1039861202
    6      O       1.9181240828    -2.5237579562     0.8490512819
    7      C       0.6028899896    -3.1812979217     1.0103991044
    8      C      -0.3834708642    -2.4773592999     2.0332545690
    9      O      -1.6802592488    -2.2278475663     1.3662912177
   10      C      -1.8474267384    -0.8515570480     1.0012188550
   11      C      -3.2819167114    -0.7181928800     0.3926658973
   12      C      -3.7108322501     0.7611919463     0.0295184713
   13      C      -2.5887971169     1.8431811797     0.2468120309
   14      O      -1.8470107590     2.3338705004    -0.6301460502
   15      O       0.9652875363     1.9152906816     1.0630437267
   16      O      -2.6289434387     2.2739070507     1.6113768788
   17      O      -0.9898266066     0.0350983950     1.1943541502
   18      C      -1.5420282040     3.2576425985     1.8384707104
   19      C      -3.3931027150    -1.4281646039    -1.0291005768
   20      C      -4.9243687332    -1.6566208183    -1.3416497449
   21      C      -5.3839125067    -0.1898344681    -1.6802756834
   22      C      -4.0264672781     0.6020938918    -1.5171727798
   23      O      -3.0010429465    -0.3645068165    -1.9768208647
   24      H      -3.9875329823    -1.1763385817     1.1092147139
   25      H      -4.6028197170     1.0591140519     0.6087027314
   26      H      -2.7456111823    -2.3189754517    -1.1443681282
   27      H      -5.0417933409    -2.3271062815    -2.2079065710
   28      H      -5.4656533424    -2.0883082920    -0.4845886914
   29      H      -5.7561461600    -0.1115103832    -2.7140614613
   30      H      -6.1634080156     0.1792232335    -0.9945829282
   31      H      -3.9475751950     1.5437650679    -2.0937873785
   32      O       0.8416401098    -0.9221228108    -0.5496771277
   33      C       1.5079780078     1.3158221974     2.2948130463
   34      C       3.9307510231     1.0385435070    -1.3990229791
   35      C       5.4695054969     1.0384192934    -1.0526193421
   36      C       5.6470826266    -0.4329980465    -0.5202940871
   37      C       4.2120451542    -1.0378606809    -0.7951225378
   38      O       3.7281342177    -0.3058586640    -1.9861827342
   39      H       3.6992748935     1.5667353054     0.7411655202
   40      H       3.5643303100    -0.7412683174     1.3457158851
   41      H       1.5289363776     0.2099649480     2.2505880293
   42      H       3.5793270446     1.8232582820    -2.0970990702
   43      H       6.0665441692     1.2111253565    -1.9625029668
   44      H       5.7354193889     1.8011761844    -0.3033837829
   45      H       6.4139671777    -0.9832248008    -1.0879404578
   46      H       5.9077683443    -0.4687192409     0.5498072031
   47      H       4.1887590748    -2.1313660688    -0.9695043364
   48      H       0.8121460695     1.6190828825     3.0991318161
   49      H       2.5224282932     1.6902353419     2.5424411408
   50      H      -1.5075059085     3.4246209203     2.9306662267
   51      H      -1.7613831060     4.2191668402     1.3306326535
   52      H      -0.5680464314     2.8576836508     1.4668656086
   53      H      -0.5840871233    -3.1391218574     2.8994804619
   54      H       0.0490069946    -1.5155250693     2.3856095184
   55      H       0.8416375657    -4.2072678119     1.3541601360
   56      H       0.0761161193    -3.2467856318     0.0321338731
 ----------------------------------------------------------------

    9   -1510.2751078379      3.53E-09 Convergence criterion met
 Total energy in the final basis set = -1510.27510784
 Final energy is   -1510.27510783785
 **  OPTIMIZATION CONVERGED  **

                    Orbital Energies (a.u.)
 --------------------------------------------------------------

 Alpha MOs
 -- Occupied --
-18.936 -18.934 -18.934 -18.901 -18.890 -18.888 -18.884 -18.878
-18.872 -18.845 -10.105 -10.102 -10.096 -10.078 -10.077 -10.072
-10.070 -10.063 -10.057 -10.053 -10.047 -10.043 -10.037 -10.033
-10.023 -10.023 -10.022 -10.020 -10.013 -10.011  -1.020  -1.011
 -0.998  -0.981  -0.971  -0.960  -0.947  -0.938  -0.931  -0.906
 -0.765  -0.755  -0.729  -0.719  -0.710  -0.702  -0.691  -0.665
 -0.636  -0.625  -0.595  -0.580  -0.549  -0.539  -0.537  -0.528
 -0.513  -0.504  -0.484  -0.468  -0.467  -0.456  -0.447  -0.443
 -0.437  -0.433  -0.423  -0.418  -0.407  -0.404  -0.398  -0.397
 -0.389  -0.380  -0.375  -0.367  -0.355  -0.352  -0.347  -0.341
 -0.338  -0.332  -0.328  -0.325  -0.320  -0.316  -0.315  -0.311
 -0.309  -0.307  -0.299  -0.298  -0.292  -0.284  -0.282  -0.266
 -0.264  -0.260  -0.246  -0.241  -0.234  -0.224  -0.220  -0.187
 -0.174  -0.167  -0.161  -0.156  -0.150  -0.144  -0.138  -0.134
 -0.124

          Ground-State Mulliken Net Atomic Charges

     Atom                 Charge (a.u.)
  ----------------------------------------
      1 O                    -0.184039
      2 C                     0.221236
      3 C                    -0.085879
      4 C                    -0.079830
      5 C                     0.207806
      6 O                    -0.179077
      7 C                    -0.052669
      8 C                    -0.054169
      9 O                    -0.177747
     10 C                     0.218753
     11 C                    -0.077362
     12 C                    -0.081122
     13 C                     0.212752
     14 O                    -0.206972
     15 O                    -0.160722
     16 O                    -0.180369
     17 O                    -0.201131
     18 C                    -0.146069
     19 C                     0.026762
     20 C                    -0.143588
     21 C                    -0.144823
     22 C                     0.026148
     23 O                    -0.183858
     24 H                     0.084477
     25 H                     0.081210
     26 H                     0.083559
     27 H                     0.076814
     28 H                     0.071566
     29 H                     0.076970
     30 H                     0.071832
     31 H                     0.089101
     32 O                    -0.191278
     33 C                    -0.122981
     34 C                     0.025776
     35 C                    -0.142974
     36 C                    -0.145140
     37 C                     0.025595
     38 O                    -0.186819
     39 H                     0.077451
     40 H                     0.083040
     41 H                     0.082128
     42 H                     0.095458
     43 H                     0.079343
     44 H                     0.072129
     45 H                     0.078831
     46 H                     0.071939
     47 H                     0.083645
     48 H                     0.095635
     49 H                     0.077538
     50 H                     0.071250
     51 H                     0.075095
     52 H                     0.116651
     53 H                     0.088660
     54 H                     0.093604
     55 H                     0.089669
     56 H                     0.096197
  ----------------------------------------
  Sum of atomic charges =    -0.000000

                    Cartesian Multipole Moments
 -----------------------------------------------------------------
    Charge (ESU x 10^10)
                -0.0000
    Dipole Moment (Debye)
         X       1.6804      Y      -2.6856      Z       4.6576
       Tot       5.6328
    Quadrupole Moments (Debye-Ang)
        XX    -136.0040     XY       5.3642     YY    -156.1726
        XZ       6.1232     YZ       1.4927     ZZ    -161.3173

 Total job time:  63.41s(wall), 3023.17s(cpu)
        *  Thank you very much for using Q-Chem.  Have a nice day.  *
