 Q-Chem 5.0, Q-Chem, Inc., Pleasanton, CA (2017)
 Q-Chem 5.0.1 for Intel X86 EM64T Linux

User input:
--------------------------------------------------------------
$molecule
0  1
O -3.94934 -3.66094 2.70899
C -3.26408 -4.56952 2.26188
C -3.36658 -6.02376 2.66595
C -2.37505 -6.52992 3.72638
C -1.50921 -5.48439 4.39367
O -0.56959 -6.09136 5.17733
C 0.48029 -5.2075 5.58452
C 1.40032 -4.9061 4.40604
O 1.45564 -3.48908 4.17826
C 1.82768 -3.11332 2.92944
C 1.88868 -1.61393 2.75985
C 2.41427 -1.13739 1.39788
C 2.45925 -2.18493 0.30366
O 2.40574 -1.95892 -0.8966
O -2.26192 -4.27017 1.39607
O 3.25641 -3.25009 0.61682
O 1.39638 -3.80891 2.01752
C 3.60964 -4.29502 -0.22006
C 0.50847 -0.92793 2.78528
C 0.67316 0.53257 3.19956
C 1.35396 1.09827 1.96919
C 1.30891 -0.12469 1.04384
O 0.14456 -0.80622 1.433
H 2.50049 -1.22129 3.60378
H 3.42302 -0.67238 1.45538
H -0.22526 -1.43718 3.44771
H -0.3518 0.96308 3.26865
H 1.20647 0.7064 4.15881
H 0.72566 1.92568 1.57108
H 2.39768 1.449 2.12212
H 1.34985 0.19816 -0.01954
O -1.54735 -4.27553 4.19752
C -2.04765 -3.01296 0.87608
C -4.68986 -6.30949 3.42019
C -5.03974 -7.7947 3.3264
C -3.99991 -8.38789 4.25188
C -3.33561 -7.11032 4.77357
O -4.3719 -6.16168 4.78241
H -3.38674 -6.62501 1.72932
H -1.68497 -7.28257 3.28289
H -1.88851 -2.28794 1.69946
H -5.546 -5.70295 3.05074
H -6.0422 -7.92384 3.79439
H -5.05993 -8.21713 2.29885
H -4.52469 -8.92083 5.07577
H -3.26372 -9.06565 3.76771
H -2.84088 -7.30266 5.7511
H -2.92428 -2.69632 0.27175
H -1.14981 -3.03463 0.22472
H 3.2876 -5.25127 0.24155
H 4.71237 -4.31056 -0.33982
H 3.13821 -4.22089 -1.22327
H 2.43195 -5.24714 4.64519
H 1.08141 -5.50975 3.52662
H 1.08148 -5.76135 6.33727
H 0.10553 -4.29782 6.10721
$end

$opt
CONSTRAINT
tors           1           2           3           4     -97.080
tors           3           4           5           6    -172.285
tors           4           5           6           7    +165.834
tors           5           6           7           8     -73.041
tors           6           7           8           9    +122.550
tors           7           8           9          10    -157.689
tors           8           9          10          11    -179.055
tors           9          10          11          12    +175.286
tors          11          12          13          14    +154.231
ENDCONSTRAINT
$end

$rem
JOBTYPE                   OPT
METHOD                    B3LYP
DFT_D                     d3_op
BASIS                     STO-3G
GEOM_OPT_MAX_CYCLES       100
GEOM_OPT_TOL_GRADIENT     300
GEOM_OPT_TOL_DISPLACEMENT 1200
GEOM_OPT_TOL_ENERGY       100
SYMMETRY                  False
THRESH                    12
SCF_CONVERGENCE           8
MAX_SUB_FILE_NUM          128
MEM_STATIC                400
MEM_TOTAL                 4000
$end
--------------------------------------------------------------

   15   -1510.1146330797      8.70E-09 Convergence criterion met
 Total energy in the final basis set = -1510.11463308
   14   -1510.1889668620      8.07E-09 Convergence criterion met
 Total energy in the final basis set = -1510.18896686
   14   -1510.2304530112      6.75E-09 Convergence criterion met
 Total energy in the final basis set = -1510.23045301
   14   -1510.2515416044      8.78E-09 Convergence criterion met
 Total energy in the final basis set = -1510.25154160
   14   -1510.2587043899      9.12E-09 Convergence criterion met
 Total energy in the final basis set = -1510.25870439
   14   -1510.2645977323      5.70E-09 Convergence criterion met
 Total energy in the final basis set = -1510.26459773
   13   -1510.2687900769      5.77E-09 Convergence criterion met
 Total energy in the final basis set = -1510.26879008
   12   -1510.2722312251      9.61E-09 Convergence criterion met
    9   -1510.2833480672      9.66E-09 Convergence criterion met
 Total energy in the final basis set = -1510.28334807
   10   -1510.2833617931      8.95E-09 Convergence criterion met
 Total energy in the final basis set = -1510.28336179
   10   -1510.2833802925      7.99E-09 Convergence criterion met
 Total energy in the final basis set = -1510.28338029
   11   -1510.2833939837      5.67E-09 Convergence criterion met
 Total energy in the final basis set = -1510.28339398
   10   -1510.2833963209      8.20E-09 Convergence criterion met
 Total energy in the final basis set = -1510.28339632
    9   -1510.2833992917      5.87E-09 Convergence criterion met
 Total energy in the final basis set = -1510.28339929

             Standard Nuclear Orientation (Angstroms)
    I     Atom           X                Y                Z
 ----------------------------------------------------------------
    1      O       2.5576060345     2.6758593976    -0.9759888843
    2      C       2.4267537620     1.9410206433     0.0280532188
    3      C       3.5410820749     1.0384429400     0.6789066680
    4      C       3.5278351028    -0.4835794148     0.2460743805
    5      C       2.3520295481    -0.8765153029    -0.7079888180
    6      O       2.3802675154    -2.3058990674    -0.8526835897
    7      C       1.1235064178    -2.8064814793    -1.4531046529
    8      C      -0.0925933776    -2.7550875484    -0.4518962134
    9      O      -1.1424253919    -1.9273061706    -1.0891057961
   10      C      -2.0344728716    -1.3993498332    -0.1023721664
   11      C      -3.1224602815    -0.5602665489    -0.8661922177
   12      C      -4.2513467655    -0.0090751268     0.0863863273
   13      C      -4.5423272037    -0.8321025388     1.3900950069
   14      O      -5.0248587065    -0.3819110216     2.4525248391
   15      O       1.2661436977     1.8948854840     0.8627650405
   16      O      -4.4351057825    -2.2295439758     1.0839400524
   17      O      -1.8733089180    -1.5192223558     1.1305617260
   18      C      -4.7563332156    -3.0447171051     2.2767250920
   19      C      -2.3953043707     0.8019491325    -1.2422245128
   20      C      -3.3609237395     1.7541951652    -2.0508549372
   21      C      -4.2653984027     2.3401181516    -0.9019535565
   22      C      -3.7690493431     1.4853276246     0.3253438561
   23      O      -2.3048741329     1.4283783345     0.0999836330
   24      H      -3.5084188862    -1.1184418476    -1.7366027017
   25      H      -5.2094393185     0.0045229760    -0.4677299261
   26      H      -1.3835212712     0.6687817830    -1.6741145109
   27      H      -2.7868458960     2.5432298284    -2.5616392396
   28      H      -3.9424896716     1.1981970672    -2.8037413459
   29      H      -4.0553040673     3.4085815035    -0.7329904230
   30      H      -5.3425014939     2.2151817173    -1.0966506728
   31      H      -3.9996999309     1.8884363860     1.3307142013
   32      O       1.4923645012    -0.1298894835    -1.2243581028
   33      C       0.2354589637     2.8419454070     0.3678991666
   34      C       4.9733112714     1.4790635014     0.1547008185
   35      C       6.0750899510     0.8633804748     1.1033509251
   36      C       6.0574534551    -0.6446586202     0.6524432413
   37      C       4.9453291826    -0.6118367213    -0.4686205167
   38      O       5.1268952598     0.7103563257    -1.1034486658
   39      H       3.4539901333     1.1257615930     1.7764176241
   40      H       3.4755133222    -1.1513201146     1.1246486341
   41      H       0.5172445362     3.1943006019    -0.6438523345
   42      H       5.0659533005     2.5634967861    -0.0473561380
   43      H       7.0541427535     1.3300702886     0.9111028566
   44      H       5.8250459372     0.9925163091     2.1683753667
   45      H       7.0255030673    -0.9496796396     0.2240051989
   46      H       5.8001053680    -1.3345053239     1.4718569094
   47      H       5.0058386310    -1.4233188815    -1.2199296592
   48      H       0.1899300609     3.7118243574     1.0535937339
   49      H      -0.7531668633     2.3253004736     0.3494426970
   50      H      -3.8234011592    -3.4722900617     2.6963615240
   51      H      -5.4280990902    -3.8658099339     1.9612042221
   52      H      -5.2497469035    -2.4105998504     3.0406847225
   53      H      -0.4854558737    -3.7770101558    -0.2585985429
   54      H       0.2093342356    -2.3162030584     0.5243430385
   55      H       1.3412349390    -3.8514537361    -1.7492226401
   56      H       0.8507578535    -2.2190803310    -2.3575896689
 ----------------------------------------------------------------

    9   -1510.2834000135      2.75E-09 Convergence criterion met
 Total energy in the final basis set = -1510.28340001
 Final energy is   -1510.28340001350
 **  OPTIMIZATION CONVERGED  **

                    Orbital Energies (a.u.)
 --------------------------------------------------------------

 Alpha MOs
 -- Occupied --
-18.935 -18.935 -18.929 -18.907 -18.901 -18.886 -18.884 -18.879
-18.873 -18.850 -10.104 -10.102 -10.100 -10.080 -10.078 -10.075
-10.066 -10.065 -10.058 -10.056 -10.053 -10.043 -10.041 -10.036
-10.028 -10.025 -10.024 -10.019 -10.018 -10.016  -1.019  -1.013
 -1.007  -0.987  -0.980  -0.966  -0.944  -0.939  -0.933  -0.912
 -0.768  -0.759  -0.731  -0.722  -0.714  -0.705  -0.695  -0.659
 -0.637  -0.620  -0.597  -0.578  -0.549  -0.541  -0.540  -0.532
 -0.516  -0.508  -0.486  -0.466  -0.463  -0.453  -0.448  -0.445
 -0.440  -0.435  -0.428  -0.414  -0.407  -0.405  -0.400  -0.396
 -0.384  -0.378  -0.371  -0.363  -0.360  -0.357  -0.352  -0.345
 -0.342  -0.340  -0.336  -0.330  -0.326  -0.323  -0.320  -0.316
 -0.310  -0.308  -0.302  -0.298  -0.295  -0.289  -0.277  -0.271
 -0.271  -0.256  -0.251  -0.246  -0.237  -0.230  -0.224  -0.187
 -0.178  -0.168  -0.159  -0.158  -0.157  -0.152  -0.147  -0.140
 -0.134

          Ground-State Mulliken Net Atomic Charges

     Atom                 Charge (a.u.)
  ----------------------------------------
      1 O                    -0.220989
      2 C                     0.212806
      3 C                    -0.081010
      4 C                    -0.078525
      5 C                     0.212850
      6 O                    -0.175466
      7 C                    -0.050113
      8 C                    -0.051472
      9 O                    -0.173687
     10 C                     0.219656
     11 C                    -0.074773
     12 C                    -0.078889
     13 C                     0.217640
     14 O                    -0.216036
     15 O                    -0.176602
     16 O                    -0.172901
     17 O                    -0.208934
     18 C                    -0.134749
     19 C                     0.025136
     20 C                    -0.145455
     21 C                    -0.141894
     22 C                     0.027069
     23 O                    -0.189558
     24 H                     0.089038
     25 H                     0.085110
     26 H                     0.097519
     27 H                     0.081791
     28 H                     0.075497
     29 H                     0.079900
     30 H                     0.075343
     31 H                     0.093925
     32 O                    -0.202341
     33 C                    -0.155035
     34 C                     0.025856
     35 C                    -0.144690
     36 C                    -0.143474
     37 C                     0.025566
     38 O                    -0.187845
     39 H                     0.084024
     40 H                     0.085924
     41 H                     0.089506
     42 H                     0.087955
     43 H                     0.077472
     44 H                     0.073351
     45 H                     0.077380
     46 H                     0.073057
     47 H                     0.084185
     48 H                     0.070038
     49 H                     0.110496
     50 H                     0.086872
     51 H                     0.084565
     52 H                     0.101121
     53 H                     0.084454
     54 H                     0.098600
     55 H                     0.090811
     56 H                     0.099927
  ----------------------------------------
  Sum of atomic charges =    -0.000000

                    Cartesian Multipole Moments
 -----------------------------------------------------------------
    Charge (ESU x 10^10)
                -0.0000
    Dipole Moment (Debye)
         X      -1.3415      Y      -2.7062      Z      -0.1442
       Tot       3.0239
    Quadrupole Moments (Debye-Ang)
        XX    -148.9004     XY      -4.7500     YY    -151.9917
        XZ      16.8788     YZ       2.3685     ZZ    -163.6654

 Total job time:  88.71s(wall), 4228.05s(cpu)
        *  Thank you very much for using Q-Chem.  Have a nice day.  *
