 Q-Chem 5.0, Q-Chem, Inc., Pleasanton, CA (2017)
 Q-Chem 5.0.1 for Intel X86 EM64T Linux

User input:
--------------------------------------------------------------
$molecule
0  1
O 2.5576060345 2.6758593976 -0.9759888843
C 2.426753762 1.9410206433 0.0280532188
C 3.5410820749 1.03844294 0.678906668
C 3.5278351028 -0.4835794148 0.2460743805
C 2.3520295481 -0.8765153029 -0.707988818
O 2.3802675154 -2.3058990674 -0.8526835897
C 1.1235064178 -2.8064814793 -1.4531046529
C -0.0925933776 -2.7550875484 -0.4518962134
O -1.1424253919 -1.9273061706 -1.0891057961
C -2.0344728716 -1.3993498332 -0.1023721664
C -3.1224602815 -0.5602665489 -0.8661922177
C -4.2513467655 -0.0090751268 0.0863863273
C -4.5423272037 -0.8321025388 1.3900950069
O -5.0248587065 -0.3819110216 2.4525248391
O 1.2661436977 1.894885484 0.8627650405
O -4.4351057825 -2.2295439758 1.0839400524
O -1.873308918 -1.5192223558 1.130561726
C -4.7563332156 -3.0447171051 2.276725092
C -2.3953043707 0.8019491325 -1.2422245128
C -3.3609237395 1.7541951652 -2.0508549372
C -4.2653984027 2.3401181516 -0.9019535565
C -3.7690493431 1.4853276246 0.3253438561
O -2.3048741329 1.4283783345 0.099983633
H -3.5084188862 -1.1184418476 -1.7366027017
H -5.2094393185 0.004522976 -0.4677299261
H -1.3835212712 0.668781783 -1.6741145109
H -2.786845896 2.5432298284 -2.5616392396
H -3.9424896716 1.1981970672 -2.8037413459
H -4.0553040673 3.4085815035 -0.732990423
H -5.3425014939 2.2151817173 -1.0966506728
H -3.9996999309 1.888436386 1.3307142013
O 1.4923645012 -0.1298894835 -1.2243581028
C 0.2354589637 2.841945407 0.3678991666
C 4.9733112714 1.4790635014 0.1547008185
C 6.075089951 0.8633804748 1.1033509251
C 6.0574534551 -0.6446586202 0.6524432413
C 4.9453291826 -0.6118367213 -0.4686205167
O 5.1268952598 0.7103563257 -1.1034486658
H 3.4539901333 1.125761593 1.7764176241
H 3.4755133222 -1.1513201146 1.1246486341
H 0.5172445362 3.1943006019 -0.6438523345
H 5.0659533005 2.5634967861 -0.047356138
H 7.0541427535 1.3300702886 0.9111028566
H 5.8250459372 0.9925163091 2.1683753667
H 7.0255030673 -0.9496796396 0.2240051989
H 5.800105368 -1.3345053239 1.4718569094
H 5.005838631 -1.4233188815 -1.2199296592
H 0.1899300609 3.7118243574 1.0535937339
H -0.7531668633 2.3253004736 0.349442697
H -3.8234011592 -3.4722900617 2.696361524
H -5.4280990902 -3.8658099339 1.9612042221
H -5.2497469035 -2.4105998504 3.0406847225
H -0.4854558737 -3.7770101558 -0.2585985429
H 0.2093342356 -2.3162030584 0.5243430385
H 1.341234939 -3.8514537361 -1.7492226401
H 0.8507578535 -2.219080331 -2.3575896689
$end

$rem
JOBTYPE                   OPT
METHOD                    B3LYP
DFT_D                     d3_op
BASIS                     STO-3G
GEOM_OPT_MAX_CYCLES       100
GEOM_OPT_TOL_GRADIENT     300
GEOM_OPT_TOL_DISPLACEMENT 1200
GEOM_OPT_TOL_ENERGY       100
SYMMETRY                  False
THRESH                    12
SCF_CONVERGENCE           8
MAX_SUB_FILE_NUM          128
MEM_STATIC                400
MEM_TOTAL                 4000
$end
--------------------------------------------------------------

   16   -1510.2831181809      6.10E-09 Convergence criterion met
 Total energy in the final basis set = -1510.28311818
   14   -1510.2858911974      2.19E-09 Convergence criterion met
 Total energy in the final basis set = -1510.28589120
   14   -1510.2851051569      3.47E-09 Convergence criterion met
 Total energy in the final basis set = -1510.28510516
   15   -1510.2739282998      4.98E-09 Convergence criterion met
 Total energy in the final basis set = -1510.27392830
   14   -1510.2776069173      4.72E-09 Convergence criterion met
 Total energy in the final basis set = -1510.27760692
   13   -1510.2821026359      6.28E-09 Convergence criterion met
 Total energy in the final basis set = -1510.28210264
   13   -1510.2840167767      4.62E-09 Convergence criterion met
 Total energy in the final basis set = -1510.28401678
   13   -1510.2861943801      5.78E-09 Convergence criterion met
   11   -1510.2953914839      2.74E-09 Convergence criterion met
 Total energy in the final basis set = -1510.29539148
   10   -1510.2953945811      7.23E-09 Convergence criterion met
 Total energy in the final basis set = -1510.29539458
    9   -1510.2953967536      9.89E-09 Convergence criterion met
 Total energy in the final basis set = -1510.29539675
   10   -1510.2953978922      8.72E-09 Convergence criterion met
 Total energy in the final basis set = -1510.29539789
   11   -1510.2954026418      3.27E-09 Convergence criterion met
 Total energy in the final basis set = -1510.29540264
    9   -1510.2954018091      6.80E-09 Convergence criterion met
 Total energy in the final basis set = -1510.29540181

             Standard Nuclear Orientation (Angstroms)
    I     Atom           X                Y                Z
 ----------------------------------------------------------------
    1      O      -2.4556808746     2.3967527496     0.9203243002
    2      C      -2.3327544087     1.8741839972    -0.2098274955
    3      C      -3.2715237088     0.8121435509    -0.8884042093
    4      C      -2.9352926668    -0.7069013479    -0.5900182336
    5      C      -1.7974857940    -0.9356699880     0.4681748580
    6      O      -1.8621710954    -2.3105327760     0.8609075598
    7      C      -0.9241027779    -2.6230560469     1.9624883582
    8      C       0.5253555653    -2.9973159819     1.4627621366
    9      O       1.4540824082    -1.8934836803     1.7932574080
   10      C       2.0433515007    -1.3445641956     0.6096198222
   11      C       2.8112258426    -0.0552278268     1.0359051127
   12      C       3.9431818346     0.4068157270     0.0300233887
   13      C       4.0998398089    -0.5360676227    -1.2177208436
   14      O       3.8311848331    -0.2670555304    -2.4077477953
   15      O      -1.3516205903     2.2349881734    -1.1809499786
   16      O       4.6985202514    -1.7607494591    -0.7694693795
   17      O       1.8878120524    -1.8101204121    -0.5411522907
   18      C       4.7917701379    -2.7248794782    -1.8889580808
   19      C       1.8092537769     1.1766573387     0.9595363893
   20      C       2.4274778864     2.3806807630     1.7652812406
   21      C       3.5780594462     2.8428055157     0.7927313050
   22      C       3.4006495965     1.8286726288    -0.4036261593
   23      O       1.9354887679     1.6054090438    -0.4539697341
   24      H       3.1965302854    -0.1974895424     2.0604097418
   25      H       4.9187143403     0.4697445097     0.5451653161
   26      H       0.7524572315     0.9138251080     1.1814821912
   27      H       1.6746113696     3.1725516162     1.9049509311
   28      H       2.8030116497     2.0687512200     2.7526477165
   29      H       3.4221111392     3.8766962398     0.4457609464
   30      H       4.5773560138     2.7721450714     1.2514135864
   31      H       3.7689362644     2.1720637895    -1.3898445169
   32      O      -0.9805370721    -0.1073491464     0.9256279939
   33      C      -0.4144840595     3.2544862916    -0.6459520893
   34      C      -4.7630343561     0.9008100683    -0.3451703900
   35      C      -5.7142880320     0.2362587747    -1.4149572233
   36      C      -5.3668644842    -1.2860494415    -1.2180354180
   37      C      -4.3325771068    -1.2140253103    -0.0259858514
   38      O      -4.7939184406    -0.0621912841     0.7803236211
   39      H      -3.2320656898     0.9939727618    -1.9767921709
   40      H      -2.6549385702    -1.2457064316    -1.5140342959
   41      H      -0.7267185871     3.5367921714     0.3790504894
   42      H      -5.0622774484     1.9082036531     0.0032660569
   43      H      -6.7689594428     0.4427802498    -1.1726275574
   44      H      -5.5089819178     0.5930423469    -2.4368821222
   45      H      -6.2532939402    -1.8700622489    -0.9240205888
   46      H      -4.9259170401    -1.7421584869    -2.1188446408
   47      H      -4.2559884228    -2.1267258251     0.5958433446
   48      H      -0.4507607957     4.1409977912    -1.3082730607
   49      H       0.6089511773     2.8035932692    -0.6422586811
   50      H       4.0305502292    -3.5202171098    -1.7567646425
   51      H       5.8022264852    -3.1765830189    -1.8749339825
   52      H       4.6129102964    -2.2016777902    -2.8498360203
   53      H       0.8792461524    -3.9115001302     1.9833364713
   54      H       0.5386809860    -3.1682451281     0.3631654129
   55      H      -1.3759402128    -3.4896859993     2.4859867074
   56      H      -0.8436055800    -1.7661560568     2.6663500260
 ----------------------------------------------------------------

    8   -1510.2954019604      9.34E-09 Convergence criterion met
 Total energy in the final basis set = -1510.29540196
 Final energy is   -1510.29540196043
 **  OPTIMIZATION CONVERGED  **

                    Orbital Energies (a.u.)
 --------------------------------------------------------------

 Alpha MOs
 -- Occupied --
-18.942 -18.937 -18.923 -18.909 -18.899 -18.890 -18.884 -18.883
-18.870 -18.851 -10.111 -10.105 -10.095 -10.082 -10.080 -10.074
-10.061 -10.057 -10.055 -10.054 -10.052 -10.040 -10.038 -10.038
-10.028 -10.022 -10.020 -10.019 -10.018 -10.016  -1.023  -1.016
 -1.002  -0.989  -0.976  -0.967  -0.948  -0.942  -0.929  -0.914
 -0.765  -0.759  -0.729  -0.722  -0.714  -0.705  -0.695  -0.656
 -0.639  -0.621  -0.595  -0.578  -0.546  -0.540  -0.537  -0.533
 -0.515  -0.508  -0.484  -0.466  -0.460  -0.454  -0.451  -0.446
 -0.440  -0.431  -0.428  -0.416  -0.406  -0.404  -0.401  -0.396
 -0.387  -0.381  -0.375  -0.362  -0.358  -0.356  -0.355  -0.345
 -0.342  -0.339  -0.331  -0.329  -0.326  -0.323  -0.322  -0.313
 -0.308  -0.305  -0.302  -0.302  -0.296  -0.283  -0.275  -0.271
 -0.269  -0.259  -0.250  -0.243  -0.236  -0.231  -0.226  -0.195
 -0.173  -0.166  -0.165  -0.163  -0.159  -0.150  -0.142  -0.141
 -0.137

          Ground-State Mulliken Net Atomic Charges

     Atom                 Charge (a.u.)
  ----------------------------------------
      1 O                    -0.222527
      2 C                     0.211158
      3 C                    -0.081579
      4 C                    -0.076478
      5 C                     0.220770
      6 O                    -0.173202
      7 C                    -0.051092
      8 C                    -0.057246
      9 O                    -0.172747
     10 C                     0.218086
     11 C                    -0.077769
     12 C                    -0.078846
     13 C                     0.217409
     14 O                    -0.211902
     15 O                    -0.174359
     16 O                    -0.176422
     17 O                    -0.211297
     18 C                    -0.134584
     19 C                     0.017831
     20 C                    -0.144445
     21 C                    -0.145041
     22 C                     0.026491
     23 O                    -0.184034
     24 H                     0.088602
     25 H                     0.085526
     26 H                     0.110522
     27 H                     0.081272
     28 H                     0.075386
     29 H                     0.078652
     30 H                     0.074398
     31 H                     0.091437
     32 O                    -0.209823
     33 C                    -0.156465
     34 C                     0.025099
     35 C                    -0.143654
     36 C                    -0.144445
     37 C                     0.023957
     38 O                    -0.190425
     39 H                     0.085832
     40 H                     0.088611
     41 H                     0.086736
     42 H                     0.086518
     43 H                     0.077259
     44 H                     0.073917
     45 H                     0.077345
     46 H                     0.073471
     47 H                     0.087593
     48 H                     0.071602
     49 H                     0.110454
     50 H                     0.085222
     51 H                     0.083324
     52 H                     0.101174
     53 H                     0.086726
     54 H                     0.104403
     55 H                     0.091071
     56 H                     0.100534
  ----------------------------------------
  Sum of atomic charges =    -0.000000

                    Cartesian Multipole Moments
 -----------------------------------------------------------------
    Charge (ESU x 10^10)
                -0.0000
    Dipole Moment (Debye)
         X       1.1498      Y      -1.9448      Z       0.6816
       Tot       2.3599
    Quadrupole Moments (Debye-Ang)
        XX    -149.8070     XY       6.1974     YY    -149.7767
        XZ      12.3741     YZ      -2.5175     ZZ    -162.5053

 Total job time:  113.24s(wall), 5404.19s(cpu)
        *  Thank you very much for using Q-Chem.  Have a nice day.  *
