 Q-Chem 5.0, Q-Chem, Inc., Pleasanton, CA (2017)
 Q-Chem 5.0.1 for Intel X86 EM64T Linux

User input:
--------------------------------------------------------------
$molecule
0  1
O -3.94934 -3.66094 2.70899
C -3.26408 -4.56952 2.26188
C -3.36658 -6.02376 2.66595
C -2.92554 -6.38933 4.09273
C -2.5992 -5.23511 5.01433
O -1.33589 -5.3818 5.51229
C -0.94434 -4.31165 6.37873
C -0.66904 -3.05098 5.56569
O -0.2805 -1.97983 6.44007
C -0.57135 -0.7313 5.99765
C 0.1431 0.34929 6.77388
C -0.06379 1.77423 6.24003
C -1.20698 1.95376 5.26147
O -1.94689 2.92539 5.2064
O -2.3901 -4.29009 1.25923
O -1.05209 1.2603 4.09529
O -1.71306 -0.56126 5.5894
C -1.86396 1.33495 2.97737
C -0.37416 0.5105 8.21846
C 0.71931 1.13559 9.08166
C 0.74654 2.54401 8.5235
C -0.44427 2.47918 7.55801
O -1.31887 1.54934 8.14877
H 1.21966 0.06496 6.80675
H 0.85038 2.19018 5.7623
H -0.72685 -0.44161 8.67188
H 0.32264 1.1723 10.12188
H 1.69727 0.60792 9.08387
H 0.55183 3.25444 9.3573
H 1.6798 2.82574 7.98922
H -0.8563 3.49914 7.39523
O -3.39221 -4.35342 5.32764
C -2.1735 -3.02747 0.74774
C -4.8239 -6.51597 2.68329
C -4.86636 -8.0389 2.55481
C -4.37903 -8.45231 3.92852
C -4.20821 -7.0814 4.59011
O -5.23341 -6.30685 4.01327
H -2.77659 -6.60671 1.92189
H -2.06507 -7.09817 4.08019
H -1.80041 -2.35043 1.54621
H -5.45007 -6.04349 1.89476
H -5.93306 -8.34149 2.4529
H -4.28378 -8.44608 1.70052
H -5.19551 -9.01274 4.43638
H -3.44422 -9.05334 3.94183
H -4.23288 -7.18078 5.69801
H -3.11456 -2.62062 0.31967
H -1.41145 -3.08621 -0.05615
H -2.26495 0.32458 2.75415
H -1.26121 1.67805 2.11162
H -2.72193 2.02694 3.11418
H 0.1548 -3.25141 4.84692
H -1.56671 -2.79431 4.96609
H -0.00022 -4.59813 6.88872
H -1.70689 -4.13431 7.17136
$end

$opt
CONSTRAINT
tors           1           2           3           4     -68.459
tors           3           4           5           6    -124.574
tors           4           5           6           7    +178.989
tors           5           6           7           8     -73.041
tors           6           7           8           9    +179.833
tors           7           8           9          10    -152.031
tors           8           9          10          11    -166.060
tors           9          10          11          12    +175.286
tors          11          12          13          14    +142.520
ENDCONSTRAINT
$end

$rem
JOBTYPE                   OPT
METHOD                    B3LYP
DFT_D                     d3_op
BASIS                     STO-3G
GEOM_OPT_MAX_CYCLES       100
GEOM_OPT_TOL_GRADIENT     300
GEOM_OPT_TOL_DISPLACEMENT 1200
GEOM_OPT_TOL_ENERGY       100
SYMMETRY                  False
THRESH                    12
SCF_CONVERGENCE           8
MAX_SUB_FILE_NUM          128
MEM_STATIC                400
MEM_TOTAL                 4000
$end
--------------------------------------------------------------

   15   -1510.1222042640      7.23E-09 Convergence criterion met
 Total energy in the final basis set = -1510.12220426
   14   -1510.1945245227      6.66E-09 Convergence criterion met
 Total energy in the final basis set = -1510.19452452
   14   -1510.2343168470      5.86E-09 Convergence criterion met
 Total energy in the final basis set = -1510.23431685
   14   -1510.2541752390      5.57E-09 Convergence criterion met
 Total energy in the final basis set = -1510.25417524
   14   -1510.2626382793      3.19E-09 Convergence criterion met
 Total energy in the final basis set = -1510.26263828
   14   -1510.2667067031      3.51E-09 Convergence criterion met
 Total energy in the final basis set = -1510.26670670
   13   -1510.2694189562      4.80E-09 Convergence criterion met
 Total energy in the final basis set = -1510.26941896
   13   -1510.2711325645      7.21E-09 Convergence criterion met
   11   -1510.2763975726      4.03E-09 Convergence criterion met
 Total energy in the final basis set = -1510.27639757
   11   -1510.2764079611      4.93E-09 Convergence criterion met
 Total energy in the final basis set = -1510.27640796
   11   -1510.2764189898      4.99E-09 Convergence criterion met
 Total energy in the final basis set = -1510.27641899
   11   -1510.2764239892      5.40E-09 Convergence criterion met
 Total energy in the final basis set = -1510.27642399
   11   -1510.2764261186      5.60E-09 Convergence criterion met
 Total energy in the final basis set = -1510.27642612
   11   -1510.2764277370      4.26E-09 Convergence criterion met
 Total energy in the final basis set = -1510.27642774

             Standard Nuclear Orientation (Angstroms)
    I     Atom           X                Y                Z
 ----------------------------------------------------------------
    1      O      -2.6073206159     1.1001541833     1.7397261081
    2      C      -3.1098265008     1.3133097993     0.6166544300
    3      C      -4.3723103185     0.6314748865    -0.0239120779
    4      C      -4.1457736056    -0.9076156591    -0.3773601880
    5      C      -2.6606884104    -1.3657179000    -0.2366330516
    6      O      -2.2419292793    -1.9416477713    -1.4885892979
    7      C      -0.8208161004    -2.3637737543    -1.3864622332
    8      C       0.0858290521    -1.0829720728    -1.3937999839
    9      O       1.5140256744    -1.4683193463    -1.2889135013
   10      C       2.2404874584    -0.4045299799    -0.6589823038
   11      C       3.7771184672    -0.6423641019    -0.8642595064
   12      C       4.6187885334     0.5617109877    -0.2941002729
   13      C       3.8462745090     1.9252710526    -0.1921805619
   14      O       3.9472364120     2.7828558589     0.7110884103
   15      O      -2.5130852702     2.1635446020    -0.3747835223
   16      O       3.2247424726     2.1664264617    -1.4683798879
   17      O       1.7065733657     0.5352814364    -0.0260965190
   18      C       2.4994595583     3.4540632699    -1.4515007174
   19      C       4.2079909431    -1.7837212349     0.1583840494
   20      C       5.7451766518    -2.1115565779    -0.0099579002
   21      C       6.4077491941    -0.9070303343     0.7584834015
   22      C       5.1346077366    -0.0333961799     1.0838797103
   23      O       4.1269471326    -1.0577009845     1.4489049341
   24      H       3.9932059925    -0.8843549663    -1.9192266735
   25      H       5.4802828108     0.7555179898    -0.9608645904
   26      H       3.5343734502    -2.6627330892     0.1604973017
   27      H       5.9877481796    -3.0781751895     0.4589416395
   28      H       6.0414403934    -2.1497774673    -1.0707369924
   29      H       6.8911355709    -1.2426389202     1.6900211361
   30      H       7.1479249117    -0.3647609349     0.1488370736
   31      H       5.2475438894     0.7147139080     1.8925241182
   32      O      -1.9331931957    -1.3252261052     0.7787535444
   33      C      -1.2184748003     2.6878227541     0.1223029335
   34      C      -5.5315357849     0.5032010282     1.0536078311
   35      C      -6.8622076766     0.0511984545     0.3306790466
   36      C      -6.5899600057    -1.4828340160     0.1112750370
   37      C      -5.1196775921    -1.6066063636     0.6718338079
   38      O      -5.1216332039    -0.6894489637     1.8310199932
   39      H      -4.6764037158     1.2067360178    -0.9157385788
   40      H      -4.4652896798    -1.1157996655    -1.4136535549
   41      H      -0.4605822958     1.8809397529     0.2247199436
   42      H      -5.6323583845     1.3796391080     1.7224674404
   43      H      -7.7339146175     0.2197828600     0.9824699115
   44      H      -7.0206528350     0.5912274414    -0.6166685009
   45      H      -7.2775721853    -2.1034387930     0.7080536606
   46      H      -6.6655074189    -1.7855260854    -0.9454514321
   47      H      -4.8122096430    -2.6240023135     0.9824583534
   48      H      -1.3279987540     3.1930411570     1.1029315651
   49      H      -0.8764366808     3.4181592483    -0.6340686920
   50      H       1.4114199181     3.2703365138    -1.3421656053
   51      H       2.6887095328     3.9672848464    -2.4135973457
   52      H       2.8517274952     4.0759140884    -0.6038613322
   53      H      -0.0769281110    -0.5159099955    -2.3365962392
   54      H      -0.1822342656    -0.4321228630    -0.5351606968
   55      H      -0.6245052609    -2.9982922872    -2.2732794917
   56      H      -0.6411319833    -2.9475278003    -0.4584144713
 ----------------------------------------------------------------

   11   -1510.2764283829      4.57E-09 Convergence criterion met
 Total energy in the final basis set = -1510.27642838
 Final energy is   -1510.27642838294
 **  OPTIMIZATION CONVERGED  **

                    Orbital Energies (a.u.)
 --------------------------------------------------------------

 Alpha MOs
 -- Occupied --
-18.937 -18.936 -18.926 -18.920 -18.889 -18.886 -18.886 -18.880
-18.872 -18.868 -10.106 -10.100 -10.095 -10.091 -10.076 -10.070
-10.062 -10.061 -10.059 -10.057 -10.055 -10.053 -10.041 -10.040
-10.037 -10.035 -10.021 -10.021 -10.020 -10.019  -1.019  -1.014
 -1.003  -1.001  -0.970  -0.970  -0.944  -0.939  -0.928  -0.927
 -0.764  -0.763  -0.729  -0.723  -0.714  -0.705  -0.696  -0.658
 -0.655  -0.618  -0.597  -0.582  -0.546  -0.545  -0.538  -0.537
 -0.513  -0.509  -0.479  -0.476  -0.462  -0.457  -0.454  -0.450
 -0.437  -0.432  -0.429  -0.411  -0.411  -0.407  -0.402  -0.400
 -0.393  -0.380  -0.374  -0.366  -0.363  -0.357  -0.350  -0.348
 -0.345  -0.343  -0.335  -0.331  -0.331  -0.327  -0.324  -0.312
 -0.309  -0.307  -0.306  -0.302  -0.294  -0.283  -0.278  -0.274
 -0.273  -0.260  -0.251  -0.247  -0.243  -0.234  -0.233  -0.184
 -0.180  -0.171  -0.165  -0.161  -0.157  -0.150  -0.145  -0.144
 -0.140

          Ground-State Mulliken Net Atomic Charges

     Atom                 Charge (a.u.)
  ----------------------------------------
      1 O                    -0.197165
      2 C                     0.203201
      3 C                    -0.078384
      4 C                    -0.080032
      5 C                     0.202173
      6 O                    -0.171709
      7 C                    -0.049601
      8 C                    -0.056192
      9 O                    -0.174283
     10 C                     0.221382
     11 C                    -0.075824
     12 C                    -0.079618
     13 C                     0.218503
     14 O                    -0.216521
     15 O                    -0.175191
     16 O                    -0.179125
     17 O                    -0.205944
     18 C                    -0.134676
     19 C                     0.024424
     20 C                    -0.145098
     21 C                    -0.142006
     22 C                     0.023928
     23 O                    -0.189951
     24 H                     0.088616
     25 H                     0.083868
     26 H                     0.085326
     27 H                     0.078650
     28 H                     0.073398
     29 H                     0.078581
     30 H                     0.073164
     31 H                     0.092104
     32 O                    -0.202680
     33 C                    -0.132791
     34 C                     0.026365
     35 C                    -0.144804
     36 C                    -0.142837
     37 C                     0.027164
     38 O                    -0.181809
     39 H                     0.085451
     40 H                     0.086278
     41 H                     0.096295
     42 H                     0.085001
     43 H                     0.078463
     44 H                     0.073555
     45 H                     0.078683
     46 H                     0.073761
     47 H                     0.084774
     48 H                     0.091677
     49 H                     0.084029
     50 H                     0.081429
     51 H                     0.083330
     52 H                     0.099718
     53 H                     0.082313
     54 H                     0.104000
     55 H                     0.090994
     56 H                     0.095644
  ----------------------------------------
  Sum of atomic charges =     0.000000

                    Cartesian Multipole Moments
 -----------------------------------------------------------------
    Charge (ESU x 10^10)
                 0.0000
    Dipole Moment (Debye)
         X      -0.1906      Y      -0.8217      Z      -4.5732
       Tot       4.6503
    Quadrupole Moments (Debye-Ang)
        XX    -135.6627     XY      -4.7864     YY    -153.3467
        XZ       0.5472     YZ      -0.4877     ZZ    -168.5141

 Total job time:  74.32s(wall), 3539.47s(cpu)
        *  Thank you very much for using Q-Chem.  Have a nice day.  *
