 Q-Chem 5.0, Q-Chem, Inc., Pleasanton, CA (2017)
 Q-Chem 5.0.1 for Intel X86 EM64T Linux

User input:
--------------------------------------------------------------
$molecule
0  1
O -2.6073206159 1.1001541833 1.7397261081
C -3.1098265008 1.3133097993 0.61665443
C -4.3723103185 0.6314748865 -0.0239120779
C -4.1457736056 -0.9076156591 -0.377360188
C -2.6606884104 -1.3657179 -0.2366330516
O -2.2419292793 -1.9416477713 -1.4885892979
C -0.8208161004 -2.3637737543 -1.3864622332
C 0.0858290521 -1.0829720728 -1.3937999839
O 1.5140256744 -1.4683193463 -1.2889135013
C 2.2404874584 -0.4045299799 -0.6589823038
C 3.7771184672 -0.6423641019 -0.8642595064
C 4.6187885334 0.5617109877 -0.2941002729
C 3.846274509 1.9252710526 -0.1921805619
O 3.947236412 2.7828558589 0.7110884103
O -2.5130852702 2.163544602 -0.3747835223
O 3.2247424726 2.1664264617 -1.4683798879
O 1.7065733657 0.5352814364 -0.026096519
C 2.4994595583 3.4540632699 -1.4515007174
C 4.2079909431 -1.7837212349 0.1583840494
C 5.7451766518 -2.1115565779 -0.0099579002
C 6.4077491941 -0.9070303343 0.7584834015
C 5.1346077366 -0.0333961799 1.0838797103
O 4.1269471326 -1.0577009845 1.4489049341
H 3.9932059925 -0.8843549663 -1.9192266735
H 5.4802828108 0.7555179898 -0.9608645904
H 3.5343734502 -2.6627330892 0.1604973017
H 5.9877481796 -3.0781751895 0.4589416395
H 6.0414403934 -2.1497774673 -1.0707369924
H 6.8911355709 -1.2426389202 1.6900211361
H 7.1479249117 -0.3647609349 0.1488370736
H 5.2475438894 0.714713908 1.8925241182
O -1.9331931957 -1.3252261052 0.7787535444
C -1.2184748003 2.6878227541 0.1223029335
C -5.5315357849 0.5032010282 1.0536078311
C -6.8622076766 0.0511984545 0.3306790466
C -6.5899600057 -1.482834016 0.111275037
C -5.1196775921 -1.6066063636 0.6718338079
O -5.1216332039 -0.6894489637 1.8310199932
H -4.6764037158 1.2067360178 -0.9157385788
H -4.4652896798 -1.1157996655 -1.4136535549
H -0.4605822958 1.8809397529 0.2247199436
H -5.6323583845 1.379639108 1.7224674404
H -7.7339146175 0.21978286 0.9824699115
H -7.020652835 0.5912274414 -0.6166685009
H -7.2775721853 -2.103438793 0.7080536606
H -6.6655074189 -1.7855260854 -0.9454514321
H -4.812209643 -2.6240023135 0.9824583534
H -1.327998754 3.193041157 1.1029315651
H -0.8764366808 3.4181592483 -0.634068692
H 1.4114199181 3.2703365138 -1.3421656053
H 2.6887095328 3.9672848464 -2.4135973457
H 2.8517274952 4.0759140884 -0.6038613322
H -0.076928111 -0.5159099955 -2.3365962392
H -0.1822342656 -0.432122863 -0.5351606968
H -0.6245052609 -2.9982922872 -2.2732794917
H -0.6411319833 -2.9475278003 -0.4584144713
$end

$rem
JOBTYPE                   OPT
METHOD                    B3LYP
DFT_D                     d3_op
BASIS                     STO-3G
GEOM_OPT_MAX_CYCLES       100
GEOM_OPT_TOL_GRADIENT     300
GEOM_OPT_TOL_DISPLACEMENT 1200
GEOM_OPT_TOL_ENERGY       100
SYMMETRY                  False
THRESH                    12
SCF_CONVERGENCE           8
MAX_SUB_FILE_NUM          128
MEM_STATIC                400
MEM_TOTAL                 4000
$end
--------------------------------------------------------------

   16   -1510.2763061954      6.10E-09 Convergence criterion met
 Total energy in the final basis set = -1510.27630620
   14   -1510.2803608319      1.75E-09 Convergence criterion met
 Total energy in the final basis set = -1510.28036083
   14   -1510.2821224874      6.11E-09 Convergence criterion met
 Total energy in the final basis set = -1510.28212249
   14   -1510.2833552333      6.67E-09 Convergence criterion met
 Total energy in the final basis set = -1510.28335523
   13   -1510.2842991706      6.31E-09 Convergence criterion met
 Total energy in the final basis set = -1510.28429917
   14   -1510.2851824489      5.91E-09 Convergence criterion met
 Total energy in the final basis set = -1510.28518245
   13   -1510.2860011337      3.50E-09 Convergence criterion met
 Total energy in the final basis set = -1510.28600113
   13   -1510.2867306605      5.57E-09 Convergence criterion met
   10   -1510.2925964738      6.32E-09 Convergence criterion met
 Total energy in the final basis set = -1510.29259647
    9   -1510.2926004511      7.24E-09 Convergence criterion met
 Total energy in the final basis set = -1510.29260045
   11   -1510.2926044512      3.66E-09 Convergence criterion met
 Total energy in the final basis set = -1510.29260445
   11   -1510.2926048765      4.10E-09 Convergence criterion met
 Total energy in the final basis set = -1510.29260488
    9   -1510.2926017567      5.17E-09 Convergence criterion met
 Total energy in the final basis set = -1510.29260176
    9   -1510.2926002720      3.58E-09 Convergence criterion met
 Total energy in the final basis set = -1510.29260027

             Standard Nuclear Orientation (Angstroms)
    I     Atom           X                Y                Z
 ----------------------------------------------------------------
    1      O      -2.9483186461     2.6799479746     0.8006175582
    2      C      -3.0501397287     1.7680445652    -0.0479146208
    3      C      -4.3007250384     0.8549733033    -0.3065837848
    4      C      -3.9734563141    -0.6970038353    -0.3617672597
    5      C      -2.4655621969    -1.0165134562    -0.0936442410
    6      O      -1.9455855400    -1.7133052028    -1.2417606052
    7      C      -0.5002384862    -1.9780328483    -1.0568178233
    8      C       0.2982927151    -1.2207598521    -2.1794360986
    9      O       1.7641848940    -1.3784124312    -1.9931392673
   10      C       2.2593269232    -0.4727246207    -1.0102408653
   11      C       3.7764384425    -0.7645940775    -0.7761973841
   12      C       4.4922196135     0.3688746453     0.0644061036
   13      C       3.6087453219     1.6392155818     0.3473319580
   14      O       3.1895811601     2.0381541910     1.4546949121
   15      O      -2.0276824272     1.3982783777    -0.9775737676
   16      O       3.4738836159     2.3614086544    -0.8881095914
   17      O       1.5712271028     0.3888307544    -0.4138730356
   18      C       2.6472501373     3.5723345997    -0.6851426772
   19      C       3.9371865977    -2.0057298167     0.2083607680
   20      C       5.4541289596    -2.4478955904     0.2212904431
   21      C       6.0912884165    -1.3299049396     1.1275181843
   22      C       4.8363818400    -0.4133572278     1.4008678265
   23      O       3.7291822556    -1.3902490731     1.5368990550
   24      H       4.2651994937    -0.9447960336    -1.7502246701
   25      H       5.4073774701     0.7046659655    -0.4556130426
   26      H       3.2082076307    -2.8208802631     0.0330515345
   27      H       5.5606149628    -3.4472307400     0.6722939630
   28      H       5.8845981812    -2.4704160130    -0.7926761623
   29      H       6.4730781868    -1.7481313480     2.0725275960
   30      H       6.9071934187    -0.7851947056     0.6262763012
   31      H       4.8909277745     0.2325064570     2.2985082900
   32      O      -1.8005742757    -0.7760613759     0.9374423166
   33      C      -0.7984400619     2.1992126098    -0.7533224797
   34      C      -5.3129405707     0.9147462328     0.9111145511
   35      C      -6.7072192141     0.3564632814     0.4272515119
   36      C      -6.4004867817    -1.1851184576     0.3395692499
   37      C      -4.8955967548    -1.2270035867     0.8213785798
   38      O      -4.8155771972    -0.1417340903     1.8233750888
   39      H      -4.7781150080     1.1818032491    -1.2489126893
   40      H      -4.2519467733    -1.1364817710    -1.3352210839
   41      H       0.0553415741     1.5033516090    -0.5877872880
   42      H      -5.3313439130     1.8945983315     1.4267070534
   43      H      -7.4881184390     0.5701516042     1.1742284671
   44      H      -7.0152346616     0.7855573813    -0.5395034357
   45      H      -7.0395250045    -1.7648750391     1.0245108831
   46      H      -6.5212894118    -1.5850538758    -0.6798860136
   47      H      -4.5678179609    -2.1878114047     1.2634747079
   48      H      -0.9430875993     2.8567522702     0.1260951386
   49      H      -0.6124571760     2.8176005080    -1.6537182316
   50      H       1.7704416628     3.5247059065    -1.3595030649
   51      H       3.2489390373     4.4693677280    -0.9322483954
   52      H       2.3138733620     3.6201226977     0.3713291847
   53      H       0.0768538425    -1.6585889663    -3.1732033235
   54      H       0.0065038307    -0.1500374845    -2.1781122568
   55      H      -0.3237006819    -3.0712796537    -1.1285122493
   56      H      -0.2054845867    -1.6099845567    -0.0485042463
 ----------------------------------------------------------------

    8   -1510.2926005187      8.10E-09 Convergence criterion met
 Total energy in the final basis set = -1510.29260052
 Final energy is   -1510.29260051869
 **  OPTIMIZATION CONVERGED  **

                    Orbital Energies (a.u.)
 --------------------------------------------------------------

 Alpha MOs
 -- Occupied --
-18.951 -18.930 -18.926 -18.920 -18.897 -18.890 -18.885 -18.874
-18.873 -18.867 -10.117 -10.097 -10.095 -10.094 -10.079 -10.066
-10.065 -10.059 -10.058 -10.055 -10.051 -10.045 -10.037 -10.037
-10.037 -10.035 -10.023 -10.021 -10.019 -10.018  -1.028  -1.011
 -1.002  -1.001  -0.973  -0.967  -0.953  -0.934  -0.930  -0.927
 -0.767  -0.761  -0.730  -0.722  -0.714  -0.705  -0.696  -0.655
 -0.650  -0.621  -0.597  -0.581  -0.548  -0.543  -0.539  -0.535
 -0.514  -0.507  -0.485  -0.475  -0.462  -0.457  -0.456  -0.449
 -0.437  -0.432  -0.428  -0.413  -0.410  -0.408  -0.403  -0.400
 -0.394  -0.380  -0.375  -0.367  -0.362  -0.357  -0.354  -0.349
 -0.346  -0.336  -0.334  -0.331  -0.328  -0.328  -0.324  -0.315
 -0.310  -0.308  -0.305  -0.302  -0.292  -0.285  -0.282  -0.275
 -0.269  -0.262  -0.246  -0.242  -0.241  -0.236  -0.231  -0.197
 -0.174  -0.169  -0.165  -0.162  -0.158  -0.150  -0.150  -0.147
 -0.141

          Ground-State Mulliken Net Atomic Charges

     Atom                 Charge (a.u.)
  ----------------------------------------
      1 O                    -0.209553
      2 C                     0.214604
      3 C                    -0.078130
      4 C                    -0.078325
      5 C                     0.214592
      6 O                    -0.174001
      7 C                    -0.059828
      8 C                    -0.050690
      9 O                    -0.168111
     10 C                     0.222167
     11 C                    -0.077064
     12 C                    -0.080299
     13 C                     0.217700
     14 O                    -0.213479
     15 O                    -0.178515
     16 O                    -0.179233
     17 O                    -0.205419
     18 C                    -0.136140
     19 C                     0.025447
     20 C                    -0.143920
     21 C                    -0.143571
     22 C                     0.024953
     23 O                    -0.187592
     24 H                     0.088805
     25 H                     0.084946
     26 H                     0.083529
     27 H                     0.079031
     28 H                     0.073928
     29 H                     0.079125
     30 H                     0.073735
     31 H                     0.092043
     32 O                    -0.209439
     33 C                    -0.153530
     34 C                     0.024367
     35 C                    -0.143971
     36 C                    -0.144074
     37 C                     0.026006
     38 O                    -0.185629
     39 H                     0.084010
     40 H                     0.085985
     41 H                     0.110553
     42 H                     0.091697
     43 H                     0.078307
     44 H                     0.072632
     45 H                     0.078042
     46 H                     0.072987
     47 H                     0.083283
     48 H                     0.098894
     49 H                     0.072530
     50 H                     0.081952
     51 H                     0.081579
     52 H                     0.103523
     53 H                     0.092104
     54 H                     0.098115
     55 H                     0.082902
     56 H                     0.106444
  ----------------------------------------
  Sum of atomic charges =    -0.000000

                    Cartesian Multipole Moments
 -----------------------------------------------------------------
    Charge (ESU x 10^10)
                -0.0000
    Dipole Moment (Debye)
         X       0.9162      Y      -1.6956      Z      -4.3721
       Tot       4.7780
    Quadrupole Moments (Debye-Ang)
        XX    -133.8130     XY      -0.0245     YY    -155.0501
        XZ       3.7934     YZ      -3.4211     ZZ    -167.8659

 Total job time:  109.86s(wall), 5238.37s(cpu)
        *  Thank you very much for using Q-Chem.  Have a nice day.  *
