 Q-Chem 5.0, Q-Chem, Inc., Pleasanton, CA (2017)
 Q-Chem 5.0.1 for Intel X86 EM64T Linux

User input:
--------------------------------------------------------------
$molecule
0  1
O -3.4401812731 1.8641528112 2.0098579016
C -3.5835721328 1.6940209758 0.7811772072
C -4.7087237335 0.8610262172 0.0579074153
C -4.1849834582 -0.3899023923 -0.7563449052
C -2.6684576032 -0.6789307662 -0.4902854642
O -2.2643978372 -1.7461428591 -1.3476670515
C -0.8275482113 -2.1090953641 -1.2161353092
C 0.1713477114 -0.8977956785 -1.2670255791
O 1.5109302782 -1.4605742776 -0.9607968301
C 2.4341151063 -0.3994116966 -0.6991063175
C 3.8460352518 -1.0278564991 -0.4589461996
C 4.9943720138 0.0461337406 -0.2728580197
C 4.4941118694 1.5397359999 -0.2813038757
O 4.1936694226 2.2455864396 0.7040270858
O -2.8265288946 2.373064489 -0.2333808136
O 4.5180602343 2.0035648708 -1.6399138124
O 2.1223369313 0.8120717228 -0.6957661657
C 3.9668786429 3.3747895747 -1.7068556211
C 3.9252497509 -1.8071416514 0.9269802472
C 5.196347719 -2.743658672 0.8919159232
C 6.3528933086 -1.6888436819 1.0565935172
C 5.5294483985 -0.3460537961 1.1686335758
O 4.298647295 -0.7487710044 1.8901347754
H 4.0611723434 -1.7083482688 -1.302826654
H 5.7676690013 -0.0686821317 -1.0526945335
H 2.9797276099 -2.2993033564 1.2271785211
H 5.1725017778 -3.4536135766 1.7340112367
H 5.2684354154 -3.3125508514 -0.0488450886
H 6.9337060937 -1.864761402 1.9760572001
H 7.0437607558 -1.679122125 0.198534877
H 6.0332518341 0.4808033861 1.7051784219
O -1.9521438725 -0.1304425168 0.3792950336
C -1.7070182146 3.1130703388 0.3891460343
C -5.696301058 0.167830151 1.0860180147
C -7.0361554255 -0.1720293878 0.3254160609
C -6.5674186709 -1.3691865179 -0.5830419843
C -5.0690076746 -1.5466775698 -0.1129712598
O -5.0944799634 -1.168390833 1.3170834346
H -5.2510903683 1.5491221514 -0.61568562
H -4.353631919 -0.2933756908 -1.8437144539
H -1.0003997725 2.4218624159 0.8931042534
H -5.8032737852 0.7116573991 2.0447621187
H -7.8136028811 -0.4888078874 1.0390336483
H -7.4169422334 0.6822794757 -0.2565537416
H -7.1454900166 -2.284657227 -0.3795568289
H -6.6380530254 -1.1401127962 -1.6585326995
H -4.6503099138 -2.5634172862 -0.2451595667
H -2.0658391455 3.8548020728 1.1318671696
H -1.186879468 3.635214517 -0.4349963882
H 4.0440966883 3.687239567 -2.764610415
H 4.5381970624 4.0791365474 -1.0681168679
H 2.9037926279 3.3936683813 -1.3899392061
H 0.1635072124 -0.4167887485 -2.2688369943
H -0.1355037249 -0.1516020803 -0.5037289277
H -0.6336166026 -2.8114201084 -2.051509637
H -0.6663247458 -2.649732626 -0.2564422583
$end

$rem
JOBTYPE                   OPT
METHOD                    B3LYP
DFT_D                     d3_op
BASIS                     STO-3G
GEOM_OPT_MAX_CYCLES       100
GEOM_OPT_TOL_GRADIENT     300
GEOM_OPT_TOL_DISPLACEMENT 1200
GEOM_OPT_TOL_ENERGY       100
SYMMETRY                  False
THRESH                    12
SCF_CONVERGENCE           8
MAX_SUB_FILE_NUM          128
MEM_STATIC                400
MEM_TOTAL                 4000
$end
--------------------------------------------------------------

   16   -1510.2834606977      5.57E-09 Convergence criterion met
 Total energy in the final basis set = -1510.28346070
   14   -1510.2849257165      1.79E-09 Convergence criterion met
 Total energy in the final basis set = -1510.28492572
   13   -1510.2859499486      5.41E-09 Convergence criterion met
 Total energy in the final basis set = -1510.28594995
   13   -1510.2864787839      8.86E-09 Convergence criterion met
 Total energy in the final basis set = -1510.28647878
   13   -1510.2871033139      2.68E-09 Convergence criterion met
 Total energy in the final basis set = -1510.28710331
   14   -1510.2873250862      1.57E-09 Convergence criterion met
 Total energy in the final basis set = -1510.28732509
   13   -1510.2876103186      8.97E-09 Convergence criterion met
 Total energy in the final basis set = -1510.28761032
   13   -1510.2880256033      9.76E-09 Convergence criterion met
   12   -1510.2927763019      3.51E-09 Convergence criterion met
 Total energy in the final basis set = -1510.29277630
   12   -1510.2927845956      3.11E-09 Convergence criterion met
 Total energy in the final basis set = -1510.29278460
   11   -1510.2928017866      8.19E-09 Convergence criterion met
 Total energy in the final basis set = -1510.29280179
   11   -1510.2928133514      4.08E-09 Convergence criterion met
 Total energy in the final basis set = -1510.29281335
   11   -1510.2928304935      9.64E-09 Convergence criterion met
 Total energy in the final basis set = -1510.29283049
   10   -1510.2928255196      3.30E-09 Convergence criterion met
 Total energy in the final basis set = -1510.29282552

             Standard Nuclear Orientation (Angstroms)
    I     Atom           X                Y                Z
 ----------------------------------------------------------------
    1      O      -2.5966846568     1.6711384121     2.0459050570
    2      C      -2.6870658950     1.2860175452     0.8612079539
    3      C      -3.9977922623     0.8715743823     0.0974570179
    4      C      -3.9161111396    -0.5621923516    -0.5804204306
    5      C      -2.5294464784    -1.2597049186    -0.3874207991
    6      O      -1.9892127580    -1.5375055061    -1.6925733741
    7      C      -0.6388470700    -2.1351271472    -1.5663081869
    8      C       0.3630067582    -1.2940053862    -2.4345702022
    9      O       1.7518541895    -1.5691502879    -1.9794192540
   10      C       2.3204540326    -0.4097234588    -1.3765636146
   11      C       3.6993890135    -0.7872605859    -0.7441489136
   12      C       4.3473861426     0.4049095903     0.0718122513
   13      C       3.5678751833     1.7697680045    -0.0241025897
   14      O       2.8360652972     2.2833090408     0.8486375943
   15      O      -1.5858603948     1.1611302289    -0.0410879575
   16      O       3.9470382675     2.4114503140    -1.2507562352
   17      O       1.7634160683     0.7146313228    -1.3535983280
   18      C       3.1699620766     3.6591880601    -1.4184327561
   19      C       3.4850992431    -1.8595784275     0.4112538570
   20      C       4.8911264366    -2.4335150409     0.8435003361
   21      C       5.4612218502    -1.2396922470     1.6964671666
   22      C       4.3005073413    -0.1820887246     1.5458135067
   23      O       3.0746385588    -1.0161082472     1.5555742103
   24      H       4.3682950682    -1.1641997872    -1.5391926859
   25      H       5.3842885684     0.5795951600    -0.2661074779
   26      H       2.7108274054    -2.6169629889     0.1799015210
   27      H       4.7632601320    -3.3426410093     1.4523748156
   28      H       5.5232841518    -2.6775172040    -0.0254781529
   29      H       5.5876095546    -1.5247167410     2.7530061150
   30      H       6.4226275806    -0.8616800572     1.3138207134
   31      H       4.2426229746     0.5909113006     2.3364373311
   32      O      -1.9663286590    -1.5767729066     0.6831136579
   33      C      -0.3091272299     1.4259206747     0.6659858777
   34      C      -5.1938911440     0.6619921582     1.1122523950
   35      C      -6.5460617823     0.6181581632     0.2987127456
   36      C      -6.4617352591    -0.8113516354    -0.3550264263
   37      C      -5.0746378453    -1.3208121328     0.2046272747
   38      O      -5.0118558076    -0.7388901748     1.5624824712
   39      H      -4.2266240925     1.6463118553    -0.6573755376
   40      H      -4.1218889716    -0.5089432850    -1.6636874878
   41      H      -0.1715240256     0.7235953703     1.5125341183
   42      H      -5.1692958663     1.3510702775     1.9788304861
   43      H      -7.4087053866     0.7003522325     0.9788978962
   44      H      -6.6079842622     1.4248993795    -0.4491276096
   45      H      -7.2782803301    -1.4636942535    -0.0066548874
   46      H      -6.4801300044    -0.7798661001    -1.4562708238
   47      H      -4.9576188486    -2.4210751622     0.2480344477
   48      H      -0.2680853312     2.4626112210     1.0552913688
   49      H       0.4947598030     1.2700116928    -0.0836960182
   50      H       3.5521819586     4.1396440952    -2.3378358002
   51      H       3.3019853718     4.3442195580    -0.5562555490
   52      H       2.0882126784     3.4417557476    -1.5351238151
   53      H       0.2951540251    -1.5719158475    -3.5059912284
   54      H       0.1534123807    -0.2089921385    -2.3125748769
   55      H      -0.6718380749    -3.1892086496    -1.9135806495
   56      H      -0.3475963986    -2.1146143283    -0.4918623900
 ----------------------------------------------------------------

    9   -1510.2928256776      4.08E-09 Convergence criterion met
 Total energy in the final basis set = -1510.29282568
 Final energy is   -1510.29282567764
 **  OPTIMIZATION CONVERGED  **

                    Orbital Energies (a.u.)
 --------------------------------------------------------------

 Alpha MOs
 -- Occupied --
-18.952 -18.930 -18.922 -18.921 -18.900 -18.890 -18.884 -18.873
-18.866 -18.863 -10.119 -10.098 -10.093 -10.089 -10.075 -10.068
-10.064 -10.059 -10.058 -10.056 -10.053 -10.047 -10.036 -10.035
-10.035 -10.032 -10.023 -10.021 -10.018 -10.016  -1.031  -1.010
 -1.001  -0.998  -0.973  -0.966  -0.954  -0.934  -0.927  -0.925
 -0.767  -0.759  -0.730  -0.721  -0.714  -0.704  -0.695  -0.657
 -0.644  -0.619  -0.596  -0.578  -0.548  -0.541  -0.540  -0.534
 -0.516  -0.505  -0.485  -0.471  -0.461  -0.458  -0.455  -0.446
 -0.442  -0.433  -0.427  -0.413  -0.409  -0.403  -0.402  -0.400
 -0.393  -0.382  -0.370  -0.368  -0.360  -0.355  -0.353  -0.348
 -0.340  -0.336  -0.335  -0.331  -0.328  -0.327  -0.323  -0.314
 -0.309  -0.306  -0.304  -0.299  -0.290  -0.280  -0.279  -0.276
 -0.267  -0.261  -0.247  -0.247  -0.241  -0.237  -0.230  -0.195
 -0.174  -0.171  -0.167  -0.164  -0.156  -0.148  -0.144  -0.143
 -0.140

          Ground-State Mulliken Net Atomic Charges

     Atom                 Charge (a.u.)
  ----------------------------------------
      1 O                    -0.208533
      2 C                     0.212024
      3 C                    -0.078563
      4 C                    -0.078876
      5 C                     0.214671
      6 O                    -0.173980
      7 C                    -0.056805
      8 C                    -0.055442
      9 O                    -0.169036
     10 C                     0.223682
     11 C                    -0.077063
     12 C                    -0.081956
     13 C                     0.214814
     14 O                    -0.218210
     15 O                    -0.178526
     16 O                    -0.175361
     17 O                    -0.209501
     18 C                    -0.128509
     19 C                     0.024868
     20 C                    -0.143911
     21 C                    -0.143724
     22 C                     0.024816
     23 O                    -0.188959
     24 H                     0.089329
     25 H                     0.084778
     26 H                     0.086951
     27 H                     0.079550
     28 H                     0.073761
     29 H                     0.079345
     30 H                     0.073794
     31 H                     0.090339
     32 O                    -0.213208
     33 C                    -0.141608
     34 C                     0.024230
     35 C                    -0.144291
     36 C                    -0.143726
     37 C                     0.025789
     38 O                    -0.186345
     39 H                     0.083460
     40 H                     0.085659
     41 H                     0.090606
     42 H                     0.091329
     43 H                     0.077872
     44 H                     0.072663
     45 H                     0.077593
     46 H                     0.072816
     47 H                     0.082494
     48 H                     0.086210
     49 H                     0.105175
     50 H                     0.086597
     51 H                     0.087863
     52 H                     0.090858
     53 H                     0.088515
     54 H                     0.107461
     55 H                     0.082866
     56 H                     0.103353
  ----------------------------------------
  Sum of atomic charges =     0.000000

                    Cartesian Multipole Moments
 -----------------------------------------------------------------
    Charge (ESU x 10^10)
                 0.0000
    Dipole Moment (Debye)
         X       1.6011      Y      -0.9051      Z      -4.0690
       Tot       4.4653
    Quadrupole Moments (Debye-Ang)
        XX    -136.8768     XY      -4.6936     YY    -154.5243
        XZ       8.5507     YZ      -0.0346     ZZ    -166.1873

 Total job time:  95.70s(wall), 4560.73s(cpu)
        *  Thank you very much for using Q-Chem.  Have a nice day.  *
