 Q-Chem 5.0, Q-Chem, Inc., Pleasanton, CA (2017)
 Q-Chem 5.0.1 for Intel X86 EM64T Linux

User input:
--------------------------------------------------------------
$molecule
0  1
O -3.94934 -3.66094 2.70899
C -3.26408 -4.56952 2.26188
C -3.36658 -6.02376 2.66595
C -2.13975 -6.65183 3.34733
C -1.0131 -5.70956 3.7091
O 0.0435 -6.41859 4.20537
C 1.16292 -5.59495 4.54858
C 1.48505 -4.64164 3.40247
O 2.50782 -3.71795 3.80698
C 2.69746 -2.65941 2.98074
C 3.83281 -1.76589 3.42035
C 4.16184 -0.61601 2.45714
C 3.1118 -0.3124 1.4074
O 2.22707 0.52487 1.51126
O -2.32824 -4.28352 1.31861
O 3.23666 -0.98738 0.23244
O 2.06462 -2.55311 1.93914
C 2.39956 -0.82248 -0.85151
C 3.54325 -1.00551 4.72515
C 4.86147 -0.61719 5.3914
C 5.35257 0.45324 4.43867
C 4.15467 0.54159 3.48463
O 3.04742 0.23637 4.29802
H 4.71618 -2.43 3.55895
H 5.15267 -0.68608 1.9563
H 2.90172 -1.57228 5.43481
H 4.60649 -0.13852 6.36417
H 5.57016 -1.45438 5.56984
H 5.47129 1.40113 5.00924
H 6.29237 0.21363 3.89573
H 4.13418 1.53905 2.99169
O -1.28481 -4.59596 4.1508
C -2.06238 -3.01589 0.84531
C -4.43633 -6.2594 3.75321
C -4.88434 -7.72135 3.74403
C -3.67282 -8.39082 4.35513
C -2.79677 -7.16926 4.64374
O -3.72367 -6.15976 4.96025
H -3.6541 -6.5764 1.74362
H -1.70045 -7.48022 2.74697
H -1.72481 -2.36098 1.67701
H -5.32312 -5.59655 3.65024
H -5.73678 -7.81995 4.45374
H -5.18856 -8.10509 2.74647
H -3.9801 -8.86605 5.31353
H -3.16365 -9.13806 3.70883
H -2.05381 -7.41203 5.43517
H -2.97017 -2.58548 0.37109
H -1.25462 -3.07276 0.08702
H 2.72783 -1.49511 -1.67016
H 2.44203 0.22754 -1.21194
H 1.35588 -1.08205 -0.57207
H 1.81642 -5.21767 2.51036
H 0.61655 -4.03224 3.09614
H 2.03898 -6.22977 4.79777
H 0.90733 -4.99345 5.44966
$end

$opt
CONSTRAINT
tors           1           2           3           4    -116.551
tors           3           4           5           6    -175.212
tors           4           5           6           7    +178.900
tors           5           6           7           8     -48.692
tors           6           7           8           9    +173.539
tors           7           8           9          10    -167.515
tors           8           9          10          11    -176.951
tors           9          10          11          12    +175.286
tors          11          12          13          14     +94.041
ENDCONSTRAINT
$end

$rem
JOBTYPE                   OPT
METHOD                    B3LYP
DFT_D                     d3_op
BASIS                     STO-3G
GEOM_OPT_MAX_CYCLES       100
GEOM_OPT_TOL_GRADIENT     300
GEOM_OPT_TOL_DISPLACEMENT 1200
GEOM_OPT_TOL_ENERGY       100
SYMMETRY                  False
THRESH                    12
SCF_CONVERGENCE           8
MAX_SUB_FILE_NUM          128
MEM_STATIC                400
MEM_TOTAL                 4000
$end
--------------------------------------------------------------

   15   -1510.1388407779      7.09E-09 Convergence criterion met
 Total energy in the final basis set = -1510.13884078
   14   -1510.2102795097      7.35E-09 Convergence criterion met
 Total energy in the final basis set = -1510.21027951
   14   -1510.2495619700      5.54E-09 Convergence criterion met
 Total energy in the final basis set = -1510.24956197
   14   -1510.2691340006      1.91E-09 Convergence criterion met
 Total energy in the final basis set = -1510.26913400
   13   -1510.2771677727      8.90E-09 Convergence criterion met
 Total energy in the final basis set = -1510.27716777
   13   -1510.2808971885      6.61E-09 Convergence criterion met
 Total energy in the final basis set = -1510.28089719
   13   -1510.2824893255      5.20E-09 Convergence criterion met
 Total energy in the final basis set = -1510.28248933
   13   -1510.2828983474      1.65E-09 Convergence criterion met
   10   -1510.2833821146      8.24E-09 Convergence criterion met
 Total energy in the final basis set = -1510.28338211
    9   -1510.2833959354      8.92E-09 Convergence criterion met
 Total energy in the final basis set = -1510.28339594
    9   -1510.2834035673      5.87E-09 Convergence criterion met
 Total energy in the final basis set = -1510.28340357
    9   -1510.2834082149      5.88E-09 Convergence criterion met
 Total energy in the final basis set = -1510.28340821
    9   -1510.2834117918      3.66E-09 Convergence criterion met
 Total energy in the final basis set = -1510.28341179
    9   -1510.2834130236      1.93E-09 Convergence criterion met
 Total energy in the final basis set = -1510.28341302

             Standard Nuclear Orientation (Angstroms)
    I     Atom           X                Y                Z
 ----------------------------------------------------------------
    1      O      -3.4401812731     1.8641528112     2.0098579016
    2      C      -3.5835721328     1.6940209758     0.7811772072
    3      C      -4.7087237335     0.8610262172     0.0579074153
    4      C      -4.1849834582    -0.3899023923    -0.7563449052
    5      C      -2.6684576032    -0.6789307662    -0.4902854642
    6      O      -2.2643978372    -1.7461428591    -1.3476670515
    7      C      -0.8275482113    -2.1090953641    -1.2161353092
    8      C       0.1713477114    -0.8977956785    -1.2670255791
    9      O       1.5109302782    -1.4605742776    -0.9607968301
   10      C       2.4341151063    -0.3994116966    -0.6991063175
   11      C       3.8460352518    -1.0278564991    -0.4589461996
   12      C       4.9943720138     0.0461337406    -0.2728580197
   13      C       4.4941118694     1.5397359999    -0.2813038757
   14      O       4.1936694226     2.2455864396     0.7040270858
   15      O      -2.8265288946     2.3730644890    -0.2333808136
   16      O       4.5180602343     2.0035648708    -1.6399138124
   17      O       2.1223369313     0.8120717228    -0.6957661657
   18      C       3.9668786429     3.3747895747    -1.7068556211
   19      C       3.9252497509    -1.8071416514     0.9269802472
   20      C       5.1963477190    -2.7436586720     0.8919159232
   21      C       6.3528933086    -1.6888436819     1.0565935172
   22      C       5.5294483985    -0.3460537961     1.1686335758
   23      O       4.2986472950    -0.7487710044     1.8901347754
   24      H       4.0611723434    -1.7083482688    -1.3028266540
   25      H       5.7676690013    -0.0686821317    -1.0526945335
   26      H       2.9797276099    -2.2993033564     1.2271785211
   27      H       5.1725017778    -3.4536135766     1.7340112367
   28      H       5.2684354154    -3.3125508514    -0.0488450886
   29      H       6.9337060937    -1.8647614020     1.9760572001
   30      H       7.0437607558    -1.6791221250     0.1985348770
   31      H       6.0332518341     0.4808033861     1.7051784219
   32      O      -1.9521438725    -0.1304425168     0.3792950336
   33      C      -1.7070182146     3.1130703388     0.3891460343
   34      C      -5.6963010580     0.1678301510     1.0860180147
   35      C      -7.0361554255    -0.1720293878     0.3254160609
   36      C      -6.5674186709    -1.3691865179    -0.5830419843
   37      C      -5.0690076746    -1.5466775698    -0.1129712598
   38      O      -5.0944799634    -1.1683908330     1.3170834346
   39      H      -5.2510903683     1.5491221514    -0.6156856200
   40      H      -4.3536319190    -0.2933756908    -1.8437144539
   41      H      -1.0003997725     2.4218624159     0.8931042534
   42      H      -5.8032737852     0.7116573991     2.0447621187
   43      H      -7.8136028811    -0.4888078874     1.0390336483
   44      H      -7.4169422334     0.6822794757    -0.2565537416
   45      H      -7.1454900166    -2.2846572270    -0.3795568289
   46      H      -6.6380530254    -1.1401127962    -1.6585326995
   47      H      -4.6503099138    -2.5634172862    -0.2451595667
   48      H      -2.0658391455     3.8548020728     1.1318671696
   49      H      -1.1868794680     3.6352145170    -0.4349963882
   50      H       4.0440966883     3.6872395670    -2.7646104150
   51      H       4.5381970624     4.0791365474    -1.0681168679
   52      H       2.9037926279     3.3936683813    -1.3899392061
   53      H       0.1635072124    -0.4167887485    -2.2688369943
   54      H      -0.1355037249    -0.1516020803    -0.5037289277
   55      H      -0.6336166026    -2.8114201084    -2.0515096370
   56      H      -0.6663247458    -2.6497326260    -0.2564422583
 ----------------------------------------------------------------

    8   -1510.2834133785      9.18E-09 Convergence criterion met
 Total energy in the final basis set = -1510.28341338
 Final energy is   -1510.28341337851
 **  OPTIMIZATION CONVERGED  **

                    Orbital Energies (a.u.)
 --------------------------------------------------------------

 Alpha MOs
 -- Occupied --
-18.949 -18.940 -18.918 -18.916 -18.893 -18.887 -18.886 -18.886
-18.860 -18.859 -10.114 -10.106 -10.089 -10.088 -10.084 -10.072
-10.062 -10.061 -10.056 -10.056 -10.053 -10.051 -10.042 -10.040
-10.032 -10.032 -10.022 -10.020 -10.019 -10.018  -1.025  -1.018
 -0.996  -0.996  -0.970  -0.969  -0.951  -0.943  -0.923  -0.922
 -0.764  -0.762  -0.731  -0.722  -0.715  -0.705  -0.697  -0.653
 -0.651  -0.622  -0.596  -0.583  -0.545  -0.545  -0.537  -0.536
 -0.516  -0.509  -0.483  -0.470  -0.461  -0.455  -0.453  -0.450
 -0.442  -0.431  -0.430  -0.408  -0.405  -0.402  -0.401  -0.399
 -0.393  -0.385  -0.382  -0.365  -0.360  -0.356  -0.348  -0.346
 -0.342  -0.341  -0.335  -0.332  -0.330  -0.326  -0.324  -0.314
 -0.311  -0.307  -0.304  -0.302  -0.298  -0.278  -0.276  -0.274
 -0.273  -0.260  -0.256  -0.243  -0.243  -0.234  -0.233  -0.191
 -0.185  -0.164  -0.163  -0.161  -0.159  -0.145  -0.143  -0.140
 -0.139

          Ground-State Mulliken Net Atomic Charges

     Atom                 Charge (a.u.)
  ----------------------------------------
      1 O                    -0.215408
      2 C                     0.216226
      3 C                    -0.081461
      4 C                    -0.076982
      5 C                     0.219545
      6 O                    -0.169337
      7 C                    -0.047694
      8 C                    -0.059232
      9 O                    -0.174873
     10 C                     0.214901
     11 C                    -0.078457
     12 C                    -0.081303
     13 C                     0.214847
     14 O                    -0.214526
     15 O                    -0.179443
     16 O                    -0.175899
     17 O                    -0.205245
     18 C                    -0.128436
     19 C                     0.025460
     20 C                    -0.143368
     21 C                    -0.144499
     22 C                     0.025769
     23 O                    -0.186557
     24 H                     0.085951
     25 H                     0.083587
     26 H                     0.085345
     27 H                     0.078346
     28 H                     0.072965
     29 H                     0.078139
     30 H                     0.073035
     31 H                     0.087587
     32 O                    -0.203845
     33 C                    -0.129031
     34 C                     0.024114
     35 C                    -0.143384
     36 C                    -0.144099
     37 C                     0.024911
     38 O                    -0.189737
     39 H                     0.083390
     40 H                     0.087331
     41 H                     0.093553
     42 H                     0.091339
     43 H                     0.078315
     44 H                     0.073451
     45 H                     0.078323
     46 H                     0.073454
     47 H                     0.084361
     48 H                     0.087037
     49 H                     0.086417
     50 H                     0.085290
     51 H                     0.086459
     52 H                     0.091887
     53 H                     0.083757
     54 H                     0.112870
     55 H                     0.093486
     56 H                     0.091364
  ----------------------------------------
  Sum of atomic charges =    -0.000000

                    Cartesian Multipole Moments
 -----------------------------------------------------------------
    Charge (ESU x 10^10)
                 0.0000
    Dipole Moment (Debye)
         X      -0.1590      Y      -1.9734      Z      -4.2719
       Tot       4.7084
    Quadrupole Moments (Debye-Ang)
        XX    -139.0750     XY      -6.2976     YY    -153.2110
        XZ       3.8306     YZ      -2.5584     ZZ    -167.1179

 Total job time:  54.03s(wall), 2567.42s(cpu)
        *  Thank you very much for using Q-Chem.  Have a nice day.  *
