 Q-Chem 5.0, Q-Chem, Inc., Pleasanton, CA (2017)
 Q-Chem 5.0.1 for Intel X86 EM64T Linux

User input:
--------------------------------------------------------------
$molecule
0  1
O -4.1189022762 0.8937161148 2.3352262567
C -4.296690234 1.5103282385 1.2646494063
C -4.758232626 0.9446520073 -0.1269215818
C -4.0042512877 -0.3503707831 -0.6354808662
C -2.6153205729 -0.6693466752 0.017177859
O -1.9969609219 -1.6688329327 -0.8129790683
C -0.6552506378 -2.0254950598 -0.2904400151
C 0.3970357068 -0.8891990024 -0.5458452715
O 1.6793402682 -1.3665282581 0.0313619851
C 2.6513191915 -0.3141685863 -0.0113075288
C 4.0422718283 -0.9068456231 0.3905113921
C 5.2152527926 -0.4551881574 -0.5803216638
C 4.7492331752 0.5938482224 -1.6528147115
O 4.9595325666 1.8240348739 -1.6636498301
O -4.1224643012 2.9276306218 1.1168924977
O 3.9865045521 -0.1073974811 -2.646047226
O 2.3920742514 0.8591541245 -0.3581023529
C 3.3966096425 0.857890725 -3.6005637497
C 4.5672961075 -0.3325869077 1.7798544232
C 5.7134831149 -1.2867771974 2.2991617554
C 6.8884722061 -0.9028692609 1.3249253461
C 6.2088468141 0.2227942609 0.4506450467
O 5.2901254442 0.8993726371 1.397497034
H 3.9462838536 -2.0060891316 0.4235812523
H 5.6589310754 -1.3262648267 -1.0951784772
H 3.7713043334 -0.1057901331 2.5154371575
H 5.962975339 -1.0499971593 3.3457836219
H 5.4331615422 -2.3501903856 2.2337903442
H 7.751878796 -0.495261685 1.8741791135
H 7.2299102457 -1.7534750775 0.7134486587
H 6.8978567888 0.959351799 -0.0056643074
O -2.0641166105 -0.168234019 1.01876866
C -3.7066167187 3.5208294832 2.4083932198
C -6.2221297986 0.3443968667 0.0662472063
C -6.8387544896 -0.0332808446 -1.3390595278
C -6.1061605368 -1.3924161475 -1.6444902885
C -5.1173240986 -1.4740206264 -0.4165487199
O -5.9376709195 -0.9630609058 0.7026057056
H -4.7253471052 1.7603312074 -0.8697508911
H -3.805498886 -0.2535824826 -1.7186609596
H -2.76355563 3.0700223635 2.7792924078
H -6.8798377825 0.9537580129 0.7161074564
H -7.929076129 -0.1673756497 -1.2598163433
H -6.6328974876 0.7389120976 -2.0976397254
H -6.8086819043 -2.2412254799 -1.6263815612
H -5.578224127 -1.3893120776 -2.611356206
H -4.7213183357 -2.4823374202 -0.1876594206
H -4.486261668 3.3924889531 3.1870407364
H -3.5522187813 4.5983146938 2.2148427461
H 2.8125097464 0.2576833577 -4.32236105
H 4.1767230744 1.4315600137 -4.1414942826
H 2.7264683301 1.5742167857 -3.0821239993
H 0.5071361884 -0.6933948225 -1.6346570742
H 0.0653892282 0.0482634287 -0.0507267266
H -0.3604742429 -2.9484667978 -0.8285578497
H -0.6984781148 -2.2353728972 0.8001004508
$end

$rem
JOBTYPE                   OPT
METHOD                    B3LYP
DFT_D                     d3_op
BASIS                     STO-3G
GEOM_OPT_MAX_CYCLES       100
GEOM_OPT_TOL_GRADIENT     300
GEOM_OPT_TOL_DISPLACEMENT 1200
GEOM_OPT_TOL_ENERGY       100
SYMMETRY                  False
THRESH                    12
SCF_CONVERGENCE           8
MAX_SUB_FILE_NUM          128
MEM_STATIC                400
MEM_TOTAL                 4000
$end
--------------------------------------------------------------

   16   -1510.2769684696      5.67E-09 Convergence criterion met
 Total energy in the final basis set = -1510.27696847
   13   -1510.2784416617      7.02E-09 Convergence criterion met
 Total energy in the final basis set = -1510.27844166
   13   -1510.2798940522      7.12E-09 Convergence criterion met
 Total energy in the final basis set = -1510.27989405
   14   -1510.2811757552      1.95E-09 Convergence criterion met
 Total energy in the final basis set = -1510.28117576
   13   -1510.2823978045      3.58E-09 Convergence criterion met
 Total energy in the final basis set = -1510.28239780
   13   -1510.2835676103      2.48E-09 Convergence criterion met
 Total energy in the final basis set = -1510.28356761
   13   -1510.2843917699      3.81E-09 Convergence criterion met
 Total energy in the final basis set = -1510.28439177
   13   -1510.2848978477      5.06E-09 Convergence criterion met
   13   -1510.2867654771      6.14E-09 Convergence criterion met
 Total energy in the final basis set = -1510.28676548
   13   -1510.2868325668      2.19E-09 Convergence criterion met
 Total energy in the final basis set = -1510.28683257
   13   -1510.2868685917      4.78E-09 Convergence criterion met
 Total energy in the final basis set = -1510.28686859
   11   -1510.2869393221      9.79E-09 Convergence criterion met
 Total energy in the final basis set = -1510.28693932
   11   -1510.2869245234      7.33E-09 Convergence criterion met
 Total energy in the final basis set = -1510.28692452
   10   -1510.2869260372      9.01E-09 Convergence criterion met
 Total energy in the final basis set = -1510.28692604

             Standard Nuclear Orientation (Angstroms)
    I     Atom           X                Y                Z
 ----------------------------------------------------------------
    1      O      -4.5592251304     2.6841309357     0.5407631199
    2      C      -4.2703679854     1.8239596881    -0.3172398549
    3      C      -4.9872545827     0.4430166346    -0.5615936974
    4      C      -4.1396564859    -0.8257682580    -0.1422554222
    5      C      -2.7900115612    -0.4515609329     0.5540197494
    6      O      -2.0498029246    -1.6548071127     0.7891295965
    7      C      -0.7463087719    -1.3382501111     1.4238651776
    8      C       0.3347254058    -1.0767630534     0.3191703453
    9      O       1.5865995480    -0.6924813170     1.0201654252
   10      C       2.6709537444    -0.6532049093     0.0886351978
   11      C       3.9556018860    -0.1604705077     0.8305473084
   12      C       5.2681427008    -0.3488651338    -0.0331051839
   13      C       5.0480888776    -1.1007976726    -1.3983810503
   14      O       5.1411190927    -0.6254239395    -2.5492949100
   15      O      -3.2983150953     2.0021247856    -1.3590257465
   16      O       4.8518416508    -2.4934531109    -1.1048612743
   17      O       2.5608965099    -0.9441838154    -1.1236442119
   18      C       4.5748049469    -3.2318027517    -2.3565132167
   19      C       3.9276824417     1.4242126615     0.9821413933
   20      C       5.0748665513     1.8508279014     1.9816725948
   21      C       6.3480745497     1.7001191113     1.0686458043
   22      C       5.6998467004     1.1587865540    -0.2652997379
   23      O       4.4107634873     1.8873039160    -0.3368950433
   24      H       4.0212281381    -0.6621655626     1.8123592219
   25      H       6.0284046976    -0.9057965593     0.5433649341
   26      H       2.9265345054     1.8426598735     1.2043582381
   27      H       4.9318641984     2.8920532938     2.3114545135
   28      H       5.1081936946     1.1991672421     2.8692079341
   29      H       6.8344858064     2.6727806611     0.8927570035
   30      H       7.0920773203     1.0020337135     1.4845387478
   31      H       6.2845110341     1.3217588839    -1.1914670401
   32      O      -2.4011773852     0.6880663439     0.8955789270
   33      C      -2.5547530278     3.2614822922    -1.1376554087
   34      C      -6.2631347145     0.2758284520     0.3668248098
   35      C      -7.1794797956    -0.8505014503    -0.2517964494
   36      C      -6.3425235032    -2.1390241372     0.0900552614
   37      C      -5.1316440235    -1.5160287652     0.8921647089
   38      O      -5.7262706125    -0.3586898873     1.5951410668
   39      H      -5.2550077066     0.3854072896    -1.6318954082
   40      H      -3.9236332361    -1.4874105639    -1.0003220745
   41      H      -1.9924560263     3.2313685204    -0.1818677879
   42      H      -6.7675999214     1.2292136893     0.6169374321
   43      H      -8.1619748433    -0.8647803997     0.2463274433
   44      H      -7.3337872058    -0.7162890411    -1.3344388752
   45      H      -6.9101359984    -2.8341484141     0.7288615076
   46      H      -6.0068334429    -2.6793433772    -0.8095712519
   47      H      -4.6359317694    -2.2009882775     1.6072828795
   48      H      -3.2308220198     4.1407767495    -1.1224421029
   49      H      -1.8463518264     3.3531307637    -1.9816507760
   50      H       4.4558853740    -4.2926647694    -2.0685597722
   51      H       5.4066903657    -3.1355704537    -3.0839694046
   52      H       3.6424369916    -2.8699162825    -2.8364628071
   53      H       0.4911249651    -1.9846817786    -0.3022906550
   54      H      -0.0019969186    -0.2547406818    -0.3507656311
   55      H      -0.4707334595    -2.2197623604     2.0365153171
   56      H      -0.8401760961    -0.4400070239     2.0705436986
 ----------------------------------------------------------------

   10   -1510.2869250668      4.12E-09 Convergence criterion met
 Total energy in the final basis set = -1510.28692507
 Final energy is   -1510.28692506681
 **  OPTIMIZATION CONVERGED  **

                    Orbital Energies (a.u.)
 --------------------------------------------------------------

 Alpha MOs
 -- Occupied --
-18.946 -18.943 -18.919 -18.919 -18.891 -18.888 -18.887 -18.887
-18.862 -18.861 -10.111 -10.107 -10.090 -10.090 -10.081 -10.079
-10.063 -10.062 -10.057 -10.056 -10.055 -10.054 -10.043 -10.041
-10.034 -10.033 -10.022 -10.021 -10.020 -10.019  -1.026  -1.021
 -0.998  -0.998  -0.971  -0.970  -0.950  -0.944  -0.924  -0.924
 -0.765  -0.763  -0.731  -0.723  -0.716  -0.706  -0.698  -0.655
 -0.654  -0.622  -0.597  -0.582  -0.546  -0.545  -0.538  -0.538
 -0.518  -0.510  -0.488  -0.471  -0.462  -0.455  -0.454  -0.452
 -0.441  -0.432  -0.431  -0.410  -0.407  -0.405  -0.404  -0.402
 -0.396  -0.387  -0.374  -0.366  -0.363  -0.354  -0.353  -0.343
 -0.343  -0.342  -0.340  -0.333  -0.332  -0.326  -0.325  -0.313
 -0.312  -0.306  -0.304  -0.301  -0.301  -0.278  -0.277  -0.275
 -0.273  -0.262  -0.257  -0.245  -0.244  -0.235  -0.234  -0.191
 -0.185  -0.166  -0.165  -0.165  -0.161  -0.146  -0.145  -0.142
 -0.142

          Ground-State Mulliken Net Atomic Charges

     Atom                 Charge (a.u.)
  ----------------------------------------
      1 O                    -0.215735
      2 C                     0.215782
      3 C                    -0.081451
      4 C                    -0.077627
      5 C                     0.215130
      6 O                    -0.171155
      7 C                    -0.049858
      8 C                    -0.049029
      9 O                    -0.172308
     10 C                     0.215160
     11 C                    -0.077824
     12 C                    -0.081242
     13 C                     0.215919
     14 O                    -0.215005
     15 O                    -0.177220
     16 O                    -0.177921
     17 O                    -0.206029
     18 C                    -0.128757
     19 C                     0.025197
     20 C                    -0.143851
     21 C                    -0.143793
     22 C                     0.024831
     23 O                    -0.188844
     24 H                     0.087067
     25 H                     0.083614
     26 H                     0.084380
     27 H                     0.078657
     28 H                     0.073665
     29 H                     0.078337
     30 H                     0.073301
     31 H                     0.090255
     32 O                    -0.205615
     33 C                    -0.128692
     34 C                     0.024646
     35 C                    -0.143778
     36 C                    -0.143846
     37 C                     0.025210
     38 O                    -0.189149
     39 H                     0.084034
     40 H                     0.087726
     41 H                     0.091412
     42 H                     0.090227
     43 H                     0.078321
     44 H                     0.073601
     45 H                     0.078450
     46 H                     0.073702
     47 H                     0.084833
     48 H                     0.086774
     49 H                     0.087138
     50 H                     0.085499
     51 H                     0.086651
     52 H                     0.091679
     53 H                     0.092714
     54 H                     0.090409
     55 H                     0.092511
     56 H                     0.101898
  ----------------------------------------
  Sum of atomic charges =    -0.000000

                    Cartesian Multipole Moments
 -----------------------------------------------------------------
    Charge (ESU x 10^10)
                -0.0000
    Dipole Moment (Debye)
         X       0.3044      Y      -2.6299      Z       0.6622
       Tot       2.7291
    Quadrupole Moments (Debye-Ang)
        XX    -150.6392     XY       6.7453     YY    -156.5570
        XZ      21.4260     YZ      -0.2000     ZZ    -164.6802

 Total job time:  59.31s(wall), 2821.17s(cpu)
        *  Thank you very much for using Q-Chem.  Have a nice day.  *
