 Q-Chem 5.0, Q-Chem, Inc., Pleasanton, CA (2017)
 Q-Chem 5.0.1 for Intel X86 EM64T Linux

User input:
--------------------------------------------------------------
$molecule
0  1
O -3.94934 -3.66094 2.70899
C -3.26408 -4.56952 2.26188
C -3.36658 -6.02376 2.66595
C -3.40271 -6.33384 4.17141
C -3.51154 -5.1464 5.10213
O -3.23103 -5.53264 6.3818
C -3.29119 -4.45436 7.32146
C -2.08636 -3.53592 7.14545
O -2.15767 -2.45002 8.08279
C -1.2233 -1.48009 7.9237
C -1.21418 -0.48055 9.05573
C 0.1781 -0.13837 9.60595
C 1.3508 -0.54979 8.73864
O 2.01546 0.20319 8.04164
O -2.27824 -4.26695 1.37677
O 1.6345 -1.87902 8.7213
O -0.57467 -1.3355 6.89363
C 2.64077 -2.44971 7.97077
C -1.70601 0.91659 8.62552
C -2.23264 1.66973 9.84557
C -0.94102 1.92595 10.59472
C 0.07539 1.403 9.5709
O -0.53645 1.63412 8.32583
H -1.89843 -0.8533 9.85313
H 0.36587 -0.51699 10.63454
H -2.47955 0.88473 7.82709
H -2.62824 2.64224 9.47336
H -3.02519 1.15555 10.43066
H -0.83557 3.02325 10.74498
H -0.84058 1.39376 11.56547
H 1.06177 1.8936 9.72691
O -4.3379 -4.26094 4.93292
C -2.01269 -2.99509 0.91411
C -4.72915 -6.61035 2.24115
C -4.63469 -8.13213 2.13405
C -4.55306 -8.51238 3.59729
C -4.71498 -7.13564 4.2496
O -5.55589 -6.43753 3.36512
H -2.56254 -6.58295 2.13505
H -2.51864 -6.93234 4.48817
H -1.74174 -2.32852 1.76073
H -5.10796 -6.18383 1.28598
H -5.60655 -8.49479 1.72871
H -3.80748 -8.51155 1.49641
H -5.42397 -9.16079 3.84101
H -3.60922 -9.01064 3.90783
H -5.08572 -7.24302 5.29308
H -2.90016 -2.5878 0.38408
H -1.16067 -3.03636 0.20499
H 2.64835 -3.54501 8.14598
H 3.6257 -2.03187 8.2701
H 2.46497 -2.26188 6.88993
H -1.14054 -4.106 7.28272
H -2.11939 -3.12886 6.11012
H -3.22796 -4.8855 8.34297
H -4.25546 -3.89982 7.27202
$end

$opt
CONSTRAINT
tors           1           2           3           4     -47.955
tors           3           4           5           6    -166.369
tors           4           5           6           7    +178.989
tors           5           6           7           8     -73.041
tors           6           7           8           9    +179.515
tors           7           8           9          10    -172.737
tors           8           9          10          11    -171.235
tors           9          10          11          12    +133.773
tors          11          12          13          14    +103.654
ENDCONSTRAINT
$end

$rem
JOBTYPE                   OPT
METHOD                    B3LYP
DFT_D                     d3_op
BASIS                     STO-3G
GEOM_OPT_MAX_CYCLES       100
GEOM_OPT_TOL_GRADIENT     300
GEOM_OPT_TOL_DISPLACEMENT 1200
GEOM_OPT_TOL_ENERGY       100
SYMMETRY                  False
THRESH                    12
SCF_CONVERGENCE           8
MAX_SUB_FILE_NUM          128
MEM_STATIC                400
MEM_TOTAL                 4000
$end
--------------------------------------------------------------

   15   -1510.1299854747      7.54E-09 Convergence criterion met
 Total energy in the final basis set = -1510.12998547
   14   -1510.2020691342      6.77E-09 Convergence criterion met
 Total energy in the final basis set = -1510.20206913
   14   -1510.2406782346      8.31E-09 Convergence criterion met
 Total energy in the final basis set = -1510.24067823
   14   -1510.2592956122      9.17E-09 Convergence criterion met
 Total energy in the final basis set = -1510.25929561
    2   -1510.2592956121      1.58E-09 Convergence criterion met
 Total energy in the final basis set = -1510.25929561
   14   -1510.2673997203      3.61E-09 Convergence criterion met
 Total energy in the final basis set = -1510.26739972
   14   -1510.2710238044      2.99E-09 Convergence criterion met
 Total energy in the final basis set = -1510.27102380
   13   -1510.2730443139      2.44E-09 Convergence criterion met
   11   -1510.2770790346      6.41E-09 Convergence criterion met
 Total energy in the final basis set = -1510.27707903
   10   -1510.2770895624      5.03E-09 Convergence criterion met
 Total energy in the final basis set = -1510.27708956
    9   -1510.2770922702      6.44E-09 Convergence criterion met
 Total energy in the final basis set = -1510.27709227
    9   -1510.2770951384      5.22E-09 Convergence criterion met
 Total energy in the final basis set = -1510.27709514
    9   -1510.2770968295      3.14E-09 Convergence criterion met
 Total energy in the final basis set = -1510.27709683
    9   -1510.2770981808      2.08E-09 Convergence criterion met
 Total energy in the final basis set = -1510.27709818

             Standard Nuclear Orientation (Angstroms)
    I     Atom           X                Y                Z
 ----------------------------------------------------------------
    1      O      -4.1189022762     0.8937161148     2.3352262567
    2      C      -4.2966902340     1.5103282385     1.2646494063
    3      C      -4.7582326260     0.9446520073    -0.1269215818
    4      C      -4.0042512877    -0.3503707831    -0.6354808662
    5      C      -2.6153205729    -0.6693466752     0.0171778590
    6      O      -1.9969609219    -1.6688329327    -0.8129790683
    7      C      -0.6552506378    -2.0254950598    -0.2904400151
    8      C       0.3970357068    -0.8891990024    -0.5458452715
    9      O       1.6793402682    -1.3665282581     0.0313619851
   10      C       2.6513191915    -0.3141685863    -0.0113075288
   11      C       4.0422718283    -0.9068456231     0.3905113921
   12      C       5.2152527926    -0.4551881574    -0.5803216638
   13      C       4.7492331752     0.5938482224    -1.6528147115
   14      O       4.9595325666     1.8240348739    -1.6636498301
   15      O      -4.1224643012     2.9276306218     1.1168924977
   16      O       3.9865045521    -0.1073974811    -2.6460472260
   17      O       2.3920742514     0.8591541245    -0.3581023529
   18      C       3.3966096425     0.8578907250    -3.6005637497
   19      C       4.5672961075    -0.3325869077     1.7798544232
   20      C       5.7134831149    -1.2867771974     2.2991617554
   21      C       6.8884722061    -0.9028692609     1.3249253461
   22      C       6.2088468141     0.2227942609     0.4506450467
   23      O       5.2901254442     0.8993726371     1.3974970340
   24      H       3.9462838536    -2.0060891316     0.4235812523
   25      H       5.6589310754    -1.3262648267    -1.0951784772
   26      H       3.7713043334    -0.1057901331     2.5154371575
   27      H       5.9629753390    -1.0499971593     3.3457836219
   28      H       5.4331615422    -2.3501903856     2.2337903442
   29      H       7.7518787960    -0.4952616850     1.8741791135
   30      H       7.2299102457    -1.7534750775     0.7134486587
   31      H       6.8978567888     0.9593517990    -0.0056643074
   32      O      -2.0641166105    -0.1682340190     1.0187686600
   33      C      -3.7066167187     3.5208294832     2.4083932198
   34      C      -6.2221297986     0.3443968667     0.0662472063
   35      C      -6.8387544896    -0.0332808446    -1.3390595278
   36      C      -6.1061605368    -1.3924161475    -1.6444902885
   37      C      -5.1173240986    -1.4740206264    -0.4165487199
   38      O      -5.9376709195    -0.9630609058     0.7026057056
   39      H      -4.7253471052     1.7603312074    -0.8697508911
   40      H      -3.8054988860    -0.2535824826    -1.7186609596
   41      H      -2.7635556300     3.0700223635     2.7792924078
   42      H      -6.8798377825     0.9537580129     0.7161074564
   43      H      -7.9290761290    -0.1673756497    -1.2598163433
   44      H      -6.6328974876     0.7389120976    -2.0976397254
   45      H      -6.8086819043    -2.2412254799    -1.6263815612
   46      H      -5.5782241270    -1.3893120776    -2.6113562060
   47      H      -4.7213183357    -2.4823374202    -0.1876594206
   48      H      -4.4862616680     3.3924889531     3.1870407364
   49      H      -3.5522187813     4.5983146938     2.2148427461
   50      H       2.8125097464     0.2576833577    -4.3223610500
   51      H       4.1767230744     1.4315600137    -4.1414942826
   52      H       2.7264683301     1.5742167857    -3.0821239993
   53      H       0.5071361884    -0.6933948225    -1.6346570742
   54      H       0.0653892282     0.0482634287    -0.0507267266
   55      H      -0.3604742429    -2.9484667978    -0.8285578497
   56      H      -0.6984781148    -2.2353728972     0.8001004508
 ----------------------------------------------------------------

    9   -1510.2770984886      1.47E-09 Convergence criterion met
 Total energy in the final basis set = -1510.27709849
 Final energy is   -1510.27709848860
 **  OPTIMIZATION CONVERGED  **

                    Orbital Energies (a.u.)
 --------------------------------------------------------------

 Alpha MOs
 -- Occupied --
-18.936 -18.935 -18.926 -18.926 -18.891 -18.886 -18.884 -18.876
-18.871 -18.868 -10.104 -10.100 -10.094 -10.091 -10.077 -10.072
-10.063 -10.061 -10.060 -10.059 -10.057 -10.057 -10.041 -10.037
-10.037 -10.036 -10.023 -10.022 -10.020 -10.019  -1.018  -1.013
 -1.003  -1.002  -0.973  -0.969  -0.943  -0.937  -0.930  -0.926
 -0.765  -0.762  -0.728  -0.722  -0.716  -0.706  -0.696  -0.659
 -0.658  -0.619  -0.596  -0.581  -0.546  -0.545  -0.539  -0.537
 -0.517  -0.509  -0.478  -0.470  -0.462  -0.456  -0.450  -0.450
 -0.439  -0.433  -0.428  -0.411  -0.409  -0.408  -0.405  -0.398
 -0.393  -0.382  -0.373  -0.365  -0.363  -0.355  -0.352  -0.348
 -0.344  -0.339  -0.334  -0.332  -0.331  -0.326  -0.325  -0.314
 -0.309  -0.307  -0.304  -0.301  -0.293  -0.283  -0.280  -0.274
 -0.272  -0.259  -0.254  -0.249  -0.247  -0.236  -0.232  -0.182
 -0.179  -0.173  -0.172  -0.157  -0.155  -0.147  -0.146  -0.143
 -0.140

          Ground-State Mulliken Net Atomic Charges

     Atom                 Charge (a.u.)
  ----------------------------------------
      1 O                    -0.202944
      2 C                     0.210525
      3 C                    -0.079826
      4 C                    -0.079547
      5 C                     0.209188
      6 O                    -0.175291
      7 C                    -0.048407
      8 C                    -0.051975
      9 O                    -0.173086
     10 C                     0.210147
     11 C                    -0.079397
     12 C                    -0.078914
     13 C                     0.212836
     14 O                    -0.205352
     15 O                    -0.172938
     16 O                    -0.176991
     17 O                    -0.210857
     18 C                    -0.129809
     19 C                     0.025883
     20 C                    -0.143264
     21 C                    -0.144651
     22 C                     0.025551
     23 O                    -0.184996
     24 H                     0.086077
     25 H                     0.084366
     26 H                     0.084072
     27 H                     0.078459
     28 H                     0.073582
     29 H                     0.078199
     30 H                     0.072925
     31 H                     0.088523
     32 O                    -0.204685
     33 C                    -0.129215
     34 C                     0.026133
     35 C                    -0.145268
     36 C                    -0.142048
     37 C                     0.026930
     38 O                    -0.185352
     39 H                     0.086438
     40 H                     0.085907
     41 H                     0.092344
     42 H                     0.082988
     43 H                     0.078591
     44 H                     0.074242
     45 H                     0.078453
     46 H                     0.074253
     47 H                     0.085885
     48 H                     0.086553
     49 H                     0.088595
     50 H                     0.086368
     51 H                     0.087755
     52 H                     0.093555
     53 H                     0.084450
     54 H                     0.099103
     55 H                     0.091302
     56 H                     0.094633
  ----------------------------------------
  Sum of atomic charges =    -0.000000

                    Cartesian Multipole Moments
 -----------------------------------------------------------------
    Charge (ESU x 10^10)
                -0.0000
    Dipole Moment (Debye)
         X      -0.4911      Y      -2.0516      Z      -2.4780
       Tot       3.2544
    Quadrupole Moments (Debye-Ang)
        XX    -149.4548     XY     -18.1259     YY    -159.4911
        XZ      10.6908     YZ       2.2544     ZZ    -156.2467

 Total job time:  74.22s(wall), 3530.31s(cpu)
        *  Thank you very much for using Q-Chem.  Have a nice day.  *
