 Q-Chem 5.0, Q-Chem, Inc., Pleasanton, CA (2017)
 Q-Chem 5.0.1 for Intel X86 EM64T Linux

User input:
--------------------------------------------------------------
$molecule
0  1
O -3.3366658203 1.044794891 2.4103379853
C -3.333385473 1.3847650405 1.2089506899
C -4.3584698877 0.9629721986 0.0883689891
C -3.9723119604 -0.3840693756 -0.6542903441
C -2.5437978734 -0.9069684226 -0.2998603462
O -2.1320265349 -1.8422654865 -1.3054167225
C -0.7627308997 -2.3355264886 -1.0011604577
C 0.3056533473 -1.2213725772 -1.2915923827
O 1.662805946 -1.7278889006 -0.9795053194
C 2.3499050531 -0.7712776219 -0.1514909436
C 3.8842279223 -1.0770686305 -0.1902587397
C 4.7208007634 0.1678999873 -0.7150938705
C 3.8257384845 1.3903829115 -1.1278630651
O 3.9315879163 2.5755230745 -0.7513685326
O -2.3567013145 2.2440084541 0.6033208459
O 2.8435008752 0.9216182634 -2.0642419829
O 1.7795608229 0.1539510342 0.4686408906
C 1.867352772 1.9946248703 -2.3600108835
C 4.4852975289 -1.2286822006 1.2736617901
C 5.9437937732 -1.824967724 1.1593253554
C 6.7522491888 -0.5676458425 0.6651434903
C 5.6015636607 0.5070069363 0.5557602677
O 4.7088947684 0.173735042 1.6909602411
H 4.0497763886 -1.9754680799 -0.809789838
H 5.3428520298 -0.1190618705 -1.5830549681
H 3.8189810375 -1.7450829659 1.991607845
H 6.2950860731 -2.17161181 2.144258617
H 5.9931821001 -2.6675675711 0.4509735206
H 7.5035805934 -0.2533676755 1.4071055939
H 7.2571701019 -0.7383114542 -0.299166067
H 5.9170749959 1.567094822 0.6101057206
O -1.8352097217 -0.591711156 0.6817655197
C -1.2596104132 2.5108837495 1.5614556879
C -5.7317895473 0.5357591208 0.7574369107
C -6.8315130799 0.3772350124 -0.3661747625
C -6.4309301462 -1.0065773306 -0.9990087996
C -5.1380529367 -1.3542940016 -0.1610477023
O -5.4648324574 -0.85691735 1.1916051937
H -4.4717606782 1.7944799093 -0.6292389635
H -4.0209881967 -0.2603007541 -1.7510003986
H -0.6847929658 1.5846776583 1.7708317871
H -6.0261700901 1.1560643939 1.6256932091
H -7.8382427744 0.3422902178 0.0795759843
H -6.7974896261 1.2024205543 -1.0954814273
H -7.2099894257 -1.767412216 -0.8318113027
H -6.2252245757 -0.9409157003 -2.079293244
H -4.8648229217 -2.4270515514 -0.1319933637
H -1.6406428472 2.9180962982 2.5197924337
H -0.5989177547 3.2531980635 1.0770366279
H 1.2307546513 1.6156190717 -3.1803895784
H 2.369252425 2.9312688134 -2.6755294374
H 1.2372803663 2.2092481327 -1.4718879396
H 0.2723754237 -0.9328048365 -2.3637129997
H 0.1053864841 -0.3347104336 -0.6521323984
H -0.607239339 -3.2117228535 -1.6616604142
H -0.6839795834 -2.6537615439 0.0604681494
$end

$rem
JOBTYPE                   OPT
METHOD                    B3LYP
DFT_D                     d3_op
BASIS                     STO-3G
GEOM_OPT_MAX_CYCLES       100
GEOM_OPT_TOL_GRADIENT     300
GEOM_OPT_TOL_DISPLACEMENT 1200
GEOM_OPT_TOL_ENERGY       100
SYMMETRY                  False
THRESH                    12
SCF_CONVERGENCE           8
MAX_SUB_FILE_NUM          128
MEM_STATIC                400
MEM_TOTAL                 4000
$end
--------------------------------------------------------------

   16   -1510.2837143417      4.48E-09 Convergence criterion met
 Total energy in the final basis set = -1510.28371434
   13   -1510.2855380009      9.42E-09 Convergence criterion met
 Total energy in the final basis set = -1510.28553800
   13   -1510.2867013941      6.42E-09 Convergence criterion met
 Total energy in the final basis set = -1510.28670139
   13   -1510.2877163412      9.80E-09 Convergence criterion met
 Total energy in the final basis set = -1510.28771634
   13   -1510.2881334314      6.54E-09 Convergence criterion met
 Total energy in the final basis set = -1510.28813343
   13   -1510.2890123000      6.83E-09 Convergence criterion met
 Total energy in the final basis set = -1510.28901230
   13   -1510.2885349948      9.00E-09 Convergence criterion met
 Total energy in the final basis set = -1510.28853499
   13   -1510.2897084044      9.05E-09 Convergence criterion met
   12   -1510.2921115424      8.03E-09 Convergence criterion met
 Total energy in the final basis set = -1510.29211154
   12   -1510.2922390698      4.99E-09 Convergence criterion met
 Total energy in the final basis set = -1510.29223907
   11   -1510.2922347584      7.79E-09 Convergence criterion met
 Total energy in the final basis set = -1510.29223476
   11   -1510.2922417790      3.73E-09 Convergence criterion met
 Total energy in the final basis set = -1510.29224178
    9   -1510.2922407007      6.48E-09 Convergence criterion met
 Total energy in the final basis set = -1510.29224070
    9   -1510.2922420588      4.21E-09 Convergence criterion met
 Total energy in the final basis set = -1510.29224206

             Standard Nuclear Orientation (Angstroms)
    I     Atom           X                Y                Z
 ----------------------------------------------------------------
    1      O      -3.0831380480     2.5091864438     1.0044782371
    2      C      -3.1122208237     1.6232701033     0.1233069650
    3      C      -4.3417306798     0.7316047237    -0.2758788719
    4      C      -4.0260703464    -0.8227308817    -0.3290141528
    5      C      -2.5533366073    -1.1663187554     0.0723587140
    6      O      -1.9385652801    -1.8593302779    -1.0289925633
    7      C      -0.5238813632    -2.1591018350    -0.7060895459
    8      C       0.4049002601    -1.4098239029    -1.7289508832
    9      O       1.8359622110    -1.6039197160    -1.3854996447
   10      C       2.2537746699    -0.6683170875    -0.3871324583
   11      C       3.7556754623    -0.9499310907    -0.0453117268
   12      C       4.7136350988     0.2661248358    -0.3932922251
   13      C       3.9740410294     1.4866683290    -1.0466663056
   14      O       4.0463444057     2.6890471707    -0.7198109565
   15      O      -2.0085234765     1.2657563649    -0.7134676029
   16      O       3.1784572107     0.9904397779    -2.1327267350
   17      O       1.5147003409     0.1929532664     0.1420343790
   18      C       2.3983434970     2.0911601167    -2.7422119130
   19      C       3.9722662969    -1.0455482147     1.5275393310
   20      C       5.3982110228    -1.6696121809     1.7982060506
   21      C       6.3347095076    -0.4493686212     1.4630124071
   22      C       5.2732954385     0.6394621378     1.0406270847
   23      O       4.1235913943     0.3686986646     1.9355119738
   24      H       4.0642963892    -1.8718181530    -0.5677009265
   25      H       5.5196842067    -0.0579269156    -1.0774395210
   26      H       3.1357909821    -1.5194738481     2.0770103503
   27      H       5.4901770939    -1.9721819916     2.8533866119
   28      H       5.5954253662    -2.5462591852     1.1604550281
   29      H       6.8945084610    -0.1154806548     2.3509049189
   30      H       7.0502974595    -0.6691106799     0.6546855597
   31      H       5.5951027952     1.6951666941     1.1320661310
   32      O      -1.9848041947    -0.9456617060     1.1641233478
   33      C      -0.7958249306     2.0369723849    -0.3421118868
   34      C      -5.4648530681     0.7812293599     0.8400764615
   35      C      -6.8120590711     0.2426742189     0.2186260706
   36      C      -6.5115352930    -1.3007055876     0.1384797557
   37      C      -5.0575159741    -1.3623176005     0.7552346646
   38      O      -5.0636732561    -0.2936011766     1.7778966157
   39      H      -4.7215014263     1.0822751715    -1.2535327145
   40      H      -4.2184552273    -1.2426094289    -1.3314950312
   41      H       0.0336886755     1.3208542587    -0.1381910172
   42      H      -5.5241669380     1.7529888705     1.3677636445
   43      H      -7.6580195638     0.4539405454     0.8918356189
   44      H      -7.0242720712     0.6883891182    -0.7662228491
   45      H      -7.2147894401    -1.8824415625     0.7553989626
   46      H      -6.5425226530    -1.6876174435    -0.8927503920
   47      H      -4.7787008667    -2.3325312835     1.2101684386
   48      H      -1.0108014707     2.6525556678     0.5531705424
   49      H      -0.5253065394     2.6995159868    -1.1879941622
   50      H       1.8385588005     1.6398692243    -3.5820186648
   51      H       3.0572936107     2.8972849725    -3.1236780843
   52      H       1.6860534615     2.5301729548    -2.0146968066
   53      H       0.2786848482    -1.8314370195    -2.7461927703
   54      H       0.1396039182    -0.3324160947    -1.7420505599
   55      H      -0.3670355875    -3.2556332703    -0.7730640651
   56      H      -0.3256620178    -1.8082089172     0.3311205136
 ----------------------------------------------------------------

    8   -1510.2922423153      8.43E-09 Convergence criterion met
 Total energy in the final basis set = -1510.29224232
 Final energy is   -1510.29224231526
 **  OPTIMIZATION CONVERGED  **

                    Orbital Energies (a.u.)
 --------------------------------------------------------------

 Alpha MOs
 -- Occupied --
-18.941 -18.940 -18.929 -18.924 -18.889 -18.885 -18.884 -18.881
-18.872 -18.872 -10.109 -10.105 -10.097 -10.094 -10.073 -10.069
-10.064 -10.062 -10.060 -10.059 -10.055 -10.042 -10.041 -10.036
-10.035 -10.035 -10.022 -10.021 -10.019 -10.017  -1.021  -1.013
 -1.009  -1.001  -0.972  -0.967  -0.944  -0.942  -0.933  -0.929
 -0.767  -0.761  -0.728  -0.722  -0.713  -0.705  -0.695  -0.667
 -0.649  -0.620  -0.598  -0.580  -0.549  -0.542  -0.539  -0.535
 -0.514  -0.506  -0.484  -0.475  -0.466  -0.458  -0.455  -0.449
 -0.436  -0.432  -0.428  -0.419  -0.414  -0.407  -0.404  -0.398
 -0.393  -0.381  -0.377  -0.364  -0.360  -0.358  -0.355  -0.352
 -0.351  -0.336  -0.335  -0.331  -0.328  -0.325  -0.323  -0.313
 -0.308  -0.307  -0.302  -0.301  -0.292  -0.289  -0.284  -0.276
 -0.268  -0.258  -0.257  -0.244  -0.240  -0.235  -0.231  -0.189
 -0.182  -0.171  -0.165  -0.162  -0.157  -0.155  -0.149  -0.145
 -0.141

          Ground-State Mulliken Net Atomic Charges

     Atom                 Charge (a.u.)
  ----------------------------------------
      1 O                    -0.209843
      2 C                     0.214266
      3 C                    -0.078138
      4 C                    -0.078466
      5 C                     0.214425
      6 O                    -0.174086
      7 C                    -0.059672
      8 C                    -0.050804
      9 O                    -0.167749
     10 C                     0.219553
     11 C                    -0.078634
     12 C                    -0.078303
     13 C                     0.213468
     14 O                    -0.205143
     15 O                    -0.178704
     16 O                    -0.172435
     17 O                    -0.217189
     18 C                    -0.129436
     19 C                     0.026029
     20 C                    -0.143924
     21 C                    -0.143903
     22 C                     0.024304
     23 O                    -0.184984
     24 H                     0.087262
     25 H                     0.085839
     26 H                     0.084928
     27 H                     0.079248
     28 H                     0.073521
     29 H                     0.079301
     30 H                     0.073172
     31 H                     0.091450
     32 O                    -0.211644
     33 C                    -0.153379
     34 C                     0.024364
     35 C                    -0.144011
     36 C                    -0.144025
     37 C                     0.025976
     38 O                    -0.186024
     39 H                     0.083819
     40 H                     0.085907
     41 H                     0.111799
     42 H                     0.091673
     43 H                     0.078193
     44 H                     0.072641
     45 H                     0.077910
     46 H                     0.072976
     47 H                     0.082808
     48 H                     0.099205
     49 H                     0.071166
     50 H                     0.090630
     51 H                     0.090996
     52 H                     0.091742
     53 H                     0.089689
     54 H                     0.095945
     55 H                     0.082326
     56 H                     0.103967
  ----------------------------------------
  Sum of atomic charges =     0.000000

                    Cartesian Multipole Moments
 -----------------------------------------------------------------
    Charge (ESU x 10^10)
                 0.0000
    Dipole Moment (Debye)
         X       0.9677      Y      -2.6249      Z      -3.9864
       Tot       4.8701
    Quadrupole Moments (Debye-Ang)
        XX    -137.3134     XY      -3.8962     YY    -160.3096
        XZ       6.7638     YZ      -7.4124     ZZ    -163.4758

 Total job time:  97.11s(wall), 4627.78s(cpu)
        *  Thank you very much for using Q-Chem.  Have a nice day.  *
