 Q-Chem 5.0, Q-Chem, Inc., Pleasanton, CA (2017)
 Q-Chem 5.0.1 for Intel X86 EM64T Linux

User input:
--------------------------------------------------------------
$molecule
0  1
O -3.94934 -3.66094 2.70899
C -3.26408 -4.56952 2.26188
C -3.36658 -6.02376 2.66595
C -2.52709 -6.47906 3.87086
C -1.81614 -5.39245 4.64669
O -0.81725 -5.93875 5.40115
C -0.08058 -4.96595 6.14963
C 0.82033 -4.15948 5.22006
O 1.55393 -3.18272 5.97548
C 1.51907 -1.91916 5.48421
C 2.6091 -1.03864 6.0474
C 3.55119 -0.42546 5.00111
C 3.06969 -0.48092 3.56522
O 3.00403 0.47211 2.80233
O -2.1931 -4.2569 1.48644
O 2.8889 -1.72665 3.04889
O 0.66472 -1.50183 4.71017
C 2.50135 -1.98655 1.75101
C 2.09137 0.23531 6.74383
C 3.12305 0.71222 7.76414
C 4.23038 1.18887 6.84418
C 3.54024 1.03891 5.48149
O 2.1753 1.24058 5.76203
H 3.18291 -1.63888 6.79194
H 4.55482 -0.90436 5.02017
H 1.0988 0.10129 7.22681
H 2.67839 1.59675 8.27468
H 3.43175 -0.03115 8.53026
H 4.44293 2.25588 7.07657
H 5.16835 0.5934 6.88208
H 3.99639 1.7338 4.74283
O -2.31918 -4.3006 4.8894
C -1.85647 -2.97541 1.1036
C -4.78221 -6.34731 3.19792
C -5.05532 -7.84827 3.09779
C -4.17348 -8.3676 4.21158
C -3.63641 -7.0487 4.77454
O -4.69333 -6.14292 4.58478
H -3.20983 -6.63183 1.74685
H -1.78127 -7.25958 3.5973
H -1.64862 -2.35093 1.99892
H -5.58495 -5.78441 2.67206
H -6.11886 -8.01364 3.38383
H -4.87087 -8.29351 2.09651
H -4.819 -8.87019 4.96606
H -3.35767 -9.05238 3.89379
H -3.29842 -7.18932 5.82547
H -2.68118 -2.52361 0.51194
H -0.94282 -3.01153 0.4754
H 2.42753 -3.08399 1.60705
H 3.25046 -1.58084 1.03802
H 1.50671 -1.53307 1.55193
H 1.54433 -4.86205 4.75447
H 0.22154 -3.72882 4.38871
H 0.5706 -5.49665 6.87636
H -0.7565 -4.30912 6.74298
$end

$opt
CONSTRAINT
tors           1           2           3           4     -88.028
tors           3           4           5           6    -161.683
tors           4           5           6           7    +178.989
tors           5           6           7           8     -73.041
tors           6           7           8           9    +179.833
tors           7           8           9          10    -130.545
tors           8           9          10          11    -162.681
tors           9          10          11          12    +121.700
tors          11          12          13          14    +127.927
ENDCONSTRAINT
$end

$rem
JOBTYPE                   OPT
METHOD                    B3LYP
DFT_D                     d3_op
BASIS                     STO-3G
GEOM_OPT_MAX_CYCLES       100
GEOM_OPT_TOL_GRADIENT     300
GEOM_OPT_TOL_DISPLACEMENT 1200
GEOM_OPT_TOL_ENERGY       100
SYMMETRY                  False
THRESH                    12
SCF_CONVERGENCE           8
MAX_SUB_FILE_NUM          128
MEM_STATIC                400
MEM_TOTAL                 4000
$end
--------------------------------------------------------------

   15   -1510.1483264730      6.11E-09 Convergence criterion met
 Total energy in the final basis set = -1510.14832647
   14   -1510.2176164970      5.72E-09 Convergence criterion met
 Total energy in the final basis set = -1510.21761650
   14   -1510.2548351646      8.02E-09 Convergence criterion met
 Total energy in the final basis set = -1510.25483516
   14   -1510.2711914117      6.08E-09 Convergence criterion met
 Total energy in the final basis set = -1510.27119141
   14   -1510.2770407163      3.38E-09 Convergence criterion met
 Total energy in the final basis set = -1510.27704072
   13   -1510.2795724039      3.42E-09 Convergence criterion met
 Total energy in the final basis set = -1510.27957240
   13   -1510.2809572607      4.63E-09 Convergence criterion met
 Total energy in the final basis set = -1510.28095726
   12   -1510.2818400808      9.53E-09 Convergence criterion met
   12   -1510.2837115145      2.71E-09 Convergence criterion met
 Total energy in the final basis set = -1510.28371151
   11   -1510.2837649346      8.81E-09 Convergence criterion met
 Total energy in the final basis set = -1510.28376493
   11   -1510.2838111113      5.72E-09 Convergence criterion met
 Total energy in the final basis set = -1510.28381111
   11   -1510.2838420816      5.97E-09 Convergence criterion met
 Total energy in the final basis set = -1510.28384208
   10   -1510.2838487420      8.57E-09 Convergence criterion met
 Total energy in the final basis set = -1510.28384874
   10   -1510.2838540755      6.24E-09 Convergence criterion met
 Total energy in the final basis set = -1510.28385408

             Standard Nuclear Orientation (Angstroms)
    I     Atom           X                Y                Z
 ----------------------------------------------------------------
    1      O      -3.3366658203     1.0447948910     2.4103379853
    2      C      -3.3333854730     1.3847650405     1.2089506899
    3      C      -4.3584698877     0.9629721986     0.0883689891
    4      C      -3.9723119604    -0.3840693756    -0.6542903441
    5      C      -2.5437978734    -0.9069684226    -0.2998603462
    6      O      -2.1320265349    -1.8422654865    -1.3054167225
    7      C      -0.7627308997    -2.3355264886    -1.0011604577
    8      C       0.3056533473    -1.2213725772    -1.2915923827
    9      O       1.6628059460    -1.7278889006    -0.9795053194
   10      C       2.3499050531    -0.7712776219    -0.1514909436
   11      C       3.8842279223    -1.0770686305    -0.1902587397
   12      C       4.7208007634     0.1678999873    -0.7150938705
   13      C       3.8257384845     1.3903829115    -1.1278630651
   14      O       3.9315879163     2.5755230745    -0.7513685326
   15      O      -2.3567013145     2.2440084541     0.6033208459
   16      O       2.8435008752     0.9216182634    -2.0642419829
   17      O       1.7795608229     0.1539510342     0.4686408906
   18      C       1.8673527720     1.9946248703    -2.3600108835
   19      C       4.4852975289    -1.2286822006     1.2736617901
   20      C       5.9437937732    -1.8249677240     1.1593253554
   21      C       6.7522491888    -0.5676458425     0.6651434903
   22      C       5.6015636607     0.5070069363     0.5557602677
   23      O       4.7088947684     0.1737350420     1.6909602411
   24      H       4.0497763886    -1.9754680799    -0.8097898380
   25      H       5.3428520298    -0.1190618705    -1.5830549681
   26      H       3.8189810375    -1.7450829659     1.9916078450
   27      H       6.2950860731    -2.1716118100     2.1442586170
   28      H       5.9931821001    -2.6675675711     0.4509735206
   29      H       7.5035805934    -0.2533676755     1.4071055939
   30      H       7.2571701019    -0.7383114542    -0.2991660670
   31      H       5.9170749959     1.5670948220     0.6101057206
   32      O      -1.8352097217    -0.5917111560     0.6817655197
   33      C      -1.2596104132     2.5108837495     1.5614556879
   34      C      -5.7317895473     0.5357591208     0.7574369107
   35      C      -6.8315130799     0.3772350124    -0.3661747625
   36      C      -6.4309301462    -1.0065773306    -0.9990087996
   37      C      -5.1380529367    -1.3542940016    -0.1610477023
   38      O      -5.4648324574    -0.8569173500     1.1916051937
   39      H      -4.4717606782     1.7944799093    -0.6292389635
   40      H      -4.0209881967    -0.2603007541    -1.7510003986
   41      H      -0.6847929658     1.5846776583     1.7708317871
   42      H      -6.0261700901     1.1560643939     1.6256932091
   43      H      -7.8382427744     0.3422902178     0.0795759843
   44      H      -6.7974896261     1.2024205543    -1.0954814273
   45      H      -7.2099894257    -1.7674122160    -0.8318113027
   46      H      -6.2252245757    -0.9409157003    -2.0792932440
   47      H      -4.8648229217    -2.4270515514    -0.1319933637
   48      H      -1.6406428472     2.9180962982     2.5197924337
   49      H      -0.5989177547     3.2531980635     1.0770366279
   50      H       1.2307546513     1.6156190717    -3.1803895784
   51      H       2.3692524250     2.9312688134    -2.6755294374
   52      H       1.2372803663     2.2092481327    -1.4718879396
   53      H       0.2723754237    -0.9328048365    -2.3637129997
   54      H       0.1053864841    -0.3347104336    -0.6521323984
   55      H      -0.6072393390    -3.2117228535    -1.6616604142
   56      H      -0.6839795834    -2.6537615439     0.0604681494
 ----------------------------------------------------------------

   10   -1510.2838550503      5.97E-09 Convergence criterion met
 Total energy in the final basis set = -1510.28385505
 Final energy is   -1510.28385505030
 **  OPTIMIZATION CONVERGED  **

                    Orbital Energies (a.u.)
 --------------------------------------------------------------

 Alpha MOs
 -- Occupied --
-18.940 -18.936 -18.930 -18.916 -18.888 -18.887 -18.885 -18.882
-18.875 -18.859 -10.105 -10.102 -10.100 -10.086 -10.075 -10.066
-10.065 -10.062 -10.061 -10.058 -10.056 -10.047 -10.040 -10.040
-10.039 -10.032 -10.021 -10.021 -10.020 -10.019  -1.020  -1.016
 -1.007  -0.994  -0.970  -0.969  -0.943  -0.940  -0.935  -0.920
 -0.765  -0.762  -0.727  -0.723  -0.713  -0.705  -0.695  -0.664
 -0.650  -0.619  -0.596  -0.580  -0.548  -0.544  -0.538  -0.536
 -0.512  -0.509  -0.479  -0.477  -0.463  -0.455  -0.454  -0.450
 -0.435  -0.431  -0.427  -0.416  -0.414  -0.404  -0.398  -0.396
 -0.394  -0.379  -0.376  -0.366  -0.362  -0.356  -0.354  -0.348
 -0.344  -0.337  -0.336  -0.331  -0.329  -0.328  -0.325  -0.312
 -0.310  -0.306  -0.303  -0.301  -0.295  -0.287  -0.277  -0.274
 -0.272  -0.258  -0.256  -0.246  -0.241  -0.234  -0.233  -0.188
 -0.180  -0.170  -0.164  -0.161  -0.156  -0.153  -0.144  -0.144
 -0.137

          Ground-State Mulliken Net Atomic Charges

     Atom                 Charge (a.u.)
  ----------------------------------------
      1 O                    -0.210141
      2 C                     0.213747
      3 C                    -0.080488
      4 C                    -0.079573
      5 C                     0.210188
      6 O                    -0.171685
      7 C                    -0.049930
      8 C                    -0.059281
      9 O                    -0.174591
     10 C                     0.214880
     11 C                    -0.078368
     12 C                    -0.078308
     13 C                     0.214512
     14 O                    -0.205484
     15 O                    -0.178113
     16 O                    -0.174703
     17 O                    -0.213475
     18 C                    -0.129990
     19 C                     0.025677
     20 C                    -0.144014
     21 C                    -0.143768
     22 C                     0.024324
     23 O                    -0.185766
     24 H                     0.086990
     25 H                     0.085306
     26 H                     0.084308
     27 H                     0.078627
     28 H                     0.073447
     29 H                     0.078761
     30 H                     0.072903
     31 H                     0.091111
     32 O                    -0.205795
     33 C                    -0.130582
     34 C                     0.026041
     35 C                    -0.145011
     36 C                    -0.142778
     37 C                     0.026115
     38 O                    -0.185168
     39 H                     0.083450
     40 H                     0.085646
     41 H                     0.098139
     42 H                     0.086838
     43 H                     0.078072
     44 H                     0.073132
     45 H                     0.078277
     46 H                     0.073370
     47 H                     0.084032
     48 H                     0.088002
     49 H                     0.085878
     50 H                     0.088388
     51 H                     0.092382
     52 H                     0.092742
     53 H                     0.081016
     54 H                     0.106472
     55 H                     0.090413
     56 H                     0.093828
  ----------------------------------------
  Sum of atomic charges =     0.000000

                    Cartesian Multipole Moments
 -----------------------------------------------------------------
    Charge (ESU x 10^10)
                 0.0000
    Dipole Moment (Debye)
         X       0.5894      Y      -1.3660      Z      -4.2613
       Tot       4.5136
    Quadrupole Moments (Debye-Ang)
        XX    -142.3139     XY     -10.6559     YY    -157.1464
        XZ       6.9091     YZ      -1.9897     ZZ    -164.5899

 Total job time:  53.37s(wall), 2537.94s(cpu)
        *  Thank you very much for using Q-Chem.  Have a nice day.  *
