 Q-Chem 5.0, Q-Chem, Inc., Pleasanton, CA (2017)
 Q-Chem 5.0.1 for Intel X86 EM64T Linux

User input:
--------------------------------------------------------------
$molecule
0  1
O -3.94934 -3.66094 2.70899
C -3.26408 -4.56952 2.26188
C -3.36658 -6.02376 2.66595
C -2.28554 -6.56732 3.6145
C -1.32488 -5.55281 4.19416
O -0.21101 -6.18601 4.6672
C 0.75928 -5.28606 5.21298
C 1.45383 -4.51922 4.09241
O 1.96191 -3.27299 4.59405
C 2.50665 -2.44901 3.66482
C 3.20295 -1.25495 4.27314
C 3.98752 -0.38701 3.27845
C 3.67796 -0.61759 1.81294
O 3.7016 0.23829 0.94032
O -2.24313 -4.267 1.41792
O 3.96531 -1.88291 1.38673
O 1.90606 -2.35625 2.60111
C 3.9365 -2.34239 0.08167
C 2.22726 -0.21316 4.85619
C 2.94227 0.60974 5.92535
C 3.89496 1.41709 5.06734
C 3.4269 0.99668 3.66797
O 2.05509 0.72966 3.82808
H 3.85248 -1.64108 5.09168
H 5.08964 -0.46592 3.40506
H 1.29746 -0.66105 5.27035
H 2.18282 1.2991 6.35976
H 3.4184 0.02956 6.74481
H 3.69918 2.49719 5.24889
H 4.97379 1.1928 5.21413
H 3.68458 1.78699 2.92924
O -1.66918 -4.43059 4.55105
C -1.92988 -2.9901 1.00206
C -4.62465 -6.28229 3.52717
C -5.0033 -7.76303 3.48031
C -3.91315 -8.35805 4.34331
C -3.17005 -7.0873 4.76319
O -4.18238 -6.11675 4.84998
H -3.46501 -6.61048 1.72541
H -1.69113 -7.38963 3.15519
H -1.66753 -2.35719 1.87689
H -5.49875 -5.66546 3.22275
H -5.97553 -7.8795 4.01077
H -5.08838 -8.18958 2.45772
H -4.38685 -8.82986 5.23308
H -3.24868 -9.09002 3.83527
H -2.59176 -7.27233 5.69583
H -2.78866 -2.54304 0.45723
H -1.05609 -3.03395 0.32004
H 3.22517 -3.19107 0.01326
H 4.94764 -2.70124 -0.20027
H 3.61756 -1.5631 -0.6426
H 2.23479 -5.14005 3.60044
H 0.68644 -4.27182 3.32749
H 1.52662 -5.83874 5.79473
H 0.26807 -4.59209 5.93348
$end

$opt
CONSTRAINT
tors           1           2           3           4    -103.287
tors           3           4           5           6    -161.754
tors           4           5           6           7    +178.989
tors           5           6           7           8     -73.041
tors           6           7           8           9    +155.172
tors           7           8           9          10    -174.808
tors           8           9          10          11    -171.479
tors           9          10          11          12    +172.600
tors          11          12          13          14    +147.022
ENDCONSTRAINT
$end

$rem
JOBTYPE                   OPT
METHOD                    B3LYP
DFT_D                     d3_op
BASIS                     STO-3G
GEOM_OPT_MAX_CYCLES       100
GEOM_OPT_TOL_GRADIENT     300
GEOM_OPT_TOL_DISPLACEMENT 1200
GEOM_OPT_TOL_ENERGY       100
SYMMETRY                  False
THRESH                    12
SCF_CONVERGENCE           8
MAX_SUB_FILE_NUM          128
MEM_STATIC                400
MEM_TOTAL                 4000
$end
--------------------------------------------------------------

   15   -1510.1181498784      7.04E-09 Convergence criterion met
 Total energy in the final basis set = -1510.11814988
   14   -1510.1912190866      6.48E-09 Convergence criterion met
 Total energy in the final basis set = -1510.19121909
   14   -1510.2322308023      7.32E-09 Convergence criterion met
 Total energy in the final basis set = -1510.23223080
   14   -1510.2537451972      1.94E-09 Convergence criterion met
 Total energy in the final basis set = -1510.25374520
   13   -1510.2636954074      6.38E-09 Convergence criterion met
 Total energy in the final basis set = -1510.26369541
   14   -1510.2689902169      4.63E-09 Convergence criterion met
 Total energy in the final basis set = -1510.26899022
    2   -1510.2689902168      2.04E-09 Convergence criterion met
 Total energy in the final basis set = -1510.26899022
   13   -1510.2723525173      3.07E-09 Convergence criterion met
    9   -1510.2801969801      6.37E-09 Convergence criterion met
 Total energy in the final basis set = -1510.28019698
    9   -1510.2801982540      3.71E-09 Convergence criterion met
 Total energy in the final basis set = -1510.28019825
    9   -1510.2802000924      3.22E-09 Convergence criterion met
 Total energy in the final basis set = -1510.28020009
    9   -1510.2802019799      2.91E-09 Convergence criterion met
 Total energy in the final basis set = -1510.28020198
    9   -1510.2802034464      2.35E-09 Convergence criterion met
 Total energy in the final basis set = -1510.28020345
    9   -1510.2802051121      2.16E-09 Convergence criterion met
 Total energy in the final basis set = -1510.28020511

             Standard Nuclear Orientation (Angstroms)
    I     Atom           X                Y                Z
 ----------------------------------------------------------------
    1      O      -3.2487109779     0.2086562780     2.7030566413
    2      C      -3.2878402305     0.8461934521     1.6303709299
    3      C      -4.4354576376     0.8401792122     0.5505554206
    4      C      -4.1031871489    -0.0219879563    -0.7388593130
    5      C      -2.6808052759    -0.6648056826    -0.6876109625
    6      O      -2.2918758139    -1.0499186547    -2.0123792333
    7      C      -0.9303560242    -1.6412478128    -1.9850309758
    8      C       0.1722061661    -0.5414782467    -1.7579447970
    9      O       1.3436662897    -1.2244844600    -1.1537428479
   10      C       2.3392353866    -0.2542605302    -0.8104706573
   11      C       3.6489338623    -1.0032339650    -0.3792547359
   12      C       4.8440525877     0.0031267726    -0.1681694236
   13      C       4.7335873496     1.3659390553    -0.9389839889
   14      O       5.1578162261     2.4772266873    -0.5536646795
   15      O      -2.2851872753     1.7741660664     1.1913376542
   16      O       4.3332404507     1.0824396450    -2.2906753847
   17      O       2.1400094119     0.9804771051    -0.8065743135
   18      C       4.2558577292     2.3338734339    -3.0754291722
   19      C       3.4277949549    -1.4783462535     1.1244563355
   20      C       4.6892726360    -2.2832411725     1.6333823589
   21      C       5.6981720560    -1.1159261667     1.9509067737
   22      C       4.8855266414     0.1240686415     1.4138510785
   23      O       3.5020802072    -0.1859624797     1.8489416752
   24      H       3.8767118453    -1.8266450141    -1.0780531628
   25      H       5.7793747877    -0.4667752302    -0.5272448040
   26      H       2.4513457893    -1.9701097955     1.3023163784
   27      H       4.4392585442    -2.8630421674     2.5359212219
   28      H       5.0704468649    -2.9758299161     0.8654455307
   29      H       5.8702555572    -1.0202635194     3.0350823714
   30      H       6.6696729996    -1.2385418210     1.4458803540
   31      H       5.2039252951     1.1170672308     1.7870168526
   32      O      -1.9755982891    -0.8617287520     0.3272469123
   33      C      -1.1144134506     1.7124802667     2.0949405963
   34      C      -5.7137028169     0.0792296963     1.0960046108
   35      C      -6.9418551187     0.4229747077     0.1648885790
   36      C      -6.6095387766    -0.4405320248    -1.1082198876
   37      C      -5.2545479706    -1.1227483871    -0.6680796486
   38      O      -5.4267963994    -1.3415968377     0.7833235893
   39      H      -4.6596362014     1.8853741792     0.2720492268
   40      H      -4.1848527954     0.5736950583    -1.6653179167
   41      H      -0.6655833634     0.6978727357     2.0953747453
   42      H      -5.8835875944     0.2033289227     2.1829565489
   43      H      -7.8850302440     0.1012700995     0.6341945214
   44      H      -7.0061771103     1.5002942568    -0.0566803698
   45      H      -7.3810176274    -1.2054445455    -1.2905970484
   46      H      -6.4918700099     0.1675070611    -2.0194159823
   47      H      -5.0140652649    -2.0726829298    -1.1842579822
   48      H      -1.3837095498     1.9814633380     3.1368009548
   49      H      -0.3818411120     2.4409188160     1.7008784296
   50      H       3.1933590093     2.6030756467    -3.2433984014
   51      H       4.7498348411     2.1618328012    -4.0509555705
   52      H       4.7616428398     3.1515410928    -2.5231866104
   53      H       0.4539910281    -0.0550265317    -2.7164212694
   54      H      -0.2100595210     0.2450888028    -1.0716797940
   55      H      -0.7998193810    -2.1393587767    -2.9655680385
   56      H      -0.8458873606    -2.3960714122    -1.1730925381
 ----------------------------------------------------------------

    9   -1510.2802057183      3.45E-09 Convergence criterion met
 Total energy in the final basis set = -1510.28020572
 Final energy is   -1510.28020571833
 **  OPTIMIZATION CONVERGED  **

                    Orbital Energies (a.u.)
 --------------------------------------------------------------

 Alpha MOs
 -- Occupied --
-18.943 -18.936 -18.923 -18.917 -18.888 -18.886 -18.886 -18.880
-18.869 -18.860 -10.107 -10.102 -10.096 -10.088 -10.080 -10.075
-10.062 -10.060 -10.057 -10.056 -10.053 -10.049 -10.041 -10.040
-10.036 -10.032 -10.021 -10.021 -10.019 -10.019  -1.022  -1.015
 -1.002  -0.996  -0.970  -0.970  -0.946  -0.939  -0.929  -0.922
 -0.764  -0.762  -0.729  -0.722  -0.714  -0.705  -0.696  -0.655
 -0.651  -0.620  -0.596  -0.582  -0.545  -0.544  -0.537  -0.537
 -0.515  -0.508  -0.486  -0.469  -0.459  -0.457  -0.452  -0.449
 -0.441  -0.431  -0.430  -0.411  -0.406  -0.404  -0.402  -0.398
 -0.397  -0.379  -0.374  -0.365  -0.361  -0.356  -0.349  -0.348
 -0.343  -0.341  -0.338  -0.331  -0.331  -0.325  -0.324  -0.312
 -0.311  -0.305  -0.303  -0.301  -0.294  -0.284  -0.276  -0.275
 -0.272  -0.259  -0.254  -0.243  -0.242  -0.234  -0.233  -0.187
 -0.182  -0.166  -0.164  -0.159  -0.157  -0.151  -0.144  -0.144
 -0.140

          Ground-State Mulliken Net Atomic Charges

     Atom                 Charge (a.u.)
  ----------------------------------------
      1 O                    -0.212395
      2 C                     0.214813
      3 C                    -0.080690
      4 C                    -0.078821
      5 C                     0.212171
      6 O                    -0.170702
      7 C                    -0.048818
      8 C                    -0.049240
      9 O                    -0.173851
     10 C                     0.218280
     11 C                    -0.076237
     12 C                    -0.079441
     13 C                     0.218083
     14 O                    -0.216844
     15 O                    -0.178493
     16 O                    -0.177138
     17 O                    -0.208029
     18 C                    -0.135189
     19 C                     0.023998
     20 C                    -0.145029
     21 C                    -0.141984
     22 C                     0.023862
     23 O                    -0.190871
     24 H                     0.087744
     25 H                     0.083891
     26 H                     0.086115
     27 H                     0.078997
     28 H                     0.073410
     29 H                     0.078529
     30 H                     0.073236
     31 H                     0.091242
     32 O                    -0.206524
     33 C                    -0.129690
     34 C                     0.025391
     35 C                    -0.144377
     36 C                    -0.143352
     37 C                     0.025804
     38 O                    -0.187116
     39 H                     0.083890
     40 H                     0.086727
     41 H                     0.093722
     42 H                     0.089302
     43 H                     0.078205
     44 H                     0.073507
     45 H                     0.078269
     46 H                     0.073668
     47 H                     0.083368
     48 H                     0.086466
     49 H                     0.090003
     50 H                     0.084454
     51 H                     0.083134
     52 H                     0.100833
     53 H                     0.085521
     54 H                     0.097614
     55 H                     0.091913
     56 H                     0.098668
  ----------------------------------------
  Sum of atomic charges =    -0.000000

                    Cartesian Multipole Moments
 -----------------------------------------------------------------
    Charge (ESU x 10^10)
                 0.0000
    Dipole Moment (Debye)
         X       0.1820      Y      -0.9138      Z      -3.4298
       Tot       3.5541
    Quadrupole Moments (Debye-Ang)
        XX    -144.4923     XY     -15.7605     YY    -160.4757
        XZ       6.5782     YZ       1.7813     ZZ    -159.0087

 Total job time:  73.26s(wall), 3485.93s(cpu)
        *  Thank you very much for using Q-Chem.  Have a nice day.  *
