 Q-Chem 5.0, Q-Chem, Inc., Pleasanton, CA (2017)
 Q-Chem 5.0.1 for Intel X86 EM64T Linux

User input:
--------------------------------------------------------------
$molecule
0  1
O -3.2487109779 0.208656278 2.7030566413
C -3.2878402305 0.8461934521 1.6303709299
C -4.4354576376 0.8401792122 0.5505554206
C -4.1031871489 -0.0219879563 -0.738859313
C -2.6808052759 -0.6648056826 -0.6876109625
O -2.2918758139 -1.0499186547 -2.0123792333
C -0.9303560242 -1.6412478128 -1.9850309758
C 0.1722061661 -0.5414782467 -1.757944797
O 1.3436662897 -1.22448446 -1.1537428479
C 2.3392353866 -0.2542605302 -0.8104706573
C 3.6489338623 -1.003233965 -0.3792547359
C 4.8440525877 0.0031267726 -0.1681694236
C 4.7335873496 1.3659390553 -0.9389839889
O 5.1578162261 2.4772266873 -0.5536646795
O -2.2851872753 1.7741660664 1.1913376542
O 4.3332404507 1.082439645 -2.2906753847
O 2.1400094119 0.9804771051 -0.8065743135
C 4.2558577292 2.3338734339 -3.0754291722
C 3.4277949549 -1.4783462535 1.1244563355
C 4.689272636 -2.2832411725 1.6333823589
C 5.698172056 -1.1159261667 1.9509067737
C 4.8855266414 0.1240686415 1.4138510785
O 3.5020802072 -0.1859624797 1.8489416752
H 3.8767118453 -1.8266450141 -1.0780531628
H 5.7793747877 -0.4667752302 -0.527244804
H 2.4513457893 -1.9701097955 1.3023163784
H 4.4392585442 -2.8630421674 2.5359212219
H 5.0704468649 -2.9758299161 0.8654455307
H 5.8702555572 -1.0202635194 3.0350823714
H 6.6696729996 -1.238541821 1.445880354
H 5.2039252951 1.1170672308 1.7870168526
O -1.9755982891 -0.861728752 0.3272469123
C -1.1144134506 1.7124802667 2.0949405963
C -5.7137028169 0.0792296963 1.0960046108
C -6.9418551187 0.4229747077 0.164888579
C -6.6095387766 -0.4405320248 -1.1082198876
C -5.2545479706 -1.1227483871 -0.6680796486
O -5.4267963994 -1.3415968377 0.7833235893
H -4.6596362014 1.8853741792 0.2720492268
H -4.1848527954 0.5736950583 -1.6653179167
H -0.6655833634 0.6978727357 2.0953747453
H -5.8835875944 0.2033289227 2.1829565489
H -7.885030244 0.1012700995 0.6341945214
H -7.0061771103 1.5002942568 -0.0566803698
H -7.3810176274 -1.2054445455 -1.2905970484
H -6.4918700099 0.1675070611 -2.0194159823
H -5.0140652649 -2.0726829298 -1.1842579822
H -1.3837095498 1.981463338 3.1368009548
H -0.381841112 2.440918816 1.7008784296
H 3.1933590093 2.6030756467 -3.2433984014
H 4.7498348411 2.1618328012 -4.0509555705
H 4.7616428398 3.1515410928 -2.5231866104
H 0.4539910281 -0.0550265317 -2.7164212694
H -0.210059521 0.2450888028 -1.071679794
H -0.799819381 -2.1393587767 -2.9655680385
H -0.8458873606 -2.3960714122 -1.1730925381
$end

$rem
JOBTYPE                   OPT
METHOD                    B3LYP
DFT_D                     d3_op
BASIS                     STO-3G
GEOM_OPT_MAX_CYCLES       100
GEOM_OPT_TOL_GRADIENT     300
GEOM_OPT_TOL_DISPLACEMENT 1200
GEOM_OPT_TOL_ENERGY       100
SYMMETRY                  False
THRESH                    12
SCF_CONVERGENCE           8
MAX_SUB_FILE_NUM          128
MEM_STATIC                400
MEM_TOTAL                 4000
$end
--------------------------------------------------------------

   16   -1510.2800070521      6.81E-09 Convergence criterion met
 Total energy in the final basis set = -1510.28000705
   13   -1510.2824823811      6.32E-09 Convergence criterion met
 Total energy in the final basis set = -1510.28248238
   13   -1510.2840259984      7.88E-09 Convergence criterion met
 Total energy in the final basis set = -1510.28402600
   13   -1510.2851819987      6.67E-09 Convergence criterion met
 Total energy in the final basis set = -1510.28518200
   14   -1510.2862157310      1.97E-09 Convergence criterion met
 Total energy in the final basis set = -1510.28621573
   14   -1510.2870501260      1.98E-09 Convergence criterion met
 Total energy in the final basis set = -1510.28705013
   14   -1510.2868400697      2.54E-09 Convergence criterion met
 Total energy in the final basis set = -1510.28684007
   14   -1510.2873753219      1.74E-09 Convergence criterion met
   10   -1510.3004773295      5.32E-09 Convergence criterion met
 Total energy in the final basis set = -1510.30047733
   12   -1510.3004637186      4.09E-09 Convergence criterion met
 Total energy in the final basis set = -1510.30046372
   12   -1510.3004401639      5.81E-09 Convergence criterion met
 Total energy in the final basis set = -1510.30044016
   12   -1510.3004664144      4.20E-09 Convergence criterion met
 Total energy in the final basis set = -1510.30046641
   10   -1510.3004635187      5.95E-09 Convergence criterion met
 Total energy in the final basis set = -1510.30046352
   10   -1510.3004565323      9.63E-09 Convergence criterion met
 Total energy in the final basis set = -1510.30045653

             Standard Nuclear Orientation (Angstroms)
    I     Atom           X                Y                Z
 ----------------------------------------------------------------
    1      O       1.1674589128    -1.9240353021    -1.1105781234
    2      C       1.6626028402    -0.7916384818    -1.2980319277
    3      C       3.1274550289    -0.3362974736    -0.9404779725
    4      C       3.2451414327     0.7720391074     0.1819990085
    5      C       1.8992962732     1.0793339146     0.9161673209
    6      O       2.0101160410     2.3821811812     1.4994947320
    7      C       0.8834634159     2.6706170469     2.4194031517
    8      C      -0.5072906217     2.9082941726     1.7142135587
    9      O      -1.3739821159     1.7280186527     1.9349962337
   10      C      -1.8069403368     1.1793937458     0.6853722211
   11      C      -2.5569093675    -0.1560191375     0.9829518103
   12      C      -3.6877323768    -0.5171656657    -0.0658023162
   13      C      -3.7715044426     0.4890813590    -1.2706902594
   14      O      -3.4390075274     0.2795785528    -2.4567998455
   15      O       1.0256916526     0.2937944768    -1.9658398925
   16      O      -4.3892682425     1.6937951331    -0.7959367061
   17      O      -1.5916705330     1.7104864682    -0.4271057980
   18      C      -4.4071484406     2.7143292056    -1.8680315264
   19      C      -1.5819624680    -1.4102966014     0.8269238488
   20      C      -2.2365166506    -2.6288494644     1.5809379543
   21      C      -3.4199613735    -2.9914709740     0.6042132496
   22      C      -3.2020795092    -1.9416842861    -0.5540614162
   23      O      -1.7278352768    -1.7920287658    -0.5956219445
   24      H      -2.9572053329    -0.1011320324     2.0102596893
   25      H      -4.6765707171    -0.5570863934     0.4253384858
   26      H      -0.5201908729    -1.1816687516     1.0549542869
   27      H      -1.5147444745    -3.4570303340     1.6640691277
   28      H      -2.5841268882    -2.3568377003     2.5902235090
   29      H      -3.3224202341    -4.0174365776     0.2153637386
   30      H      -4.4092241046    -2.8860369474     1.0779908716
   31      H      -3.5850174975    -2.2344279046    -1.5507673948
   32      O       0.9096816117     0.3275300706     1.0505893103
   33      C      -0.3088873587    -0.1107090918    -2.4797267030
   34      C       3.9669839871    -1.5184051420    -0.2990836678
   35      C       5.4991105075    -1.1914617664    -0.4791545549
   36      C       5.6748068179    -0.0162239304     0.5526809297
   37      C       4.2333226926     0.0457905599     1.1991471810
   38      O       3.7587447689    -1.3542463161     1.1603475222
   39      H       3.5980498545     0.0272789910    -1.8718347731
   40      H       3.6655945828     1.7187537855    -0.1998458254
   41      H      -0.8639438123    -0.7574533699    -1.7530014455
   42      H       3.6402903956    -2.5259946640    -0.6221865633
   43      H       6.1136503643    -2.0632813203    -0.2034517665
   44      H       5.7465138419    -0.8952579083    -1.5109475936
   45      H       6.4307436320    -0.2552940251     1.3173894766
   46      H       5.9495625948     0.9353543303     0.0700110492
   47      H       4.1989702291     0.4434783985     2.2323493525
   48      H      -0.1945693739    -0.6516952973    -3.4413257479
   49      H      -0.8688524094     0.8257650595    -2.6520830337
   50      H      -3.5875547831     3.4430621665    -1.7032576125
   51      H      -5.3810265222     3.2377284138    -1.8247899585
   52      H      -4.2681198289     2.2292029037    -2.8549668341
   53      H      -1.0065921121     3.7915889036     2.1654959965
   54      H      -0.3905921806     3.0722779892     0.6196269669
   55      H       1.1940069576     3.5918082919     2.9516999589
   56      H       0.7599953552     1.8489834592     3.1590365310
 ----------------------------------------------------------------

    9   -1510.3004567504      1.90E-09 Convergence criterion met
 Total energy in the final basis set = -1510.30045675
 Final energy is   -1510.30045675038
 **  OPTIMIZATION CONVERGED  **

                    Orbital Energies (a.u.)
 --------------------------------------------------------------

 Alpha MOs
 -- Occupied --
-18.939 -18.934 -18.923 -18.903 -18.897 -18.884 -18.883 -18.878
-18.868 -18.849 -10.106 -10.102 -10.094 -10.079 -10.077 -10.071
-10.059 -10.058 -10.052 -10.052 -10.051 -10.036 -10.036 -10.035
-10.025 -10.018 -10.018 -10.016 -10.016 -10.009  -1.020  -1.011
 -1.002  -0.984  -0.972  -0.966  -0.944  -0.938  -0.929  -0.910
 -0.762  -0.758  -0.726  -0.719  -0.711  -0.701  -0.694  -0.655
 -0.632  -0.618  -0.592  -0.577  -0.544  -0.539  -0.534  -0.531
 -0.512  -0.504  -0.481  -0.463  -0.459  -0.449  -0.449  -0.445
 -0.436  -0.428  -0.426  -0.414  -0.404  -0.401  -0.398  -0.391
 -0.378  -0.375  -0.374  -0.361  -0.355  -0.353  -0.349  -0.345
 -0.341  -0.334  -0.330  -0.328  -0.325  -0.321  -0.318  -0.307
 -0.305  -0.301  -0.297  -0.295  -0.295  -0.281  -0.272  -0.268
 -0.265  -0.257  -0.248  -0.243  -0.239  -0.231  -0.216  -0.190
 -0.172  -0.166  -0.160  -0.157  -0.154  -0.149  -0.141  -0.140
 -0.129

          Ground-State Mulliken Net Atomic Charges

     Atom                 Charge (a.u.)
  ----------------------------------------
      1 O                    -0.215883
      2 C                     0.209548
      3 C                    -0.081157
      4 C                    -0.077499
      5 C                     0.218688
      6 O                    -0.171862
      7 C                    -0.050356
      8 C                    -0.056590
      9 O                    -0.171122
     10 C                     0.221193
     11 C                    -0.079225
     12 C                    -0.080263
     13 C                     0.215992
     14 O                    -0.213704
     15 O                    -0.181131
     16 O                    -0.175899
     17 O                    -0.213517
     18 C                    -0.134232
     19 C                     0.022637
     20 C                    -0.142455
     21 C                    -0.143684
     22 C                     0.027130
     23 O                    -0.178535
     24 H                     0.087479
     25 H                     0.085372
     26 H                     0.112399
     27 H                     0.082616
     28 H                     0.073495
     29 H                     0.079827
     30 H                     0.072826
     31 H                     0.090174
     32 O                    -0.213688
     33 C                    -0.151964
     34 C                     0.023943
     35 C                    -0.143536
     36 C                    -0.144080
     37 C                     0.024965
     38 O                    -0.190322
     39 H                     0.082452
     40 H                     0.087584
     41 H                     0.119122
     42 H                     0.090777
     43 H                     0.077262
     44 H                     0.073518
     45 H                     0.077196
     46 H                     0.073541
     47 H                     0.080269
     48 H                     0.068855
     49 H                     0.086368
     50 H                     0.085919
     51 H                     0.084197
     52 H                     0.099729
     53 H                     0.085030
     54 H                     0.105832
     55 H                     0.090553
     56 H                     0.094216
  ----------------------------------------
  Sum of atomic charges =     0.000000

                    Cartesian Multipole Moments
 -----------------------------------------------------------------
    Charge (ESU x 10^10)
                -0.0000
    Dipole Moment (Debye)
         X      -0.0505      Y       2.1779      Z       2.0677
       Tot       3.0035
    Quadrupole Moments (Debye-Ang)
        XX    -141.4027     XY       4.1304     YY    -154.7907
        XZ      -3.9355     YZ       2.2519     ZZ    -158.8696

 Total job time:  138.40s(wall), 6597.95s(cpu)
        *  Thank you very much for using Q-Chem.  Have a nice day.  *
