 Q-Chem 5.0, Q-Chem, Inc., Pleasanton, CA (2017)
 Q-Chem 5.0.1 for Intel X86 EM64T Linux

User input:
--------------------------------------------------------------
$molecule
0  1
O -3.6723534929 0.6678548583 2.6796177361
C -3.6883320846 1.1736854631 1.5379302457
C -4.6996181263 0.8677262791 0.369025437
C -4.1242689855 -0.0674037824 -0.7711252016
C -2.6683273847 -0.5644119913 -0.482228671
O -2.2357065664 -1.3505976033 -1.5963383992
C -0.8470955049 -1.8424032616 -1.4099927607
C 0.2193867172 -0.6901176532 -1.3492424508
O 1.4951981952 -1.3413009401 -0.95879671
C 2.4850817746 -0.3476708086 -0.6757422783
C 3.8280258054 -1.0729446683 -0.3191223664
C 5.050582637 -0.0742805003 -0.3065366642
C 4.8108246444 1.2852380387 -1.0568773099
O 5.1773923534 2.4212735205 -0.6886813418
O -2.8280273435 2.2363308964 1.1014962461
O 4.3197563287 0.9853720917 -2.3736607079
O 2.2616532822 0.8829044998 -0.6617645666
C 4.073659504 2.2408062042 -3.1156105407
C 3.7732415119 -1.4617366807 1.2237563483
C 5.0586946917 -2.3016196706 1.6000115117
C 6.1463020876 -1.1692923556 1.7194650705
C 5.3156833828 0.0858513003 1.2488217773
O 3.9911347488 -0.1479186954 1.8728830645
H 3.9763264451 -1.9444234396 -0.9801767377
H 5.9219506667 -0.5503308585 -0.7947905787
H 2.8097811845 -1.9027399462 1.5462575958
H 4.9115403965 -2.8302135107 2.5550802
H 5.3040678522 -3.0412647823 0.8209849543
H 6.4769982539 -1.040412956 2.762578245
H 7.0299192472 -1.3549373612 1.0879896175
H 5.7167393294 1.0766405703 1.5388600732
O -1.9859041402 -0.3598958932 0.546847808
C -1.7947687682 2.495153332 2.1286499764
C -5.9231990633 -0.0015189833 0.8805103121
C -7.0877551199 0.1051055987 -0.1800758786
C -6.5253195384 -0.7997715755 -1.3391409636
C -5.1555497959 -1.2790766717 -0.714801955
O -5.4471745138 -1.3977068428 0.7300148484
H -5.0323789229 1.831250214 -0.0562805193
H -4.1371618574 0.4261979224 -1.7596112837
H -1.1528962057 1.6034030697 2.2824202707
H -6.2086798339 0.1938090108 1.9321552442
H -8.0242887816 -0.3030274294 0.2322369717
H -7.26482917 1.144410478 -0.4998080934
H -7.1809563451 -1.6631902509 -1.5352449556
H -6.380423697 -0.2459465985 -2.280725188
H -4.7577784996 -2.2311958055 -1.1170860573
H -2.2448333618 2.7789940516 3.1019017575
H -1.1811080943 3.3311405796 1.7455502096
H 3.7960833155 1.9422790894 -4.1433976149
H 4.9758388912 2.8852654934 -3.1443417202
H 3.2419154492 2.8170082657 -2.6604237743
H 0.3160612899 -0.1838453323 -2.3338435399
H -0.0843728066 0.0608544753 -0.5892736184
H -0.6538815401 -2.505688093 -2.2762982494
H -0.7688697686 -2.4383035573 -0.4741212924
$end

$rem
JOBTYPE                   OPT
METHOD                    B3LYP
DFT_D                     d3_op
BASIS                     STO-3G
GEOM_OPT_MAX_CYCLES       100
GEOM_OPT_TOL_GRADIENT     300
GEOM_OPT_TOL_DISPLACEMENT 1200
GEOM_OPT_TOL_ENERGY       100
SYMMETRY                  False
THRESH                    12
SCF_CONVERGENCE           8
MAX_SUB_FILE_NUM          128
MEM_STATIC                400
MEM_TOTAL                 4000
$end
--------------------------------------------------------------

   15   -1510.2830850807      8.98E-09 Convergence criterion met
 Total energy in the final basis set = -1510.28308508
   13   -1510.2847614589      7.52E-09 Convergence criterion met
 Total energy in the final basis set = -1510.28476146
   13   -1510.2857113435      2.24E-09 Convergence criterion met
 Total energy in the final basis set = -1510.28571134
   13   -1510.2865188508      3.85E-09 Convergence criterion met
 Total energy in the final basis set = -1510.28651885
   13   -1510.2868526483      5.31E-09 Convergence criterion met
 Total energy in the final basis set = -1510.28685265
   13   -1510.2872326994      4.90E-09 Convergence criterion met
 Total energy in the final basis set = -1510.28723270
   13   -1510.2872257187      7.61E-09 Convergence criterion met
 Total energy in the final basis set = -1510.28722572
   13   -1510.2871823371      4.75E-09 Convergence criterion met
   11   -1510.3008528770      4.15E-09 Convergence criterion met
 Total energy in the final basis set = -1510.30085288
   11   -1510.3008932960      7.98E-09 Convergence criterion met
 Total energy in the final basis set = -1510.30089330
   12   -1510.3009524907      3.19E-09 Convergence criterion met
 Total energy in the final basis set = -1510.30095249
   11   -1510.3009696157      5.68E-09 Convergence criterion met
 Total energy in the final basis set = -1510.30096962
   10   -1510.3009824268      8.72E-09 Convergence criterion met
 Total energy in the final basis set = -1510.30098243
    9   -1510.3009855869      7.90E-09 Convergence criterion met
 Total energy in the final basis set = -1510.30098559

             Standard Nuclear Orientation (Angstroms)
    I     Atom           X                Y                Z
 ----------------------------------------------------------------
    1      O       1.1928352459    -1.9136048740    -1.0949599899
    2      C       1.7475920346    -0.7967822541    -1.1782423569
    3      C       3.2116620798    -0.4407964170    -0.7243236058
    4      C       3.3212125198     0.6570633428     0.4095424337
    5      C       1.9501557862     1.0350301920     1.0599549593
    6      O       2.0413473713     2.3875255257     1.5228727207
    7      C       0.8734552759     2.7611455536     2.3558151300
    8      C      -0.4698212165     2.9744292502     1.5592438197
    9      O      -1.3418334206     1.7970379098     1.7790420542
   10      C      -1.8993393062     1.3328781903     0.5478359933
   11      C      -2.6444960533    -0.0070495028     0.8420153433
   12      C      -3.6925142391    -0.4293390238    -0.2673434515
   13      C      -3.7315664757     0.5400744982    -1.5059607130
   14      O      -3.2647224620     0.3343469521    -2.6459619339
   15      O       1.1876171367     0.3697059072    -1.7741263568
   16      O      -4.4962404035     1.6968026133    -1.1383017521
   17      O      -1.7640485354     1.9178651558    -0.5507213093
   18      C      -4.4894766778     2.6712365316    -2.2516286248
   19      C      -1.6341093199    -1.2420447226     0.8000891534
   20      C      -2.3169710490    -2.4533129042     1.5406461814
   21      C      -3.4133780356    -2.8757662298     0.4895379167
   22      C      -3.1360328183    -1.8525001575    -0.6794160071
   23      O      -1.6664357164    -1.6684880472    -0.6170722820
   24      H      -3.1143004641     0.0738354235     1.8378363674
   25      H      -4.7091715856    -0.4872047625     0.1606883953
   26      H      -0.5962353297    -0.9821768450     1.0997280006
   27      H      -1.5853861013    -3.2604624277     1.7039398500
   28      H      -2.7469459090    -2.1600939712     2.5115415998
   29      H      -3.2595342123    -3.9087694532     0.1395629719
   30      H      -4.4383053925    -2.7856814613     0.8839837259
   31      H      -3.4367734326    -2.1837633082    -1.6922648690
   32      O       0.9548410037     0.2989942921     1.2321452268
   33      C      -0.1557128798     0.0866074460    -2.3437223146
   34      C       3.9323595481    -1.6738633333    -0.0360589404
   35      C       5.4898800359    -1.4420511695    -0.1232616330
   36      C       5.6736744112    -0.2761735302     0.9181023890
   37      C       4.2028428705    -0.1277609630     1.4801044019
   38      O       3.6483383380    -1.4965290446     1.4083899681
   39      H       3.7677648938    -0.1082163808    -1.6195484428
   40      H       3.8153797878     1.5800812384     0.0598876470
   41      H      -0.7407860544    -0.6262116845    -1.7075080141
   42      H       3.5622257064    -2.6583806984    -0.3827990381
   43      H       6.0321584089    -2.3487418515     0.1891689750
   44      H       5.8166988434    -1.1647717748    -1.1381832310
   45      H       6.3688501011    -0.5569086366     1.7250737448
   46      H       6.0307105054     0.6562302861     0.4525294419
   47      H       4.1325868288     0.2696318162     2.5115967008
   48      H      -0.0532350006    -0.3252344005    -3.3679051639
   49      H      -0.6809780130     1.0579213109    -2.3872795213
   50      H      -5.1256861023     3.5149575527    -1.9267131877
   51      H      -4.9001750134     2.2323829926    -3.1839229039
   52      H      -3.4621841733     3.0368950455    -2.4558247401
   53      H      -0.9893506254     3.8766501312     1.9478938656
   54      H      -0.2905156562     3.1081769110     0.4696911279
   55      H       1.1729519036     3.7130366114     2.8382320286
   56      H       0.6896640673     1.9962659359     3.1421265273
 ----------------------------------------------------------------

    9   -1510.3009857725      6.70E-09 Convergence criterion met
 Total energy in the final basis set = -1510.30098577
 Final energy is   -1510.30098577253
 **  OPTIMIZATION CONVERGED  **

                    Orbital Energies (a.u.)
 --------------------------------------------------------------

 Alpha MOs
 -- Occupied --
-18.940 -18.937 -18.922 -18.904 -18.897 -18.883 -18.883 -18.881
-18.864 -18.851 -10.106 -10.104 -10.091 -10.080 -10.078 -10.074
-10.059 -10.058 -10.055 -10.051 -10.050 -10.036 -10.036 -10.033
-10.026 -10.018 -10.017 -10.016 -10.015 -10.009  -1.021  -1.013
 -0.999  -0.985  -0.971  -0.966  -0.943  -0.940  -0.926  -0.912
 -0.762  -0.758  -0.727  -0.719  -0.711  -0.701  -0.695  -0.655
 -0.633  -0.618  -0.593  -0.577  -0.543  -0.539  -0.534  -0.531
 -0.513  -0.504  -0.482  -0.463  -0.459  -0.449  -0.449  -0.444
 -0.437  -0.429  -0.426  -0.411  -0.404  -0.401  -0.398  -0.392
 -0.380  -0.375  -0.374  -0.361  -0.358  -0.351  -0.349  -0.345
 -0.341  -0.337  -0.329  -0.328  -0.326  -0.320  -0.318  -0.308
 -0.305  -0.301  -0.297  -0.295  -0.294  -0.278  -0.273  -0.269
 -0.265  -0.257  -0.250  -0.245  -0.239  -0.231  -0.216  -0.192
 -0.173  -0.166  -0.162  -0.157  -0.154  -0.143  -0.141  -0.140
 -0.131

          Ground-State Mulliken Net Atomic Charges

     Atom                 Charge (a.u.)
  ----------------------------------------
      1 O                    -0.213298
      2 C                     0.209121
      3 C                    -0.080778
      4 C                    -0.077549
      5 C                     0.218556
      6 O                    -0.171277
      7 C                    -0.049632
      8 C                    -0.054507
      9 O                    -0.169469
     10 C                     0.219538
     11 C                    -0.079301
     12 C                    -0.081544
     13 C                     0.214430
     14 O                    -0.214567
     15 O                    -0.183142
     16 O                    -0.175361
     17 O                    -0.213322
     18 C                    -0.128481
     19 C                     0.019937
     20 C                    -0.142465
     21 C                    -0.143651
     22 C                     0.027341
     23 O                    -0.178959
     24 H                     0.087431
     25 H                     0.084690
     26 H                     0.113967
     27 H                     0.082666
     28 H                     0.073189
     29 H                     0.079757
     30 H                     0.072585
     31 H                     0.089826
     32 O                    -0.213419
     33 C                    -0.155708
     34 C                     0.023935
     35 C                    -0.143430
     36 C                    -0.144181
     37 C                     0.025145
     38 O                    -0.189777
     39 H                     0.082461
     40 H                     0.087491
     41 H                     0.119541
     42 H                     0.091326
     43 H                     0.077309
     44 H                     0.073426
     45 H                     0.077261
     46 H                     0.073518
     47 H                     0.079995
     48 H                     0.070425
     49 H                     0.086671
     50 H                     0.086441
     51 H                     0.087243
     52 H                     0.091975
     53 H                     0.085116
     54 H                     0.105204
     55 H                     0.090872
     56 H                     0.095429
  ----------------------------------------
  Sum of atomic charges =    -0.000000

                    Cartesian Multipole Moments
 -----------------------------------------------------------------
    Charge (ESU x 10^10)
                -0.0000
    Dipole Moment (Debye)
         X       0.0062      Y       2.2596      Z       2.0882
       Tot       3.0768
    Quadrupole Moments (Debye-Ang)
        XX    -140.5983     XY       3.2781     YY    -154.8472
        XZ      -2.8174     YZ       2.8891     ZZ    -159.3880

 Total job time:  214.26s(wall), 10221.50s(cpu)
        *  Thank you very much for using Q-Chem.  Have a nice day.  *
