 Q-Chem 5.0, Q-Chem, Inc., Pleasanton, CA (2017)
 Q-Chem 5.0.1 for Intel X86 EM64T Linux

User input:
--------------------------------------------------------------
$molecule
0  1
O -3.94934 -3.66094 2.70899
C -3.26408 -4.56952 2.26188
C -3.36658 -6.02376 2.66595
C -2.29005 -6.56525 3.62079
C -1.33425 -5.54902 4.20544
O -0.40906 -6.17886 4.98821
C 0.54839 -5.28186 5.56086
C 1.37898 -4.62779 4.46158
O 2.20055 -3.59067 5.02041
C 2.84619 -2.80918 4.11954
C 3.73016 -1.77069 4.76823
C 4.70915 -1.06806 3.8163
C 4.42624 -1.23417 2.33675
O 4.5275 -0.35558 1.49273
O -2.26051 -4.26986 1.39579
O 4.50254 -2.51746 1.88324
O 2.29923 -2.58804 3.04504
C 4.4473 -2.88769 0.55491
C 2.95278 -0.55913 5.32078
C 3.76534 0.09964 6.43313
C 4.90246 0.70139 5.6318
C 4.42473 0.39663 4.20567
O 3.02099 0.40751 4.30144
H 4.26018 -2.27362 5.60955
H 5.76238 -1.38219 3.98639
H 1.93404 -0.81662 5.68481
H 3.13846 0.92638 6.83844
H 4.07451 -0.56496 7.26832
H 4.92515 1.79678 5.82523
H 5.90395 0.25735 5.8206
H 4.87018 1.12391 3.49212
O -1.51602 -4.33646 4.19884
C -1.96945 -2.99651 0.95357
C -4.62279 -6.29274 3.53006
C -5.0076 -7.77014 3.4538
C -3.90381 -8.39168 4.28119
C -3.16761 -7.13272 4.74854
O -4.17969 -6.16406 4.85855
H -3.46943 -6.61232 1.72674
H -1.66513 -7.33241 3.11106
H -1.70097 -2.3453 1.81287
H -5.49653 -5.66689 3.24378
H -5.96887 -7.88768 4.00396
H -5.12187 -8.17934 2.42702
H -4.36588 -8.91614 5.14709
H -3.22995 -9.08448 3.732
H -2.59443 -7.34607 5.67736
H -2.84251 -2.56914 0.41562
H -1.10691 -3.04165 0.25753
H 4.52469 -3.99183 0.48214
H 5.2912 -2.43283 -0.00644
H 3.48166 -2.56615 0.10945
H 2.00356 -5.39005 3.94568
H 0.71838 -4.17507 3.70029
H 1.22368 -5.84079 6.24236
H 0.02576 -4.50805 6.16848
$end

$opt
CONSTRAINT
tors           1           2           3           4    -102.951
tors           3           4           5           6    -177.695
tors           4           5           6           7    +178.989
tors           5           6           7           8     -64.060
tors           6           7           8           9    +171.676
tors           7           8           9          10    -171.140
tors           8           9          10          11    -177.973
tors           9          10          11          12    +167.295
tors          11          12          13          14    +139.408
ENDCONSTRAINT
$end

$rem
JOBTYPE                   OPT
METHOD                    B3LYP
DFT_D                     d3_op
BASIS                     STO-3G
GEOM_OPT_MAX_CYCLES       100
GEOM_OPT_TOL_GRADIENT     300
GEOM_OPT_TOL_DISPLACEMENT 1200
GEOM_OPT_TOL_ENERGY       100
SYMMETRY                  False
THRESH                    12
SCF_CONVERGENCE           8
MAX_SUB_FILE_NUM          128
MEM_STATIC                400
MEM_TOTAL                 4000
$end
--------------------------------------------------------------

   16   -1510.1344523133      1.88E-09 Convergence criterion met
 Total energy in the final basis set = -1510.13445231
   14   -1510.2060011782      6.31E-09 Convergence criterion met
 Total energy in the final basis set = -1510.20600118
   14   -1510.2452217661      6.07E-09 Convergence criterion met
 Total energy in the final basis set = -1510.24522177
   13   -1510.2642938977      9.77E-09 Convergence criterion met
 Total energy in the final basis set = -1510.26429390
   13   -1510.2720734645      5.89E-09 Convergence criterion met
 Total energy in the final basis set = -1510.27207346
   13   -1510.2758094545      5.28E-09 Convergence criterion met
 Total energy in the final basis set = -1510.27580945
   13   -1510.2778495041      3.92E-09 Convergence criterion met
 Total energy in the final basis set = -1510.27784950
   13   -1510.2791796188      3.83E-09 Convergence criterion met
   11   -1510.2827829826      5.03E-09 Convergence criterion met
 Total energy in the final basis set = -1510.28278298
   10   -1510.2828751494      8.45E-09 Convergence criterion met
 Total energy in the final basis set = -1510.28287515
   10   -1510.2829412393      5.94E-09 Convergence criterion met
 Total energy in the final basis set = -1510.28294124
   10   -1510.2829907250      7.15E-09 Convergence criterion met
 Total energy in the final basis set = -1510.28299073
   10   -1510.2830097018      3.89E-09 Convergence criterion met
 Total energy in the final basis set = -1510.28300970
    9   -1510.2830151515      5.81E-09 Convergence criterion met
 Total energy in the final basis set = -1510.28301515

             Standard Nuclear Orientation (Angstroms)
    I     Atom           X                Y                Z
 ----------------------------------------------------------------
    1      O      -3.6723534929     0.6678548583     2.6796177361
    2      C      -3.6883320846     1.1736854631     1.5379302457
    3      C      -4.6996181263     0.8677262791     0.3690254370
    4      C      -4.1242689855    -0.0674037824    -0.7711252016
    5      C      -2.6683273847    -0.5644119913    -0.4822286710
    6      O      -2.2357065664    -1.3505976033    -1.5963383992
    7      C      -0.8470955049    -1.8424032616    -1.4099927607
    8      C       0.2193867172    -0.6901176532    -1.3492424508
    9      O       1.4951981952    -1.3413009401    -0.9587967100
   10      C       2.4850817746    -0.3476708086    -0.6757422783
   11      C       3.8280258054    -1.0729446683    -0.3191223664
   12      C       5.0505826370    -0.0742805003    -0.3065366642
   13      C       4.8108246444     1.2852380387    -1.0568773099
   14      O       5.1773923534     2.4212735205    -0.6886813418
   15      O      -2.8280273435     2.2363308964     1.1014962461
   16      O       4.3197563287     0.9853720917    -2.3736607079
   17      O       2.2616532822     0.8829044998    -0.6617645666
   18      C       4.0736595040     2.2408062042    -3.1156105407
   19      C       3.7732415119    -1.4617366807     1.2237563483
   20      C       5.0586946917    -2.3016196706     1.6000115117
   21      C       6.1463020876    -1.1692923556     1.7194650705
   22      C       5.3156833828     0.0858513003     1.2488217773
   23      O       3.9911347488    -0.1479186954     1.8728830645
   24      H       3.9763264451    -1.9444234396    -0.9801767377
   25      H       5.9219506667    -0.5503308585    -0.7947905787
   26      H       2.8097811845    -1.9027399462     1.5462575958
   27      H       4.9115403965    -2.8302135107     2.5550802000
   28      H       5.3040678522    -3.0412647823     0.8209849543
   29      H       6.4769982539    -1.0404129560     2.7625782450
   30      H       7.0299192472    -1.3549373612     1.0879896175
   31      H       5.7167393294     1.0766405703     1.5388600732
   32      O      -1.9859041402    -0.3598958932     0.5468478080
   33      C      -1.7947687682     2.4951533320     2.1286499764
   34      C      -5.9231990633    -0.0015189833     0.8805103121
   35      C      -7.0877551199     0.1051055987    -0.1800758786
   36      C      -6.5253195384    -0.7997715755    -1.3391409636
   37      C      -5.1555497959    -1.2790766717    -0.7148019550
   38      O      -5.4471745138    -1.3977068428     0.7300148484
   39      H      -5.0323789229     1.8312502140    -0.0562805193
   40      H      -4.1371618574     0.4261979224    -1.7596112837
   41      H      -1.1528962057     1.6034030697     2.2824202707
   42      H      -6.2086798339     0.1938090108     1.9321552442
   43      H      -8.0242887816    -0.3030274294     0.2322369717
   44      H      -7.2648291700     1.1444104780    -0.4998080934
   45      H      -7.1809563451    -1.6631902509    -1.5352449556
   46      H      -6.3804236970    -0.2459465985    -2.2807251880
   47      H      -4.7577784996    -2.2311958055    -1.1170860573
   48      H      -2.2448333618     2.7789940516     3.1019017575
   49      H      -1.1811080943     3.3311405796     1.7455502096
   50      H       3.7960833155     1.9422790894    -4.1433976149
   51      H       4.9758388912     2.8852654934    -3.1443417202
   52      H       3.2419154492     2.8170082657    -2.6604237743
   53      H       0.3160612899    -0.1838453323    -2.3338435399
   54      H      -0.0843728066     0.0608544753    -0.5892736184
   55      H      -0.6538815401    -2.5056880930    -2.2762982494
   56      H      -0.7688697686    -2.4383035573    -0.4741212924
 ----------------------------------------------------------------

    9   -1510.2830163637      2.51E-09 Convergence criterion met
 Total energy in the final basis set = -1510.28301636
 Final energy is   -1510.28301636371
 **  OPTIMIZATION CONVERGED  **

                    Orbital Energies (a.u.)
 --------------------------------------------------------------

 Alpha MOs
 -- Occupied --
-18.946 -18.938 -18.923 -18.917 -18.891 -18.887 -18.886 -18.880
-18.867 -18.859 -10.111 -10.103 -10.094 -10.088 -10.082 -10.074
-10.062 -10.061 -10.057 -10.056 -10.056 -10.050 -10.042 -10.039
-10.034 -10.032 -10.021 -10.021 -10.019 -10.019  -1.024  -1.016
 -1.001  -0.995  -0.970  -0.969  -0.949  -0.940  -0.928  -0.922
 -0.764  -0.762  -0.730  -0.722  -0.715  -0.705  -0.697  -0.656
 -0.651  -0.621  -0.596  -0.582  -0.545  -0.545  -0.537  -0.537
 -0.516  -0.509  -0.484  -0.472  -0.459  -0.456  -0.454  -0.451
 -0.440  -0.431  -0.430  -0.409  -0.406  -0.405  -0.400  -0.399
 -0.395  -0.382  -0.378  -0.366  -0.362  -0.355  -0.350  -0.348
 -0.342  -0.340  -0.336  -0.332  -0.331  -0.325  -0.324  -0.313
 -0.311  -0.306  -0.304  -0.301  -0.295  -0.282  -0.276  -0.274
 -0.272  -0.260  -0.255  -0.247  -0.242  -0.234  -0.233  -0.189
 -0.183  -0.167  -0.163  -0.161  -0.157  -0.147  -0.145  -0.143
 -0.139

          Ground-State Mulliken Net Atomic Charges

     Atom                 Charge (a.u.)
  ----------------------------------------
      1 O                    -0.215620
      2 C                     0.215230
      3 C                    -0.081617
      4 C                    -0.077889
      5 C                     0.215881
      6 O                    -0.170806
      7 C                    -0.047361
      8 C                    -0.052896
      9 O                    -0.174382
     10 C                     0.217690
     11 C                    -0.076794
     12 C                    -0.080144
     13 C                     0.216541
     14 O                    -0.215000
     15 O                    -0.177060
     16 O                    -0.177103
     17 O                    -0.208170
     18 C                    -0.128750
     19 C                     0.024559
     20 C                    -0.144700
     21 C                    -0.142502
     22 C                     0.023910
     23 O                    -0.189956
     24 H                     0.087106
     25 H                     0.083315
     26 H                     0.084432
     27 H                     0.078590
     28 H                     0.073294
     29 H                     0.078439
     30 H                     0.073134
     31 H                     0.091648
     32 O                    -0.205186
     33 C                    -0.128839
     34 C                     0.025036
     35 C                    -0.144026
     36 C                    -0.143691
     37 C                     0.025196
     38 O                    -0.188719
     39 H                     0.083810
     40 H                     0.087094
     41 H                     0.093010
     42 H                     0.089259
     43 H                     0.078151
     44 H                     0.073433
     45 H                     0.078260
     46 H                     0.073393
     47 H                     0.085089
     48 H                     0.086372
     49 H                     0.087763
     50 H                     0.086246
     51 H                     0.088760
     52 H                     0.090659
     53 H                     0.085427
     54 H                     0.102797
     55 H                     0.093319
     56 H                     0.094368
  ----------------------------------------
  Sum of atomic charges =    -0.000000

                    Cartesian Multipole Moments
 -----------------------------------------------------------------
    Charge (ESU x 10^10)
                 0.0000
    Dipole Moment (Debye)
         X       0.0127      Y      -1.3764      Z      -3.5444
       Tot       3.8023
    Quadrupole Moments (Debye-Ang)
        XX    -145.5887     XY     -15.2183     YY    -159.1528
        XZ       7.3709     YZ       0.3379     ZZ    -160.1493

 Total job time:  55.27s(wall), 2628.44s(cpu)
        *  Thank you very much for using Q-Chem.  Have a nice day.  *
