 Q-Chem 5.0, Q-Chem, Inc., Pleasanton, CA (2017)
 Q-Chem 5.0.1 for Intel X86 EM64T Linux

User input:
--------------------------------------------------------------
$molecule
0  1
O 3.8619217948 -1.2046333084 -2.4989733664
C 3.6558932949 -0.1824394434 -1.8128507466
C 4.6555487273 0.5365129164 -0.8357320841
C 4.2125555842 0.4580298216 0.6854369866
C 2.8971247631 -0.358445151 0.8882764163
O 2.1454426744 0.2388515392 1.9545291176
C 0.8558864651 -0.4746084547 2.1225178792
C -0.2942131062 0.3824251311 1.4894527683
O -1.462899659 -0.5222643736 1.3386033324
C -2.5585812611 0.1883782031 0.7599529623
C -3.7996084055 -0.7669424378 0.6846558948
C -5.0838129481 -0.0056828936 0.1715823941
C -5.0128266055 1.5619490331 0.2702459093
O -5.3329351881 2.3868413822 -0.6113991877
O 2.4299184296 0.5641288737 -1.8087783788
O -4.76412596 1.9036873926 1.6446788344
O -2.4882544458 1.3646620329 0.3373909068
C -4.6951100949 3.3737986712 1.7879575429
C -3.5746805035 -1.7759016546 -0.5255777219
C -4.7604133838 -2.8205671026 -0.5702743453
C -5.9040375259 -1.967007925 -1.2359978328
C -5.2070119058 -0.5543767401 -1.3112554293
O -3.8161753326 -0.8981424376 -1.6950642469
H -3.9477027653 -1.277240262 1.652578668
H -5.9612424553 -0.3175324824 0.7682782077
H -2.5579525844 -2.2133963285 -0.5664203593
H -4.4867668037 -3.6900318331 -1.1886390437
H -5.0295761725 -3.175888199 0.4374944059
H -6.1397676312 -2.3325187192 -2.2483338741
H -6.8301636343 -1.950611919 -0.6397675098
H -5.6419173425 0.1705698309 -2.0268113479
O 2.5326301241 -1.3794227391 0.2625308647
C 1.402877509 -0.1464246903 -2.6037497175
C 6.0482871295 -0.2152677128 -0.7897962673
C 7.1136419648 0.7451515167 -0.1327210663
C 6.6795802985 0.6900368253 1.3793556414
C 5.4599642217 -0.312214369 1.311052124
O 5.8396279565 -1.259862684 0.2419767971
H 4.7630826388 1.5892084634 -1.1543230981
H 4.0797185989 1.4572116312 1.1355036692
H 1.1761782027 -1.1397284458 -2.1643682638
H 6.3403601286 -0.67965312 -1.7514919226
H 8.1310855485 0.3473003953 -0.2744549877
H 7.0701653566 1.7631608221 -0.5515265441
H 7.4789768171 0.2785431717 2.015926772
H 6.3849534153 1.6751478265 1.7750022142
H 5.2400521351 -0.8528793474 2.2522672993
H 1.7223007605 -0.2893962816 -3.6560286565
H 0.497335058 0.4875511732 -2.5741258755
H -4.5835095601 3.573571114 2.8696568001
H -5.6139130435 3.8673684237 1.4103676272
H -3.8225683286 3.789041312 1.2427608846
H -0.5486722444 1.2546824241 2.1290499836
H 0.0319363846 0.7672775264 0.4973090376
H 0.6890165699 -0.6256698024 3.2078220783
H 0.9153287224 -1.4542972482 1.6001295331
$end

$rem
JOBTYPE                   OPT
METHOD                    B3LYP
DFT_D                     d3_op
BASIS                     STO-3G
GEOM_OPT_MAX_CYCLES       100
GEOM_OPT_TOL_GRADIENT     300
GEOM_OPT_TOL_DISPLACEMENT 1200
GEOM_OPT_TOL_ENERGY       100
SYMMETRY                  False
THRESH                    12
SCF_CONVERGENCE           8
MAX_SUB_FILE_NUM          128
MEM_STATIC                400
MEM_TOTAL                 4000
$end
--------------------------------------------------------------

   16   -1510.2842026303      5.58E-09 Convergence criterion met
 Total energy in the final basis set = -1510.28420263
   13   -1510.2854699062      3.80E-09 Convergence criterion met
 Total energy in the final basis set = -1510.28546991
   13   -1510.2860522530      2.76E-09 Convergence criterion met
 Total energy in the final basis set = -1510.28605225
   13   -1510.2864691844      5.40E-09 Convergence criterion met
 Total energy in the final basis set = -1510.28646918
   14   -1510.2869186857      2.16E-09 Convergence criterion met
 Total energy in the final basis set = -1510.28691869
   14   -1510.2877747851      3.20E-09 Convergence criterion met
 Total energy in the final basis set = -1510.28777479
   14   -1510.2888545081      3.18E-09 Convergence criterion met
 Total energy in the final basis set = -1510.28885451
   14   -1510.2870796738      1.94E-09 Convergence criterion met
   11   -1510.3010202810      7.11E-09 Convergence criterion met
 Total energy in the final basis set = -1510.30102028
   11   -1510.3010230739      5.82E-09 Convergence criterion met
 Total energy in the final basis set = -1510.30102307
   10   -1510.3010252663      9.78E-09 Convergence criterion met
 Total energy in the final basis set = -1510.30102527
   10   -1510.3010277539      8.99E-09 Convergence criterion met
 Total energy in the final basis set = -1510.30102775
   12   -1510.3010318924      2.30E-09 Convergence criterion met
 Total energy in the final basis set = -1510.30103189
   11   -1510.3010320379      8.96E-09 Convergence criterion met
 Total energy in the final basis set = -1510.30103204

             Standard Nuclear Orientation (Angstroms)
    I     Atom           X                Y                Z
 ----------------------------------------------------------------
    1      O       1.2569029068    -1.5220172930    -1.7564735756
    2      C       1.7478424208    -0.4182733715    -1.4350169316
    3      C       3.2168765922    -0.1702737955    -0.9320131289
    4      C       3.3530080458     0.6143965901     0.4361572776
    5      C       1.9987393004     0.9011183823     1.1662687631
    6      O       2.0257369933     2.2653226540     1.6076409236
    7      C       0.8879083592     2.5778988016     2.5039304906
    8      C      -0.4903154231     2.7599054603     1.7667213748
    9      O      -1.2520534407     1.4983981694     1.9197545268
   10      C      -2.0454027396     1.2305849570     0.7658142369
   11      C      -2.6378370470    -0.2065299483     0.9248273184
   12      C      -3.6832391309    -0.5989293781    -0.1962353930
   13      C      -3.9071436787     0.5176769257    -1.2831468227
   14      O      -3.4414877839     0.5524891590    -2.4417716838
   15      O       1.0843959233     0.8389739937    -1.5332481165
   16      O      -4.8550741636     1.4586518928    -0.7584481173
   17      O      -2.1768599588     2.0192101902    -0.1981138284
   18      C      -5.0409537368     2.5656620515    -1.7221166864
   19      C      -1.5078486859    -1.3092942348     0.6997669390
   20      C      -2.0356948795    -2.6784052828     1.2739628136
   21      C      -3.1078881630    -3.0764502383     0.1889856810
   22      C      -2.9844345752    -1.8738297335    -0.8242946491
   23      O      -1.5420774387    -1.5358333900    -0.7640990640
   24      H      -3.0711756582    -0.2913732404     1.9373201977
   25      H      -4.6613637142    -0.8446627016     0.2539581718
   26      H      -0.4922558675    -0.9856606808     1.0212777184
   27      H      -1.2165396960    -3.4138966340     1.3181202956
   28      H      -2.4682954152    -2.5694339717     2.2812453100
   29      H      -2.8476828822    -4.0250522945    -0.3066097449
   30      H      -4.1243440089    -3.1616427277     0.6055893729
   31      H      -3.2826302896    -2.0884333709    -1.8686870021
   32      O       1.0775951004     0.0967228290     1.4239210810
   33      C      -0.2668777087     0.6608947107    -2.1305234411
   34      C       3.9402642100    -1.5357331094    -0.5830834420
   35      C       5.4981246011    -1.2902240098    -0.5962636440
   36      C       5.6799371558    -0.4582913159     0.7277968895
   37      C       4.2006010206    -0.4363312735     1.2836729761
   38      O       3.6386658810    -1.7346880649     0.8551447456
   39      H       3.7540147451     0.3742762591    -1.7306469570
   40      H       3.8860931038     1.5728766812     0.3121127296
   41      H      -0.8059356878    -0.2089137902    -1.6723503116
   42      H       3.5728760729    -2.3954103622    -1.1768420483
   43      H       6.0414276006    -2.2473647902    -0.5469976095
   44      H       5.8273620371    -0.7422918113    -1.4933636761
   45      H       6.3500486715    -0.9675123528     1.4384926982
   46      H       6.0665475528     0.5568416233     0.5430710289
   47      H       4.1131148202    -0.3177354844     2.3813416437
   48      H      -0.1858453882     0.5145121440    -3.2261012001
   49      H      -0.8205381810     1.5946133441    -1.9220679635
   50      H      -5.8097354161     3.2293384380    -1.2854175394
   51      H      -5.3848614113     2.1966641627    -2.7101359976
   52      H      -4.0981067328     3.1325716362    -1.8655091292
   53      H      -1.0580699855     3.5925102930     2.2372906940
   54      H      -0.3481748108     2.9987037776     0.6903512105
   55      H       1.1731678438     3.5302071852     2.9943604758
   56      H       0.7656391549     1.7888411229     3.2779732052
 ----------------------------------------------------------------

   11   -1510.3010323366      6.56E-09 Convergence criterion met
 Total energy in the final basis set = -1510.30103234
 Final energy is   -1510.30103233656
 **  OPTIMIZATION CONVERGED  **

                    Orbital Energies (a.u.)
 --------------------------------------------------------------

 Alpha MOs
 -- Occupied --
-18.940 -18.939 -18.919 -18.909 -18.896 -18.884 -18.883 -18.882
-18.860 -18.856 -10.106 -10.105 -10.089 -10.081 -10.081 -10.077
-10.059 -10.057 -10.053 -10.052 -10.048 -10.036 -10.036 -10.032
-10.028 -10.019 -10.016 -10.016 -10.014 -10.012  -1.021  -1.013
 -0.997  -0.989  -0.971  -0.967  -0.944  -0.941  -0.924  -0.915
 -0.761  -0.759  -0.728  -0.719  -0.712  -0.701  -0.695  -0.653
 -0.634  -0.619  -0.593  -0.578  -0.543  -0.539  -0.534  -0.532
 -0.514  -0.504  -0.483  -0.463  -0.459  -0.450  -0.449  -0.440
 -0.439  -0.428  -0.427  -0.409  -0.404  -0.401  -0.398  -0.395
 -0.382  -0.376  -0.373  -0.361  -0.359  -0.355  -0.347  -0.346
 -0.340  -0.337  -0.330  -0.327  -0.327  -0.321  -0.317  -0.308
 -0.305  -0.300  -0.299  -0.295  -0.291  -0.276  -0.276  -0.269
 -0.265  -0.256  -0.252  -0.243  -0.241  -0.231  -0.220  -0.192
 -0.175  -0.164  -0.162  -0.158  -0.155  -0.142  -0.141  -0.140
 -0.134

          Ground-State Mulliken Net Atomic Charges

     Atom                 Charge (a.u.)
  ----------------------------------------
      1 O                    -0.210115
      2 C                     0.207834
      3 C                    -0.079959
      4 C                    -0.078393
      5 C                     0.218797
      6 O                    -0.170246
      7 C                    -0.048878
      8 C                    -0.051511
      9 O                    -0.168005
     10 C                     0.217979
     11 C                    -0.079371
     12 C                    -0.082320
     13 C                     0.214521
     14 O                    -0.216875
     15 O                    -0.182963
     16 O                    -0.175339
     17 O                    -0.212877
     18 C                    -0.128343
     19 C                     0.016548
     20 C                    -0.142575
     21 C                    -0.143591
     22 C                     0.027414
     23 O                    -0.180708
     24 H                     0.087339
     25 H                     0.084524
     26 H                     0.115024
     27 H                     0.082522
     28 H                     0.072977
     29 H                     0.079808
     30 H                     0.072564
     31 H                     0.089871
     32 O                    -0.213498
     33 C                    -0.156312
     34 C                     0.023765
     35 C                    -0.143827
     36 C                    -0.144061
     37 C                     0.025587
     38 O                    -0.188240
     39 H                     0.082655
     40 H                     0.086836
     41 H                     0.119039
     42 H                     0.092300
     43 H                     0.077526
     44 H                     0.073313
     45 H                     0.077361
     46 H                     0.073261
     47 H                     0.079948
     48 H                     0.073212
     49 H                     0.084694
     50 H                     0.085924
     51 H                     0.086775
     52 H                     0.091612
     53 H                     0.085518
     54 H                     0.103640
     55 H                     0.091061
     56 H                     0.096258
  ----------------------------------------
  Sum of atomic charges =    -0.000000

                    Cartesian Multipole Moments
 -----------------------------------------------------------------
    Charge (ESU x 10^10)
                 0.0000
    Dipole Moment (Debye)
         X       0.2972      Y       1.9224      Z       2.4876
       Tot       3.1579
    Quadrupole Moments (Debye-Ang)
        XX    -141.2975     XY       4.4681     YY    -155.6019
        XZ      -2.7897     YZ       2.8914     ZZ    -158.7107

 Total job time:  141.00s(wall), 6726.11s(cpu)
        *  Thank you very much for using Q-Chem.  Have a nice day.  *
