 Q-Chem 5.0, Q-Chem, Inc., Pleasanton, CA (2017)
 Q-Chem 5.0.1 for Intel X86 EM64T Linux

User input:
--------------------------------------------------------------
$molecule
0  1
O -3.94934 -3.66094 2.70899
C -3.26408 -4.56952 2.26188
C -3.36658 -6.02376 2.66595
C -2.16673 -6.63251 3.41002
C -1.0726 -5.67349 3.82384
O 0.1433 -6.28855 3.7305
C 1.23853 -5.4213 4.0429
C 1.93371 -4.97038 2.76246
O 2.77628 -3.83963 3.03517
C 3.44851 -3.34237 1.96747
C 4.37123 -2.20361 2.33146
C 5.24523 -1.68531 1.18004
C 4.82866 -2.11685 -0.2117
O 4.74479 -1.38309 -1.18594
O -2.30613 -4.27968 1.34279
O 4.96905 -3.44994 -0.46146
O 2.9022 -3.42267 0.8747
C 4.81074 -4.03812 -1.69981
C 3.62941 -0.90937 2.72527
C 4.53028 -0.06322 3.62189
C 5.58253 0.37976 2.62505
C 4.98029 -0.1735 1.32647
O 3.59128 -0.14135 1.5476
H 4.98096 -2.54756 3.19808
H 6.31425 -1.966 1.30418
H 2.65147 -1.09217 3.22197
H 3.93146 0.82533 3.92634
H 4.92218 -0.56616 4.53199
H 5.61055 1.49192 2.61711
H 6.60194 -0.02887 2.79716
H 5.34965 0.41207 0.45627
O -1.29198 -4.60498 4.38497
C -2.03255 -3.0107 0.87801
C -4.48445 -6.25337 3.70472
C -4.91026 -7.72248 3.70916
C -3.72784 -8.35384 4.40942
C -2.87812 -7.11286 4.69211
O -3.83083 -6.10863 4.93892
H -3.60977 -6.58443 1.73595
H -1.71656 -7.50245 2.87859
H -1.71777 -2.35584 1.71864
H -5.37493 -5.60751 3.54158
H -5.80379 -7.82322 4.36583
H -5.14207 -8.13147 2.70216
H -4.07936 -8.78405 5.37398
H -3.1859 -9.12982 3.82688
H -2.16518 -7.32126 5.52105
H -2.92984 -2.58239 0.38226
H -1.20644 -3.06443 0.1396
H 4.97587 -5.13103 -1.60666
H 5.55037 -3.62518 -2.4187
H 3.78055 -3.86223 -2.07685
H 2.49644 -5.81745 2.31085
H 1.13416 -4.64429 2.05846
H 1.95428 -5.9343 4.71912
H 0.94164 -4.49698 4.58611
$end

$opt
CONSTRAINT
tors           1           2           3           4    -113.578
tors           3           4           5           6    -144.868
tors           4           5           6           7    +177.060
tors           5           6           7           8    -103.020
tors           6           7           8           9    +164.336
tors           7           8           9          10    -179.809
tors           8           9          10          11    -176.951
tors           9          10          11          12    +174.971
tors          11          12          13          14    +133.879
ENDCONSTRAINT
$end

$rem
JOBTYPE                   OPT
METHOD                    B3LYP
DFT_D                     d3_op
BASIS                     STO-3G
GEOM_OPT_MAX_CYCLES       100
GEOM_OPT_TOL_GRADIENT     300
GEOM_OPT_TOL_DISPLACEMENT 1200
GEOM_OPT_TOL_ENERGY       100
SYMMETRY                  False
THRESH                    12
SCF_CONVERGENCE           8
MAX_SUB_FILE_NUM          128
MEM_STATIC                400
MEM_TOTAL                 4000
$end
--------------------------------------------------------------

   15   -1510.1355379626      6.28E-09 Convergence criterion met
 Total energy in the final basis set = -1510.13553796
   14   -1510.2069582879      6.50E-09 Convergence criterion met
 Total energy in the final basis set = -1510.20695829
   14   -1510.2461368056      6.29E-09 Convergence criterion met
 Total energy in the final basis set = -1510.24613681
   14   -1510.2651809661      5.60E-09 Convergence criterion met
 Total energy in the final basis set = -1510.26518097
   14   -1510.2729705397      3.26E-09 Convergence criterion met
 Total energy in the final basis set = -1510.27297054
   13   -1510.2765751298      6.93E-09 Convergence criterion met
 Total energy in the final basis set = -1510.27657513
   13   -1510.2787729865      2.78E-09 Convergence criterion met
 Total energy in the final basis set = -1510.27877299
   12   -1510.2802537141      7.60E-09 Convergence criterion met
   12   -1510.2842118991      2.41E-09 Convergence criterion met
 Total energy in the final basis set = -1510.28421190
   11   -1510.2842831699      5.97E-09 Convergence criterion met
 Total energy in the final basis set = -1510.28428317
   11   -1510.2843212312      6.10E-09 Convergence criterion met
 Total energy in the final basis set = -1510.28432123
   10   -1510.2843354661      8.05E-09 Convergence criterion met
 Total energy in the final basis set = -1510.28433547
    9   -1510.2843412180      8.36E-09 Convergence criterion met
 Total energy in the final basis set = -1510.28434122
    9   -1510.2843427131      3.72E-09 Convergence criterion met
 Total energy in the final basis set = -1510.28434271

             Standard Nuclear Orientation (Angstroms)
    I     Atom           X                Y                Z
 ----------------------------------------------------------------
    1      O       3.8619217948    -1.2046333084    -2.4989733664
    2      C       3.6558932949    -0.1824394434    -1.8128507466
    3      C       4.6555487273     0.5365129164    -0.8357320841
    4      C       4.2125555842     0.4580298216     0.6854369866
    5      C       2.8971247631    -0.3584451510     0.8882764163
    6      O       2.1454426744     0.2388515392     1.9545291176
    7      C       0.8558864651    -0.4746084547     2.1225178792
    8      C      -0.2942131062     0.3824251311     1.4894527683
    9      O      -1.4628996590    -0.5222643736     1.3386033324
   10      C      -2.5585812611     0.1883782031     0.7599529623
   11      C      -3.7996084055    -0.7669424378     0.6846558948
   12      C      -5.0838129481    -0.0056828936     0.1715823941
   13      C      -5.0128266055     1.5619490331     0.2702459093
   14      O      -5.3329351881     2.3868413822    -0.6113991877
   15      O       2.4299184296     0.5641288737    -1.8087783788
   16      O      -4.7641259600     1.9036873926     1.6446788344
   17      O      -2.4882544458     1.3646620329     0.3373909068
   18      C      -4.6951100949     3.3737986712     1.7879575429
   19      C      -3.5746805035    -1.7759016546    -0.5255777219
   20      C      -4.7604133838    -2.8205671026    -0.5702743453
   21      C      -5.9040375259    -1.9670079250    -1.2359978328
   22      C      -5.2070119058    -0.5543767401    -1.3112554293
   23      O      -3.8161753326    -0.8981424376    -1.6950642469
   24      H      -3.9477027653    -1.2772402620     1.6525786680
   25      H      -5.9612424553    -0.3175324824     0.7682782077
   26      H      -2.5579525844    -2.2133963285    -0.5664203593
   27      H      -4.4867668037    -3.6900318331    -1.1886390437
   28      H      -5.0295761725    -3.1758881990     0.4374944059
   29      H      -6.1397676312    -2.3325187192    -2.2483338741
   30      H      -6.8301636343    -1.9506119190    -0.6397675098
   31      H      -5.6419173425     0.1705698309    -2.0268113479
   32      O       2.5326301241    -1.3794227391     0.2625308647
   33      C       1.4028775090    -0.1464246903    -2.6037497175
   34      C       6.0482871295    -0.2152677128    -0.7897962673
   35      C       7.1136419648     0.7451515167    -0.1327210663
   36      C       6.6795802985     0.6900368253     1.3793556414
   37      C       5.4599642217    -0.3122143690     1.3110521240
   38      O       5.8396279565    -1.2598626840     0.2419767971
   39      H       4.7630826388     1.5892084634    -1.1543230981
   40      H       4.0797185989     1.4572116312     1.1355036692
   41      H       1.1761782027    -1.1397284458    -2.1643682638
   42      H       6.3403601286    -0.6796531200    -1.7514919226
   43      H       8.1310855485     0.3473003953    -0.2744549877
   44      H       7.0701653566     1.7631608221    -0.5515265441
   45      H       7.4789768171     0.2785431717     2.0159267720
   46      H       6.3849534153     1.6751478265     1.7750022142
   47      H       5.2400521351    -0.8528793474     2.2522672993
   48      H       1.7223007605    -0.2893962816    -3.6560286565
   49      H       0.4973350580     0.4875511732    -2.5741258755
   50      H      -4.5835095601     3.5735711140     2.8696568001
   51      H      -5.6139130435     3.8673684237     1.4103676272
   52      H      -3.8225683286     3.7890413120     1.2427608846
   53      H      -0.5486722444     1.2546824241     2.1290499836
   54      H       0.0319363846     0.7672775264     0.4973090376
   55      H       0.6890165699    -0.6256698024     3.2078220783
   56      H       0.9153287224    -1.4542972482     1.6001295331
 ----------------------------------------------------------------

    9   -1510.2843434066      1.97E-09 Convergence criterion met
 Total energy in the final basis set = -1510.28434341
 Final energy is   -1510.28434340658
 **  OPTIMIZATION CONVERGED  **

                    Orbital Energies (a.u.)
 --------------------------------------------------------------

 Alpha MOs
 -- Occupied --
-18.941 -18.940 -18.925 -18.920 -18.889 -18.886 -18.884 -18.884
-18.871 -18.864 -10.106 -10.106 -10.094 -10.092 -10.078 -10.075
-10.063 -10.061 -10.058 -10.057 -10.056 -10.056 -10.041 -10.040
-10.036 -10.033 -10.022 -10.021 -10.020 -10.019  -1.022  -1.018
 -1.003  -0.999  -0.971  -0.970  -0.946  -0.941  -0.930  -0.926
 -0.765  -0.763  -0.730  -0.723  -0.715  -0.706  -0.697  -0.657
 -0.655  -0.620  -0.597  -0.580  -0.547  -0.545  -0.538  -0.537
 -0.516  -0.509  -0.486  -0.471  -0.462  -0.456  -0.454  -0.450
 -0.445  -0.432  -0.431  -0.411  -0.408  -0.406  -0.404  -0.402
 -0.397  -0.380  -0.374  -0.366  -0.361  -0.356  -0.354  -0.348
 -0.343  -0.341  -0.338  -0.333  -0.332  -0.328  -0.324  -0.312
 -0.312  -0.305  -0.305  -0.299  -0.297  -0.282  -0.279  -0.274
 -0.273  -0.260  -0.254  -0.249  -0.246  -0.235  -0.234  -0.186
 -0.183  -0.171  -0.166  -0.163  -0.159  -0.148  -0.146  -0.145
 -0.143

          Ground-State Mulliken Net Atomic Charges

     Atom                 Charge (a.u.)
  ----------------------------------------
      1 O                    -0.207768
      2 C                     0.214282
      3 C                    -0.079377
      4 C                    -0.078432
      5 C                     0.212986
      6 O                    -0.171882
      7 C                    -0.054313
      8 C                    -0.047538
      9 O                    -0.173069
     10 C                     0.217028
     11 C                    -0.076627
     12 C                    -0.080853
     13 C                     0.216713
     14 O                    -0.217009
     15 O                    -0.178025
     16 O                    -0.178172
     17 O                    -0.206906
     18 C                    -0.128715
     19 C                     0.024118
     20 C                    -0.144688
     21 C                    -0.142512
     22 C                     0.023480
     23 O                    -0.191779
     24 H                     0.087550
     25 H                     0.083214
     26 H                     0.084692
     27 H                     0.078644
     28 H                     0.073622
     29 H                     0.078334
     30 H                     0.073403
     31 H                     0.091493
     32 O                    -0.210573
     33 C                    -0.130185
     34 C                     0.024924
     35 C                    -0.144008
     36 C                    -0.143656
     37 C                     0.026055
     38 O                    -0.186384
     39 H                     0.084741
     40 H                     0.087839
     41 H                     0.092222
     42 H                     0.090819
     43 H                     0.078631
     44 H                     0.073644
     45 H                     0.078582
     46 H                     0.074014
     47 H                     0.082750
     48 H                     0.088898
     49 H                     0.090255
     50 H                     0.085715
     51 H                     0.087734
     52 H                     0.090187
     53 H                     0.089025
     54 H                     0.092481
     55 H                     0.088816
     56 H                     0.105580
  ----------------------------------------
  Sum of atomic charges =    -0.000000

                    Cartesian Multipole Moments
 -----------------------------------------------------------------
    Charge (ESU x 10^10)
                 0.0000
    Dipole Moment (Debye)
         X      -0.2181      Y       0.7925      Z       2.9354
       Tot       3.0483
    Quadrupole Moments (Debye-Ang)
        XX    -149.1340     XY      21.3203     YY    -162.5437
        XZ      -1.8208     YZ       0.8864     ZZ    -158.0711

 Total job time:  57.74s(wall), 2743.06s(cpu)
        *  Thank you very much for using Q-Chem.  Have a nice day.  *
