 Q-Chem 5.0, Q-Chem, Inc., Pleasanton, CA (2017)
 Q-Chem 5.0.1 for Intel X86 EM64T Linux

User input:
--------------------------------------------------------------
$molecule
0  1
O -3.94934 -3.66094 2.70899
C -3.26408 -4.56952 2.26188
C -3.36658 -6.02376 2.66595
C -2.26495 -6.57704 3.58472
C -1.28193 -5.57071 4.14065
O -0.235 -6.22106 4.7292
C 0.75295 -5.33202 5.261
C 1.73967 -4.9295 4.16991
O 2.66312 -3.95507 4.68039
C 3.5511 -3.46538 3.77993
C 4.6178 -2.60458 4.41384
C 6.02648 -2.78407 3.8293
C 6.10259 -3.50371 2.49775
O 6.65075 -3.07701 1.49176
O -2.28402 -4.2743 1.36748
O 5.70013 -4.80346 2.50465
O 3.3414 -3.48728 2.5722
C 5.76169 -5.64566 1.41416
C 4.41291 -1.09414 4.16084
C 5.09611 -0.29747 5.27059
C 6.55378 -0.56079 4.94812
C 6.40779 -1.30711 3.61482
O 5.22613 -0.79021 3.05371
H 4.58783 -2.76946 5.51618
H 6.69646 -3.32922 4.52965
H 3.34323 -0.80157 4.07756
H 4.87452 0.77566 5.06985
H 4.79047 -0.54098 6.31083
H 7.06551 0.4182 4.81676
H 7.09892 -1.18363 5.69027
H 7.33098 -1.18914 3.00604
O -1.3522 -4.35276 4.02461
C -2.0128 -3.00463 0.90253
C -4.59344 -6.28666 3.57386
C -4.99061 -7.76161 3.50832
C -3.86332 -8.39314 4.29647
C -3.1019 -7.1409 4.74037
O -4.1028 -6.16493 4.88703
H -3.50412 -6.60971 1.72951
H -1.6669 -7.34394 3.04241
H -1.72873 -2.34051 1.74672
H -5.47268 -5.65459 3.32017
H -5.93313 -7.87391 4.09103
H -5.14304 -8.16774 2.4853
H -4.29879 -8.91575 5.17711
H -3.21426 -9.08994 3.72298
H -2.49222 -7.35711 5.64537
H -2.90161 -2.59018 0.38051
H -1.16714 -3.05265 0.18631
H 5.36553 -6.64119 1.70124
H 6.81428 -5.76234 1.07854
H 5.14442 -5.24075 0.58391
H 2.27751 -5.82744 3.79157
H 1.16169 -4.47552 3.3346
H 1.32436 -5.86901 6.04742
H 0.29764 -4.44631 5.76194
$end

$opt
CONSTRAINT
tors           1           2           3           4    -104.857
tors           3           4           5           6    -169.082
tors           4           5           6           7    +178.989
tors           5           6           7           8     -85.108
tors           6           7           8           9    +175.369
tors           7           8           9          10    -176.713
tors           8           9          10          11    -171.572
tors           9          10          11          12    +140.772
tors          11          12          13          14    +125.995
ENDCONSTRAINT
$end

$rem
JOBTYPE                   OPT
METHOD                    B3LYP
DFT_D                     d3_op
BASIS                     STO-3G
GEOM_OPT_MAX_CYCLES       100
GEOM_OPT_TOL_GRADIENT     300
GEOM_OPT_TOL_DISPLACEMENT 1200
GEOM_OPT_TOL_ENERGY       100
SYMMETRY                  False
THRESH                    12
SCF_CONVERGENCE           8
MAX_SUB_FILE_NUM          128
MEM_STATIC                400
MEM_TOTAL                 4000
$end
--------------------------------------------------------------

   15   -1510.1555380058      7.72E-09 Convergence criterion met
 Total energy in the final basis set = -1510.15553801
   13   -1510.2242990945      5.74E-09 Convergence criterion met
 Total energy in the final basis set = -1510.22429909
   13   -1510.2607699279      9.79E-09 Convergence criterion met
 Total energy in the final basis set = -1510.26076993
   13   -1510.2760538126      7.35E-09 Convergence criterion met
 Total energy in the final basis set = -1510.27605381
    2   -1510.2760538125      2.61E-09 Convergence criterion met
 Total energy in the final basis set = -1510.27605381
   13   -1510.2805820473      6.72E-09 Convergence criterion met
 Total energy in the final basis set = -1510.28058205
   13   -1510.2821234490      3.40E-09 Convergence criterion met
 Total energy in the final basis set = -1510.28212345
   13   -1510.2830459467      2.45E-09 Convergence criterion met
   11   -1510.2852164617      5.67E-09 Convergence criterion met
 Total energy in the final basis set = -1510.28521646
   11   -1510.2852713692      8.33E-09 Convergence criterion met
 Total energy in the final basis set = -1510.28527137
   11   -1510.2853041617      4.30E-09 Convergence criterion met
 Total energy in the final basis set = -1510.28530416
   11   -1510.2853237858      4.19E-09 Convergence criterion met
 Total energy in the final basis set = -1510.28532379
   10   -1510.2853339377      4.45E-09 Convergence criterion met
 Total energy in the final basis set = -1510.28533394
    9   -1510.2853369868      6.30E-09 Convergence criterion met
 Total energy in the final basis set = -1510.28533699

             Standard Nuclear Orientation (Angstroms)
    I     Atom           X                Y                Z
 ----------------------------------------------------------------
    1      O       4.4778622037    -2.6750171651    -0.3032552369
    2      C       4.1735825128    -1.6388086944    -0.9299512595
    3      C       4.8893379486    -0.2382315920    -0.8748330808
    4      C       4.1050712722     0.8630263081    -0.0501437117
    5      C       2.7725590564     0.3381923993     0.5760705617
    6      O       2.0376467405     1.4647487100     1.0677940191
    7      C       0.7467280092     1.0291002766     1.6543563655
    8      C      -0.3512576752     0.8970794205     0.5419230320
    9      O      -1.5610668288     0.3513531954     1.2075186071
   10      C      -2.5891971803     0.1300528905     0.2342871761
   11      C      -3.9172122972    -0.2373738272     0.9796194952
   12      C      -5.1903062903     0.4243821213     0.3051543937
   13      C      -4.8504044445     1.4248856159    -0.8571091581
   14      O      -5.2866542838     1.4083048782    -2.0267045741
   15      O       3.1410356848    -1.5582901343    -1.9241075055
   16      O      -3.9978569570     2.4494235553    -0.3243367460
   17      O      -2.4162622685     0.2280126893    -1.0005024478
   18      C      -3.5813496112     3.3687338183    -1.4064418324
   19      C      -4.2633982437    -1.7789792938     0.7818085319
   20      C      -5.4477098799    -2.1588222333     1.7585910049
   21      C      -6.6818518786    -1.5383939330     1.0029771514
   22      C      -5.9661326283    -0.8514457184    -0.2236175744
   23      O      -4.8837086693    -1.8061019797    -0.5609669524
   24      H      -3.8161934172     0.0329586786     2.0449023683
   25      H      -5.7814888603     0.9734357917     1.0613411158
   26      H      -3.3869160815    -2.4547796814     0.8194914663
   27      H      -5.5359087753    -3.2529013164     1.8516387332
   28      H      -5.3055088310    -1.7287382542     2.7628984203
   29      H      -7.3747686111    -2.3208453742     0.6544129726
   30      H      -7.2429636612    -0.8180856218     1.6195068608
   31      H      -6.5991757279    -0.6550610016    -1.1109522056
   32      O       2.3833170171    -0.8473527674     0.6674670643
   33      C       2.3720719088    -2.8221957361    -1.9517048277
   34      C       6.2439748150    -0.3178980971    -0.0547290066
   35      C       7.1024724224     0.9647009869    -0.3872156495
   36      C       6.3250747717     2.0687046239     0.4222409298
   37      C       5.1734153796     1.2103503127     1.0785200934
   38      O       5.8138147635    -0.0947149684     1.3465676778
   39      H       5.0551820098     0.1034997345    -1.9121251841
   40      H       3.8716917102     1.7507072891    -0.6650633405
   41      H       1.8639047275    -3.0016045346    -0.9818893786
   42      H       6.7703958798    -1.2879056808    -0.1431398881
   43      H       8.1338678481     0.8459203352    -0.0189913938
   44      H       7.1346580102     1.1727834747    -1.4685103367
   45      H       6.9587650055     2.5206357792     1.2017227380
   46      H       5.9285078566     2.8708287964    -0.2205411020
   47      H       4.7362808275     1.6328042852     2.0043241070
   48      H       3.0201982284    -3.6935907963    -2.1778427841
   49      H       1.6159552399    -2.7055470740    -2.7499437037
   50      H      -2.9836649780     4.1629547501    -0.9224607223
   51      H      -4.4538423434     3.8202850548    -1.9210653226
   52      H      -2.9597265277     2.8422220522    -2.1597532620
   53      H      -0.5684326535     1.8851223133     0.0814353042
   54      H       0.0012454176     0.2112988298    -0.2594834271
   55      H       0.4608261812     1.8079763229     2.3891664141
   56      H       0.8605587212     0.0512096530     2.1690727567
 ----------------------------------------------------------------

    9   -1510.2853383206      3.90E-09 Convergence criterion met
 Total energy in the final basis set = -1510.28533832
 Final energy is   -1510.28533832064
 **  OPTIMIZATION CONVERGED  **

                    Orbital Energies (a.u.)
 --------------------------------------------------------------

 Alpha MOs
 -- Occupied --
-18.944 -18.936 -18.929 -18.919 -18.889 -18.888 -18.887 -18.876
-18.874 -18.862 -10.109 -10.101 -10.097 -10.090 -10.080 -10.076
-10.063 -10.062 -10.061 -10.057 -10.057 -10.053 -10.042 -10.039
-10.037 -10.034 -10.022 -10.021 -10.020 -10.020  -1.023  -1.015
 -1.006  -0.997  -0.971  -0.970  -0.947  -0.938  -0.933  -0.924
 -0.765  -0.763  -0.730  -0.723  -0.715  -0.706  -0.697  -0.660
 -0.654  -0.621  -0.597  -0.581  -0.547  -0.546  -0.538  -0.538
 -0.516  -0.509  -0.485  -0.473  -0.460  -0.457  -0.453  -0.452
 -0.440  -0.432  -0.430  -0.413  -0.411  -0.407  -0.403  -0.401
 -0.396  -0.382  -0.375  -0.366  -0.362  -0.356  -0.351  -0.349
 -0.344  -0.342  -0.339  -0.333  -0.332  -0.327  -0.325  -0.313
 -0.311  -0.305  -0.304  -0.301  -0.293  -0.285  -0.277  -0.275
 -0.273  -0.260  -0.256  -0.251  -0.244  -0.235  -0.234  -0.187
 -0.181  -0.173  -0.165  -0.163  -0.157  -0.150  -0.145  -0.144
 -0.141

          Ground-State Mulliken Net Atomic Charges

     Atom                 Charge (a.u.)
  ----------------------------------------
      1 O                    -0.213852
      2 C                     0.215261
      3 C                    -0.081129
      4 C                    -0.078164
      5 C                     0.214027
      6 O                    -0.172195
      7 C                    -0.049191
      8 C                    -0.048938
      9 O                    -0.173053
     10 C                     0.213307
     11 C                    -0.078238
     12 C                    -0.079304
     13 C                     0.215127
     14 O                    -0.208830
     15 O                    -0.177053
     16 O                    -0.176733
     17 O                    -0.212210
     18 C                    -0.129468
     19 C                     0.025484
     20 C                    -0.144109
     21 C                    -0.143529
     22 C                     0.024576
     23 O                    -0.187092
     24 H                     0.086537
     25 H                     0.084121
     26 H                     0.083136
     27 H                     0.078458
     28 H                     0.073549
     29 H                     0.078544
     30 H                     0.073049
     31 H                     0.091297
     32 O                    -0.206431
     33 C                    -0.128962
     34 C                     0.025184
     35 C                    -0.144180
     36 C                    -0.143542
     37 C                     0.025628
     38 O                    -0.187997
     39 H                     0.084164
     40 H                     0.087258
     41 H                     0.091936
     42 H                     0.089442
     43 H                     0.078256
     44 H                     0.073562
     45 H                     0.078449
     46 H                     0.073740
     47 H                     0.084180
     48 H                     0.086756
     49 H                     0.087587
     50 H                     0.086985
     51 H                     0.089572
     52 H                     0.092426
     53 H                     0.087021
     54 H                     0.093522
     55 H                     0.092169
     56 H                     0.099887
  ----------------------------------------
  Sum of atomic charges =     0.000000

                    Cartesian Multipole Moments
 -----------------------------------------------------------------
    Charge (ESU x 10^10)
                 0.0000
    Dipole Moment (Debye)
         X      -0.3133      Y       2.9815      Z       1.2634
       Tot       3.2533
    Quadrupole Moments (Debye-Ang)
        XX    -153.5721     XY      10.5130     YY    -156.5741
        XZ     -20.8398     YZ       0.8256     ZZ    -162.3911

 Total job time:  53.14s(wall), 2526.42s(cpu)
        *  Thank you very much for using Q-Chem.  Have a nice day.  *
