 Q-Chem 5.0, Q-Chem, Inc., Pleasanton, CA (2017)
 Q-Chem 5.0.1 for Intel X86 EM64T Linux

User input:
--------------------------------------------------------------
$molecule
0  1
O 4.4778622037 -2.6750171651 -0.3032552369
C 4.1735825128 -1.6388086944 -0.9299512595
C 4.8893379486 -0.238231592 -0.8748330808
C 4.1050712722 0.8630263081 -0.0501437117
C 2.7725590564 0.3381923993 0.5760705617
O 2.0376467405 1.46474871 1.0677940191
C 0.7467280092 1.0291002766 1.6543563655
C -0.3512576752 0.8970794205 0.541923032
O -1.5610668288 0.3513531954 1.2075186071
C -2.5891971803 0.1300528905 0.2342871761
C -3.9172122972 -0.2373738272 0.9796194952
C -5.1903062903 0.4243821213 0.3051543937
C -4.8504044445 1.4248856159 -0.8571091581
O -5.2866542838 1.4083048782 -2.0267045741
O 3.1410356848 -1.5582901343 -1.9241075055
O -3.997856957 2.4494235553 -0.324336746
O -2.4162622685 0.2280126893 -1.0005024478
C -3.5813496112 3.3687338183 -1.4064418324
C -4.2633982437 -1.7789792938 0.7818085319
C -5.4477098799 -2.1588222333 1.7585910049
C -6.6818518786 -1.538393933 1.0029771514
C -5.9661326283 -0.8514457184 -0.2236175744
O -4.8837086693 -1.8061019797 -0.5609669524
H -3.8161934172 0.0329586786 2.0449023683
H -5.7814888603 0.9734357917 1.0613411158
H -3.3869160815 -2.4547796814 0.8194914663
H -5.5359087753 -3.2529013164 1.8516387332
H -5.305508831 -1.7287382542 2.7628984203
H -7.3747686111 -2.3208453742 0.6544129726
H -7.2429636612 -0.8180856218 1.6195068608
H -6.5991757279 -0.6550610016 -1.1109522056
O 2.3833170171 -0.8473527674 0.6674670643
C 2.3720719088 -2.8221957361 -1.9517048277
C 6.243974815 -0.3178980971 -0.0547290066
C 7.1024724224 0.9647009869 -0.3872156495
C 6.3250747717 2.0687046239 0.4222409298
C 5.1734153796 1.2103503127 1.0785200934
O 5.8138147635 -0.0947149684 1.3465676778
H 5.0551820098 0.1034997345 -1.9121251841
H 3.8716917102 1.7507072891 -0.6650633405
H 1.8639047275 -3.0016045346 -0.9818893786
H 6.7703958798 -1.2879056808 -0.1431398881
H 8.1338678481 0.8459203352 -0.0189913938
H 7.1346580102 1.1727834747 -1.4685103367
H 6.9587650055 2.5206357792 1.201722738
H 5.9285078566 2.8708287964 -0.220541102
H 4.7362808275 1.6328042852 2.004324107
H 3.0201982284 -3.6935907963 -2.1778427841
H 1.6159552399 -2.705547074 -2.7499437037
H -2.983664978 4.1629547501 -0.9224607223
H -4.4538423434 3.8202850548 -1.9210653226
H -2.9597265277 2.8422220522 -2.159753262
H -0.5684326535 1.8851223133 0.0814353042
H 0.0012454176 0.2112988298 -0.2594834271
H 0.4608261812 1.8079763229 2.3891664141
H 0.8605587212 0.051209653 2.1690727567
$end

$rem
JOBTYPE                   OPT
METHOD                    B3LYP
DFT_D                     d3_op
BASIS                     STO-3G
GEOM_OPT_MAX_CYCLES       100
GEOM_OPT_TOL_GRADIENT     300
GEOM_OPT_TOL_DISPLACEMENT 1200
GEOM_OPT_TOL_ENERGY       100
SYMMETRY                  False
THRESH                    12
SCF_CONVERGENCE           8
MAX_SUB_FILE_NUM          128
MEM_STATIC                400
MEM_TOTAL                 4000
$end
--------------------------------------------------------------

   16   -1510.2853478940      5.00E-09 Convergence criterion met
 Total energy in the final basis set = -1510.28534789
   13   -1510.2857048042      5.30E-09 Convergence criterion met
 Total energy in the final basis set = -1510.28570480
   12   -1510.2859539787      9.09E-09 Convergence criterion met
 Total energy in the final basis set = -1510.28595398
   13   -1510.2861613442      9.04E-09 Convergence criterion met
 Total energy in the final basis set = -1510.28616134
   14   -1510.2864429853      2.39E-09 Convergence criterion met
 Total energy in the final basis set = -1510.28644299
   13   -1510.2865130845      3.89E-09 Convergence criterion met
 Total energy in the final basis set = -1510.28651308
   14   -1510.2864107513      3.61E-09 Convergence criterion met
 Total energy in the final basis set = -1510.28641075
   14   -1510.2862916988      1.35E-09 Convergence criterion met
   10   -1510.3008687135      8.44E-09 Convergence criterion met
 Total energy in the final basis set = -1510.30086871
   11   -1510.3008772284      6.42E-09 Convergence criterion met
 Total energy in the final basis set = -1510.30087723
   11   -1510.3008836234      6.32E-09 Convergence criterion met
 Total energy in the final basis set = -1510.30088362
   11   -1510.3009028558      8.49E-09 Convergence criterion met
 Total energy in the final basis set = -1510.30090286
   10   -1510.3009089514      8.86E-09 Convergence criterion met
 Total energy in the final basis set = -1510.30090895
   10   -1510.3009149367      5.55E-09 Convergence criterion met
 Total energy in the final basis set = -1510.30091494

             Standard Nuclear Orientation (Angstroms)
    I     Atom           X                Y                Z
 ----------------------------------------------------------------
    1      O       1.1812112782    -2.0217110935    -0.8820640985
    2      C       1.7285011115    -0.9214379159    -1.1113384249
    3      C       3.1782930387    -0.4861627913    -0.6772471848
    4      C       3.2539732894     0.7013802810     0.3639494813
    5      C       1.8694243117     1.1105822802     0.9642238290
    6      O       1.9842238802     2.4531333535     1.4486326674
    7      C       0.8065466534     2.8468683346     2.2584981380
    8      C      -0.5237105410     3.0696397384     1.4404249094
    9      O      -1.4441919057     1.9366049529     1.6901112865
   10      C      -1.8176616600     1.3071363327     0.4597695660
   11      C      -2.6354407788     0.0236177779     0.8066220126
   12      C      -3.6894116959    -0.3941128691    -0.3003231907
   13      C      -3.6625213367     0.5280356179    -1.5739080807
   14      O      -3.2482229070     0.2354813513    -2.7152388363
   15      O       1.1804975175     0.1308193114    -1.9002533495
   16      O      -4.2790117173     1.7762121009    -1.2298622224
   17      O      -1.5113070583     1.7410062751    -0.6734363343
   18      C      -4.1905598089     2.7074804490    -2.3765190097
   19      C      -1.6929118786    -1.2635822078     0.8327989762
   20      C      -2.4510673554    -2.4072253516     1.6079513733
   21      C      -3.5492102949    -2.8161039860     0.5535385819
   22      C      -3.1984397357    -1.8568252093    -0.6495368520
   23      O      -1.7230390203    -1.7435519659    -0.5668470549
   24      H      -3.1137629401     0.1788370535     1.7891584602
   25      H      -4.7129625654    -0.3878785332     0.1156230234
   26      H      -0.6482988519    -1.0475130739     1.1388160499
   27      H      -1.7658717779    -3.2434907965     1.8194507007
   28      H      -2.8831255437    -2.0524461339     2.5572410685
   29      H      -3.4451435806    -3.8697026861     0.2496476318
   30      H      -4.5742677778    -2.6536931046     0.9233768159
   31      H      -3.4989391572    -2.2104942390    -1.6548603775
   32      O       0.8454581581     0.4034499322     1.0833959657
   33      C      -0.1294152137    -0.2694912165    -2.4769648836
   34      C       3.9232345545    -1.6400989413     0.1142471954
   35      C       5.4753386735    -1.3720768189     0.0264574638
   36      C       5.6175356896    -0.1323539951     0.9858312928
   37      C       4.1336382370     0.0253190991     1.5083123215
   38      O       3.6131865555    -1.3582602431     1.5367983419
   39      H       3.7324175166    -0.2131167756    -1.5933614178
   40      H       3.7395424715     1.6003185141    -0.0546878000
   41      H      -0.7623078955    -0.8257802642    -1.7388764244
   42      H       3.5858047155    -2.6592235980    -0.1575004941
   43      H       6.0388630295    -2.2397426996     0.4052293121
   44      H       5.8054999590    -1.1564680404    -1.0021532110
   45      H       6.3011602302    -0.3420913240     1.8236761737
   46      H       5.9673236165     0.7717184062     0.4622337121
   47      H       4.0342080628     0.5030960472     2.5025954125
   48      H       0.0296015249    -0.9007295010    -3.3750287093
   49      H      -0.6330382351     0.6675049922    -2.7744295095
   50      H      -4.7145579005     3.6297956709    -2.0652751439
   51      H      -4.6759215659     2.2905963825    -3.2825767991
   52      H      -3.1337277742     2.9431083060    -2.6181642568
   53      H      -1.0204594943     3.9998994522     1.7878595226
   54      H      -0.3283365728     3.1445666151     0.3473806660
   55      H       1.1111798894     3.7976310039     2.7398529994
   56      H       0.6023371039     2.0900915001     3.0478457522
 ----------------------------------------------------------------

    9   -1510.3009165317      3.28E-09 Convergence criterion met
 Total energy in the final basis set = -1510.30091653
 Final energy is   -1510.30091653174
 **  OPTIMIZATION CONVERGED  **

                    Orbital Energies (a.u.)
 --------------------------------------------------------------

 Alpha MOs
 -- Occupied --
-18.939 -18.934 -18.924 -18.903 -18.897 -18.883 -18.883 -18.878
-18.866 -18.848 -10.106 -10.102 -10.092 -10.079 -10.076 -10.071
-10.059 -10.058 -10.057 -10.052 -10.051 -10.036 -10.036 -10.034
-10.025 -10.018 -10.018 -10.016 -10.015 -10.009  -1.020  -1.011
 -1.001  -0.983  -0.972  -0.966  -0.943  -0.938  -0.928  -0.910
 -0.762  -0.758  -0.726  -0.719  -0.711  -0.701  -0.694  -0.656
 -0.632  -0.618  -0.592  -0.577  -0.544  -0.539  -0.534  -0.531
 -0.512  -0.504  -0.481  -0.464  -0.459  -0.449  -0.448  -0.444
 -0.436  -0.428  -0.425  -0.411  -0.405  -0.400  -0.397  -0.390
 -0.378  -0.375  -0.374  -0.361  -0.354  -0.352  -0.349  -0.345
 -0.341  -0.334  -0.330  -0.328  -0.325  -0.320  -0.318  -0.307
 -0.305  -0.302  -0.297  -0.295  -0.294  -0.279  -0.271  -0.268
 -0.265  -0.257  -0.249  -0.246  -0.239  -0.231  -0.216  -0.190
 -0.172  -0.168  -0.160  -0.157  -0.153  -0.145  -0.141  -0.139
 -0.129

          Ground-State Mulliken Net Atomic Charges

     Atom                 Charge (a.u.)
  ----------------------------------------
      1 O                    -0.215565
      2 C                     0.209512
      3 C                    -0.081202
      4 C                    -0.077491
      5 C                     0.218558
      6 O                    -0.171932
      7 C                    -0.050282
      8 C                    -0.056428
      9 O                    -0.171092
     10 C                     0.221375
     11 C                    -0.079171
     12 C                    -0.080872
     13 C                     0.214401
     14 O                    -0.212978
     15 O                    -0.181286
     16 O                    -0.175425
     17 O                    -0.213687
     18 C                    -0.128733
     19 C                     0.022845
     20 C                    -0.142583
     21 C                    -0.143596
     22 C                     0.027027
     23 O                    -0.178399
     24 H                     0.087396
     25 H                     0.084721
     26 H                     0.112102
     27 H                     0.082580
     28 H                     0.073443
     29 H                     0.079732
     30 H                     0.072687
     31 H                     0.090286
     32 O                    -0.213635
     33 C                    -0.151940
     34 C                     0.024000
     35 C                    -0.143596
     36 C                    -0.144051
     37 C                     0.025062
     38 O                    -0.190324
     39 H                     0.082387
     40 H                     0.087521
     41 H                     0.119306
     42 H                     0.090807
     43 H                     0.077123
     44 H                     0.073419
     45 H                     0.077249
     46 H                     0.073525
     47 H                     0.080228
     48 H                     0.068879
     49 H                     0.085640
     50 H                     0.086934
     51 H                     0.087702
     52 H                     0.092271
     53 H                     0.085076
     54 H                     0.105854
     55 H                     0.090476
     56 H                     0.094146
  ----------------------------------------
  Sum of atomic charges =     0.000000

                    Cartesian Multipole Moments
 -----------------------------------------------------------------
    Charge (ESU x 10^10)
                -0.0000
    Dipole Moment (Debye)
         X      -0.1541      Y       2.3872      Z       1.9015
       Tot       3.0558
    Quadrupole Moments (Debye-Ang)
        XX    -140.5450     XY       2.9749     YY    -154.2575
        XZ      -2.7553     YZ       2.2891     ZZ    -159.7758

 Total job time:  189.87s(wall), 9059.81s(cpu)
        *  Thank you very much for using Q-Chem.  Have a nice day.  *
