 Q-Chem 5.0, Q-Chem, Inc., Pleasanton, CA (2017)
 Q-Chem 5.0.1 for Intel X86 EM64T Linux

User input:
--------------------------------------------------------------
$molecule
0  1
O -3.5548538772 0.5696606616 2.6557626252
C -3.6017187617 1.1602202003 1.5567933406
C -4.6387177192 0.946317802 0.3907020236
C -4.1732625899 -0.1053669063 -0.7002305119
C -2.702340389 -0.6037239472 -0.5162135964
O -2.2621338815 -1.1260214676 -1.7743135221
C -0.8586303387 -1.6110714815 -1.726516487
C 0.1858346158 -0.5077065092 -1.321934265
O 1.4476862835 -1.2311914539 -1.0238496655
C 2.4109086078 -0.3205661438 -0.4825816636
C 3.766131984 -1.0834781506 -0.2937562498
C 5.0169889987 -0.1259442524 -0.4337119197
C 4.6939224598 1.2878912684 -1.0363612559
O 5.1060514916 2.3960402229 -0.634919275
O -2.6814296928 2.1777864602 1.1388509505
O 3.9648644092 1.0896803518 -2.257490538
O 2.1645960225 0.870456232 -0.1914968599
C 3.5929632739 2.3958535855 -2.8434772382
C 3.9118948963 -1.5118790377 1.2325083627
C 5.1795945625 -2.4423462133 1.3921756899
C 6.3471570795 -1.3874444286 1.3436067798
C 5.5374153374 -0.0629211551 1.0625181046
O 4.3126533672 -0.2418184843 1.8787441399
H 3.8024762248 -1.9448484698 -0.9826856829
H 5.7749669601 -0.5916959111 -1.091033986
H 2.9811841921 -1.9041638979 1.6870038196
H 5.1495333157 -2.9720818702 2.3574259483
H 5.247103392 -3.1873432637 0.5830047375
H 6.8696491404 -1.3210766663 2.3112456585
H 7.0852644309 -1.6038814913 0.5550652848
H 6.0451267739 0.8862348057 1.3231880571
O -2.0115603315 -0.577343872 0.5265893385
C -1.6030227488 2.3209204998 2.1428678628
C -5.9372697867 0.2259977273 0.9490325274
C -7.0773874533 0.3005228839 -0.1427437741
C -6.5967867218 -0.7972728647 -1.1638174573
C -5.247835136 -1.263731241 -0.488837998
O -5.5470242886 -1.2041172356 0.9567983163
H -4.8613898802 1.9230279387 -0.0739384109
H -4.2554267659 0.3134226736 -1.7190829581
H -1.0502852893 1.368103792 2.2744238119
H -6.231340624 0.5459541267 1.9672840951
H -8.0538172821 0.0444581019 0.2978800074
H -7.1459348312 1.3016175079 -0.5977166925
H -7.3079152701 -1.6371405686 -1.2176118707
H -6.4415294937 -0.3995117275 -2.1794142929
H -4.8981804352 -2.2743516621 -0.7770503124
H -1.9992326344 2.6387718904 3.1289981428
H -0.9184293774 3.0958110197 1.7514960729
H 3.1142148785 2.1723245028 -3.8146955065
H 4.4795436703 3.0423790969 -3.0050144173
H 2.8747390289 2.9357258874 -2.192474869
H 0.3324612084 0.226462517 -2.1428676065
H -0.1792024644 0.0270404009 -0.4200614078
H -0.6504703924 -1.9939144725 -2.7452298864
H -0.7682801846 -2.4518754408 -1.0031972191
$end

$rem
JOBTYPE                   OPT
METHOD                    B3LYP
DFT_D                     d3_op
BASIS                     STO-3G
GEOM_OPT_MAX_CYCLES       100
GEOM_OPT_TOL_GRADIENT     300
GEOM_OPT_TOL_DISPLACEMENT 1200
GEOM_OPT_TOL_ENERGY       100
SYMMETRY                  False
THRESH                    12
SCF_CONVERGENCE           8
MAX_SUB_FILE_NUM          128
MEM_STATIC                400
MEM_TOTAL                 4000
$end
--------------------------------------------------------------

   16   -1510.2819024478      6.06E-09 Convergence criterion met
 Total energy in the final basis set = -1510.28190245
   13   -1510.2836778008      7.56E-09 Convergence criterion met
 Total energy in the final basis set = -1510.28367780
   13   -1510.2848073961      2.72E-09 Convergence criterion met
 Total energy in the final basis set = -1510.28480740
   13   -1510.2856480674      3.81E-09 Convergence criterion met
 Total energy in the final basis set = -1510.28564807
   13   -1510.2864422483      3.43E-09 Convergence criterion met
 Total energy in the final basis set = -1510.28644225
   13   -1510.2869405510      5.39E-09 Convergence criterion met
 Total energy in the final basis set = -1510.28694055
   13   -1510.2873750311      6.85E-09 Convergence criterion met
 Total energy in the final basis set = -1510.28737503
   14   -1510.2879302823      2.74E-09 Convergence criterion met
   13   -1510.3011430678      3.67E-09 Convergence criterion met
 Total energy in the final basis set = -1510.30114307
   12   -1510.3011527466      2.57E-09 Convergence criterion met
 Total energy in the final basis set = -1510.30115275
   11   -1510.3011585168      4.18E-09 Convergence criterion met
 Total energy in the final basis set = -1510.30115852
   12   -1510.3011651406      2.43E-09 Convergence criterion met
 Total energy in the final basis set = -1510.30116514
   11   -1510.3011599038      3.13E-09 Convergence criterion met
 Total energy in the final basis set = -1510.30115990
    9   -1510.3011614724      6.06E-09 Convergence criterion met
 Total energy in the final basis set = -1510.30116147

             Standard Nuclear Orientation (Angstroms)
    I     Atom           X                Y                Z
 ----------------------------------------------------------------
    1      O       1.3079740340    -1.4230917599    -1.8571127140
    2      C       1.8309703878    -0.3964824265    -1.3718393858
    3      C       3.2782415757    -0.2949960288    -0.7673723919
    4      C       3.3874792324     0.3853137444     0.6579124699
    5      C       2.0212982620     0.7436546554     1.3349211114
    6      O       2.1053970404     2.1067262310     1.7752447216
    7      C       0.9604198762     2.4815733931     2.6375298800
    8      C      -0.3773170369     2.7572503886     1.8582343246
    9      O      -1.2050614494     1.5306757924     1.9397430305
   10      C      -2.0099147416     1.3738212416     0.7745826461
   11      C      -2.6835806850    -0.0350634457     0.8478504749
   12      C      -3.6654178169    -0.3342677333    -0.3572513319
   13      C      -3.7681921123     0.8320702344    -1.4092616271
   14      O      -3.2116279171     0.8999653764    -2.5254642851
   15      O       1.2291926172     0.8942998574    -1.3404493227
   16      O      -4.7372075208     1.7732154690    -0.9242611206
   17      O      -2.0938205883     2.2218025508    -0.1434728410
   18      C      -4.8249977536     2.9198334936    -1.8546918336
   19      C      -1.5990794646    -1.1886709373     0.6638248417
   20      C      -2.2404146788    -2.5457315886     1.1421103419
   21      C      -3.2420385978    -2.8491435955    -0.0357598604
   22      C      -2.9830297256    -1.6177580078    -0.9877539638
   23      O      -1.5342363016    -1.3585964403    -0.8072501122
   24      H      -3.1924342423    -0.1280329914     1.8239662496
   25      H      -4.6825201543    -0.5502442101     0.0150264173
   26      H      -0.5944235069    -0.9341712140     1.0710132065
   27      H      -1.4658843734    -3.3251731800     1.2221894275
   28      H      -2.7452931132    -2.4468227142     2.1162783122
   29      H      -2.9896879543    -3.7913205785    -0.5475225923
   30      H      -4.2904888300    -2.8979365945     0.2995452388
   31      H      -3.2119266751    -1.7768777426    -2.0592053320
   32      O       1.0523441212    -0.0110336411     1.5663318727
   33      C      -0.1046282000     0.8461394678    -1.9989930834
   34      C       3.8742387336    -1.7339892712    -0.4754147065
   35      C       5.4442064014    -1.6143596329    -0.3811129822
   36      C       5.6041125706    -0.8816293367     1.0027242856
   37      C       4.0988803035    -0.7822729076     1.4754835518
   38      O       3.4684962715    -2.0013530252     0.9256708345
   39      H       3.9048953622     0.2561752165    -1.4929540248
   40      H       4.0009939976     1.3022008413     0.6265216257
   41      H      -0.7137980119    -0.0139512020    -1.6156179455
   42      H       3.4805751432    -2.5197301308    -1.1495538732
   43      H       5.9076722510    -2.6136455102    -0.3638020728
   44      H       5.8700467444    -1.0404821643    -1.2195536951
   45      H       6.1936607724    -1.4809901268     1.7144560695
   46      H       6.0707097987     0.1115478435     0.9049475458
   47      H       3.9534563412    -0.7296015588     2.5720173987
   48      H       0.0088781384     0.7614660228    -3.0980347815
   49      H      -0.6040765890     1.8003083786    -1.7512386687
   50      H      -5.6106303007     3.5850471187    -1.4515823713
   51      H      -5.1005196152     2.5964346456    -2.8795103392
   52      H      -3.8622195142     3.4685300497    -1.9044229267
   53      H      -0.9201116335     3.6025831973     2.3360233266
   54      H      -0.1805641156     3.0250537367     0.7975508700
   55      H       1.2869652462     3.4103470757     3.1470978259
   56      H       0.7632845182     1.6948575486     3.3982581552
 ----------------------------------------------------------------

    9   -1510.3011616801      5.52E-09 Convergence criterion met
 Total energy in the final basis set = -1510.30116168
 Final energy is   -1510.30116168009
 **  OPTIMIZATION CONVERGED  **

                    Orbital Energies (a.u.)
 --------------------------------------------------------------

 Alpha MOs
 -- Occupied --
-18.941 -18.937 -18.919 -18.911 -18.897 -18.884 -18.884 -18.880
-18.859 -18.857 -10.106 -10.105 -10.089 -10.081 -10.080 -10.077
-10.059 -10.057 -10.053 -10.051 -10.049 -10.037 -10.035 -10.032
-10.029 -10.018 -10.017 -10.016 -10.014 -10.013  -1.022  -1.012
 -0.997  -0.990  -0.971  -0.966  -0.944  -0.940  -0.923  -0.916
 -0.762  -0.758  -0.728  -0.719  -0.712  -0.701  -0.695  -0.653
 -0.634  -0.619  -0.593  -0.578  -0.543  -0.539  -0.534  -0.532
 -0.514  -0.504  -0.484  -0.463  -0.459  -0.451  -0.449  -0.440
 -0.438  -0.429  -0.426  -0.409  -0.405  -0.401  -0.398  -0.396
 -0.383  -0.376  -0.372  -0.361  -0.358  -0.356  -0.347  -0.346
 -0.339  -0.336  -0.330  -0.328  -0.327  -0.321  -0.317  -0.308
 -0.306  -0.300  -0.300  -0.296  -0.289  -0.277  -0.276  -0.270
 -0.265  -0.256  -0.252  -0.243  -0.242  -0.231  -0.222  -0.192
 -0.174  -0.164  -0.162  -0.159  -0.154  -0.142  -0.141  -0.139
 -0.134

          Ground-State Mulliken Net Atomic Charges

     Atom                 Charge (a.u.)
  ----------------------------------------
      1 O                    -0.210120
      2 C                     0.208063
      3 C                    -0.079886
      4 C                    -0.078441
      5 C                     0.219081
      6 O                    -0.170275
      7 C                    -0.048699
      8 C                    -0.050939
      9 O                    -0.167476
     10 C                     0.217862
     11 C                    -0.079270
     12 C                    -0.082553
     13 C                     0.214673
     14 O                    -0.217723
     15 O                    -0.182442
     16 O                    -0.175348
     17 O                    -0.212550
     18 C                    -0.128307
     19 C                     0.016164
     20 C                    -0.142747
     21 C                    -0.143519
     22 C                     0.027329
     23 O                    -0.181191
     24 H                     0.087327
     25 H                     0.084604
     26 H                     0.115273
     27 H                     0.082399
     28 H                     0.072985
     29 H                     0.079849
     30 H                     0.072673
     31 H                     0.090114
     32 O                    -0.213748
     33 C                    -0.155703
     34 C                     0.023627
     35 C                    -0.143741
     36 C                    -0.144211
     37 C                     0.025583
     38 O                    -0.188109
     39 H                     0.082654
     40 H                     0.086505
     41 H                     0.118259
     42 H                     0.092468
     43 H                     0.077577
     44 H                     0.073219
     45 H                     0.077257
     46 H                     0.073143
     47 H                     0.080069
     48 H                     0.074598
     49 H                     0.083734
     50 H                     0.085838
     51 H                     0.086518
     52 H                     0.091469
     53 H                     0.085598
     54 H                     0.103324
     55 H                     0.091007
     56 H                     0.096157
  ----------------------------------------
  Sum of atomic charges =    -0.000000

                    Cartesian Multipole Moments
 -----------------------------------------------------------------
    Charge (ESU x 10^10)
                 0.0000
    Dipole Moment (Debye)
         X       0.2734      Y       1.7713      Z       2.6038
       Tot       3.1610
    Quadrupole Moments (Debye-Ang)
        XX    -140.5618     XY       3.6482     YY    -156.1881
        XZ      -1.2788     YZ       3.3100     ZZ    -158.5943

 Total job time:  164.10s(wall), 7831.15s(cpu)
        *  Thank you very much for using Q-Chem.  Have a nice day.  *
