 Q-Chem 5.0, Q-Chem, Inc., Pleasanton, CA (2017)
 Q-Chem 5.0.1 for Intel X86 EM64T Linux

User input:
--------------------------------------------------------------
$molecule
0  1
O -3.94934 -3.66094 2.70899
C -3.26408 -4.56952 2.26188
C -3.36658 -6.02376 2.66595
C -2.44801 -6.5039 3.80153
C -1.65729 -5.43716 4.52605
O -0.5846 -6.00174 5.15534
C 0.22865 -5.04802 5.84693
C 0.75604 -4.0012 4.87115
O 1.31425 -2.89389 5.59582
C 1.67829 -1.82735 4.84142
C 2.36182 -0.74541 5.64319
C 3.38456 0.09159 4.86106
C 3.31826 -0.02558 3.35157
O 3.3802 0.90805 2.56476
O -2.19852 -4.25785 1.47887
O 3.54689 -1.27229 2.85382
O 1.13774 -1.59488 3.76536
C 3.65344 -1.5737 1.51174
C 1.39862 0.36824 6.10892
C 1.97055 1.04512 7.35277
C 3.15746 1.77401 6.75468
C 2.92008 1.50458 5.26246
O 1.52301 1.38798 5.14782
H 2.80344 -1.21925 6.55054
H 4.42819 -0.15046 5.15913
H 0.36634 0.00471 6.30645
H 1.21632 1.79792 7.67738
H 2.20766 0.37798 8.20921
H 3.06123 2.85585 6.99546
H 4.15443 1.39677 7.07032
H 3.39551 2.30162 4.6499
O -2.17794 -4.39085 4.90205
C -1.86618 -2.97672 1.0914
C -4.74339 -6.32715 3.30402
C -5.05138 -7.82191 3.21176
C -4.09543 -8.36898 4.24853
C -3.49383 -7.06579 4.78202
O -4.5456 -6.13988 4.68213
H -3.29257 -6.6274 1.73373
H -1.73975 -7.29332 3.46142
H -1.65367 -2.35026 1.98426
H -5.57447 -5.74587 2.84681
H -6.09228 -7.97058 3.57886
H -4.9547 -8.26051 2.19535
H -4.68928 -8.87066 5.04488
H -3.31796 -9.06243 3.86107
H -3.07777 -7.22293 5.80211
H -2.69531 -2.52719 0.5042
H -0.95673 -3.01288 0.45729
H 3.83266 -2.66236 1.39717
H 4.50534 -1.02161 1.06047
H 2.71151 -1.30871 0.98553
H 1.50615 -4.45469 4.18629
H -0.0627 -3.59915 4.24413
H 1.07584 -5.55669 6.35303
H -0.38249 -4.55222 6.63526
$end

$opt
CONSTRAINT
tors           1           2           3           4     -92.557
tors           3           4           5           6    -159.231
tors           4           5           6           7    +178.989
tors           5           6           7           8     -59.156
tors           6           7           8           9    +167.237
tors           7           8           9          10    -172.737
tors           8           9          10          11    -175.214
tors           9          10          11          12    +150.447
tors          11          12          13          14    +135.722
ENDCONSTRAINT
$end

$rem
JOBTYPE                   OPT
METHOD                    B3LYP
DFT_D                     d3_op
BASIS                     STO-3G
GEOM_OPT_MAX_CYCLES       100
GEOM_OPT_TOL_GRADIENT     300
GEOM_OPT_TOL_DISPLACEMENT 1200
GEOM_OPT_TOL_ENERGY       100
SYMMETRY                  False
THRESH                    12
SCF_CONVERGENCE           8
MAX_SUB_FILE_NUM          128
MEM_STATIC                400
MEM_TOTAL                 4000
$end
--------------------------------------------------------------

   15   -1510.1349800681      6.54E-09 Convergence criterion met
 Total energy in the final basis set = -1510.13498007
   14   -1510.2057317438      6.27E-09 Convergence criterion met
 Total energy in the final basis set = -1510.20573174
   14   -1510.2444017770      7.45E-09 Convergence criterion met
 Total energy in the final basis set = -1510.24440178
   14   -1510.2629083039      4.82E-09 Convergence criterion met
 Total energy in the final basis set = -1510.26290830
   14   -1510.2704937386      3.87E-09 Convergence criterion met
 Total energy in the final basis set = -1510.27049374
   13   -1510.2743153391      7.47E-09 Convergence criterion met
 Total energy in the final basis set = -1510.27431534
   13   -1510.2765835333      3.31E-09 Convergence criterion met
 Total energy in the final basis set = -1510.27658353
   13   -1510.2781979904      3.16E-09 Convergence criterion met
   11   -1510.2815828989      5.72E-09 Convergence criterion met
 Total energy in the final basis set = -1510.28158290
   11   -1510.2816559737      5.87E-09 Convergence criterion met
 Total energy in the final basis set = -1510.28165597
   10   -1510.2817065296      7.75E-09 Convergence criterion met
 Total energy in the final basis set = -1510.28170653
   10   -1510.2817394001      7.64E-09 Convergence criterion met
 Total energy in the final basis set = -1510.28173940
   10   -1510.2817567933      4.93E-09 Convergence criterion met
 Total energy in the final basis set = -1510.28175679
    9   -1510.2817611038      6.57E-09 Convergence criterion met
 Total energy in the final basis set = -1510.28176110

             Standard Nuclear Orientation (Angstroms)
    I     Atom           X                Y                Z
 ----------------------------------------------------------------
    1      O      -3.5548538772     0.5696606616     2.6557626252
    2      C      -3.6017187617     1.1602202003     1.5567933406
    3      C      -4.6387177192     0.9463178020     0.3907020236
    4      C      -4.1732625899    -0.1053669063    -0.7002305119
    5      C      -2.7023403890    -0.6037239472    -0.5162135964
    6      O      -2.2621338815    -1.1260214676    -1.7743135221
    7      C      -0.8586303387    -1.6110714815    -1.7265164870
    8      C       0.1858346158    -0.5077065092    -1.3219342650
    9      O       1.4476862835    -1.2311914539    -1.0238496655
   10      C       2.4109086078    -0.3205661438    -0.4825816636
   11      C       3.7661319840    -1.0834781506    -0.2937562498
   12      C       5.0169889987    -0.1259442524    -0.4337119197
   13      C       4.6939224598     1.2878912684    -1.0363612559
   14      O       5.1060514916     2.3960402229    -0.6349192750
   15      O      -2.6814296928     2.1777864602     1.1388509505
   16      O       3.9648644092     1.0896803518    -2.2574905380
   17      O       2.1645960225     0.8704562320    -0.1914968599
   18      C       3.5929632739     2.3958535855    -2.8434772382
   19      C       3.9118948963    -1.5118790377     1.2325083627
   20      C       5.1795945625    -2.4423462133     1.3921756899
   21      C       6.3471570795    -1.3874444286     1.3436067798
   22      C       5.5374153374    -0.0629211551     1.0625181046
   23      O       4.3126533672    -0.2418184843     1.8787441399
   24      H       3.8024762248    -1.9448484698    -0.9826856829
   25      H       5.7749669601    -0.5916959111    -1.0910339860
   26      H       2.9811841921    -1.9041638979     1.6870038196
   27      H       5.1495333157    -2.9720818702     2.3574259483
   28      H       5.2471033920    -3.1873432637     0.5830047375
   29      H       6.8696491404    -1.3210766663     2.3112456585
   30      H       7.0852644309    -1.6038814913     0.5550652848
   31      H       6.0451267739     0.8862348057     1.3231880571
   32      O      -2.0115603315    -0.5773438720     0.5265893385
   33      C      -1.6030227488     2.3209204998     2.1428678628
   34      C      -5.9372697867     0.2259977273     0.9490325274
   35      C      -7.0773874533     0.3005228839    -0.1427437741
   36      C      -6.5967867218    -0.7972728647    -1.1638174573
   37      C      -5.2478351360    -1.2637312410    -0.4888379980
   38      O      -5.5470242886    -1.2041172356     0.9567983163
   39      H      -4.8613898802     1.9230279387    -0.0739384109
   40      H      -4.2554267659     0.3134226736    -1.7190829581
   41      H      -1.0502852893     1.3681037920     2.2744238119
   42      H      -6.2313406240     0.5459541267     1.9672840951
   43      H      -8.0538172821     0.0444581019     0.2978800074
   44      H      -7.1459348312     1.3016175079    -0.5977166925
   45      H      -7.3079152701    -1.6371405686    -1.2176118707
   46      H      -6.4415294937    -0.3995117275    -2.1794142929
   47      H      -4.8981804352    -2.2743516621    -0.7770503124
   48      H      -1.9992326344     2.6387718904     3.1289981428
   49      H      -0.9184293774     3.0958110197     1.7514960729
   50      H       3.1142148785     2.1723245028    -3.8146955065
   51      H       4.4795436703     3.0423790969    -3.0050144173
   52      H       2.8747390289     2.9357258874    -2.1924748690
   53      H       0.3324612084     0.2264625170    -2.1428676065
   54      H      -0.1792024644     0.0270404009    -0.4200614078
   55      H      -0.6504703924    -1.9939144725    -2.7452298864
   56      H      -0.7682801846    -2.4518754408    -1.0031972191
 ----------------------------------------------------------------

    9   -1510.2817622020      3.92E-09 Convergence criterion met
 Total energy in the final basis set = -1510.28176220
 Final energy is   -1510.28176220202
 **  OPTIMIZATION CONVERGED  **

                    Orbital Energies (a.u.)
 --------------------------------------------------------------

 Alpha MOs
 -- Occupied --
-18.944 -18.935 -18.927 -18.920 -18.889 -18.887 -18.886 -18.875
-18.872 -18.862 -10.109 -10.100 -10.096 -10.089 -10.081 -10.071
-10.063 -10.060 -10.060 -10.057 -10.056 -10.051 -10.041 -10.038
-10.035 -10.034 -10.021 -10.020 -10.020 -10.019  -1.021  -1.013
 -1.004  -0.998  -0.971  -0.969  -0.947  -0.937  -0.931  -0.923
 -0.764  -0.762  -0.729  -0.722  -0.715  -0.705  -0.696  -0.659
 -0.653  -0.621  -0.596  -0.582  -0.546  -0.545  -0.537  -0.537
 -0.515  -0.509  -0.482  -0.470  -0.460  -0.456  -0.452  -0.450
 -0.441  -0.431  -0.429  -0.410  -0.408  -0.406  -0.401  -0.398
 -0.393  -0.381  -0.378  -0.366  -0.362  -0.356  -0.351  -0.348
 -0.344  -0.341  -0.337  -0.331  -0.331  -0.327  -0.325  -0.312
 -0.310  -0.305  -0.304  -0.302  -0.292  -0.284  -0.277  -0.275
 -0.272  -0.259  -0.254  -0.249  -0.244  -0.234  -0.233  -0.187
 -0.180  -0.170  -0.166  -0.158  -0.156  -0.149  -0.145  -0.142
 -0.140

          Ground-State Mulliken Net Atomic Charges

     Atom                 Charge (a.u.)
  ----------------------------------------
      1 O                    -0.209875
      2 C                     0.213414
      3 C                    -0.080460
      4 C                    -0.079199
      5 C                     0.213369
      6 O                    -0.171249
      7 C                    -0.047991
      8 C                    -0.054605
      9 O                    -0.174153
     10 C                     0.215740
     11 C                    -0.077736
     12 C                    -0.079504
     13 C                     0.216048
     14 O                    -0.211358
     15 O                    -0.176625
     16 O                    -0.176557
     17 O                    -0.212118
     18 C                    -0.129032
     19 C                     0.025173
     20 C                    -0.144450
     21 C                    -0.143030
     22 C                     0.024145
     23 O                    -0.187930
     24 H                     0.086570
     25 H                     0.083666
     26 H                     0.083705
     27 H                     0.078551
     28 H                     0.073342
     29 H                     0.078441
     30 H                     0.072908
     31 H                     0.091353
     32 O                    -0.207412
     33 C                    -0.129285
     34 C                     0.026024
     35 C                    -0.144811
     36 C                    -0.142923
     37 C                     0.026155
     38 O                    -0.185680
     39 H                     0.084263
     40 H                     0.086640
     41 H                     0.094150
     42 H                     0.087511
     43 H                     0.078294
     44 H                     0.073406
     45 H                     0.078406
     46 H                     0.073772
     47 H                     0.083568
     48 H                     0.086311
     49 H                     0.089223
     50 H                     0.086918
     51 H                     0.089394
     52 H                     0.091602
     53 H                     0.084461
     54 H                     0.104590
     55 H                     0.092586
     56 H                     0.092282
  ----------------------------------------
  Sum of atomic charges =    -0.000000

                    Cartesian Multipole Moments
 -----------------------------------------------------------------
    Charge (ESU x 10^10)
                 0.0000
    Dipole Moment (Debye)
         X      -0.1536      Y      -1.0782      Z      -3.9114
       Tot       4.0602
    Quadrupole Moments (Debye-Ang)
        XX    -145.6942     XY     -15.4381     YY    -157.9400
        XZ       5.7061     YZ       0.2508     ZZ    -161.2533

 Total job time:  56.92s(wall), 2701.98s(cpu)
        *  Thank you very much for using Q-Chem.  Have a nice day.  *
