 Q-Chem 5.0, Q-Chem, Inc., Pleasanton, CA (2017)
 Q-Chem 5.0.1 for Intel X86 EM64T Linux

User input:
--------------------------------------------------------------
$molecule
0  1
O -4.3534559639 0.7720709962 2.5730360864
C -4.1566715074 1.2120405272 1.4209862806
C -4.9164371873 0.809670915 0.1012580934
C -4.1158991132 -0.1713100812 -0.8491788473
C -2.7410868611 -0.6199630044 -0.2521678444
O -2.0872536101 -1.4647780588 -1.2062555105
C -0.7643878027 -1.8970782292 -0.6930538133
C 0.3115991131 -0.765929626 -0.8508116013
O 1.5742810794 -1.320843614 -0.3011752829
C 2.6091703671 -0.3318662173 -0.3441872228
C 4.0008231896 -1.0500660579 -0.2762224205
C 5.1935401806 -0.0282945226 -0.4358222021
C 4.7870010509 1.3800156058 -1.0080956627
O 5.0487862935 2.4986713033 -0.5186655834
O -3.2499541338 2.2757365569 1.0952611036
O 4.2698276548 1.1760276894 -2.3351261644
O 2.4034710108 0.8994035474 -0.4330045671
C 3.8607535435 2.4721701373 -2.9168031826
C 4.2481423979 -1.5412438199 1.2159533185
C 5.5840002944 -2.3847774373 1.279357436
C 6.6720182798 -1.2469520473 1.2492676948
C 5.7619211498 0.0247433856 1.0438391375
O 4.5870659976 -0.2717983394 1.8994871605
H 4.0280283088 -1.8737864091 -1.0113896296
H 5.9496152512 -0.4458939578 -1.1262591453
H 3.366353965 -2.0177494564 1.6873749397
H 5.6295142705 -2.9677518446 2.2127080862
H 5.6721322554 -3.0764994625 0.4263024769
H 7.2111907733 -1.1818352437 2.2078707353
H 7.4051664259 -1.3765561581 0.4373811411
H 6.2093501762 0.9990507848 1.3213822112
O -2.2625990448 -0.3284326458 0.8665299878
C -2.4541287584 2.6355370286 2.2895498211
C -6.2011687376 -0.065910009 0.4218896996
C -7.1464241004 -0.0406788559 -0.8416937505
C -6.3563147246 -0.9793920658 -1.8274443573
C -5.1245001978 -1.3992269486 -0.9305641815
O -5.684681384 -1.455645673 0.4371921841
H -5.1805337339 1.7357520632 -0.4397073463
H -3.9385212857 0.2697382235 -1.8466429651
H -1.827428708 1.7833107413 2.623669415
H -6.6813183265 0.1745816056 1.3899747202
H -8.1351576664 -0.4578334135 -0.5928611099
H -7.2816277656 0.9777736216 -1.2396369006
H -6.9481809886 -1.8661942293 -2.104922529
H -6.0410422586 -0.4626467785 -2.7479655174
H -4.646905135 -2.3606168983 -1.2026738644
H -3.1004989098 2.9512952013 3.1338886367
H -1.8039323884 3.4763113285 1.9851472354
H 3.5660504915 2.2626572761 -3.9617200215
H 4.6894264647 3.2094097754 -2.9038797253
H 2.9975213313 2.9024960484 -2.3681821979
H 0.436959154 -0.4916694858 -1.9207818396
H -0.0047497558 0.139838488 -0.289038374
H -0.4800404347 -2.7815358649 -1.297388382
H -0.8320728854 -2.1857133037 0.3776923994
$end

$rem
JOBTYPE                   OPT
METHOD                    B3LYP
DFT_D                     d3_op
BASIS                     STO-3G
GEOM_OPT_MAX_CYCLES       100
GEOM_OPT_TOL_GRADIENT     300
GEOM_OPT_TOL_DISPLACEMENT 1200
GEOM_OPT_TOL_ENERGY       100
SYMMETRY                  False
THRESH                    12
SCF_CONVERGENCE           8
MAX_SUB_FILE_NUM          128
MEM_STATIC                400
MEM_TOTAL                 4000
$end
--------------------------------------------------------------

   16   -1510.2824969721      6.43E-09 Convergence criterion met
 Total energy in the final basis set = -1510.28249697
   14   -1510.2851152762      1.60E-09 Convergence criterion met
 Total energy in the final basis set = -1510.28511528
   13   -1510.2862712722      5.12E-09 Convergence criterion met
 Total energy in the final basis set = -1510.28627127
   13   -1510.2863313288      3.61E-09 Convergence criterion met
 Total energy in the final basis set = -1510.28633133
   13   -1510.2870403248      7.85E-09 Convergence criterion met
 Total energy in the final basis set = -1510.28704032
   14   -1510.2872054397      1.46E-09 Convergence criterion met
 Total energy in the final basis set = -1510.28720544
   14   -1510.2869662579      1.53E-09 Convergence criterion met
 Total energy in the final basis set = -1510.28696626
   13   -1510.2873942707      6.59E-09 Convergence criterion met
   12   -1510.2927629086      2.91E-09 Convergence criterion met
 Total energy in the final basis set = -1510.29276291
   11   -1510.2927762026      7.52E-09 Convergence criterion met
 Total energy in the final basis set = -1510.29277620
   12   -1510.2927942034      2.03E-09 Convergence criterion met
 Total energy in the final basis set = -1510.29279420
   13   -1510.2928379485      3.02E-09 Convergence criterion met
 Total energy in the final basis set = -1510.29283795
   10   -1510.2928483942      8.85E-09 Convergence criterion met
 Total energy in the final basis set = -1510.29284839
   11   -1510.2928580369      9.21E-09 Convergence criterion met
 Total energy in the final basis set = -1510.29285804

             Standard Nuclear Orientation (Angstroms)
    I     Atom           X                Y                Z
 ----------------------------------------------------------------
    1      O      -2.6634750522     1.5649439761     2.0306147918
    2      C      -2.7066669562     1.2442681788     0.8242289086
    3      C      -3.9879523162     0.8880116539    -0.0153331821
    4      C      -3.8864874289    -0.5014941322    -0.7770968067
    5      C      -2.5153614208    -1.2242371485    -0.5655818435
    6      O      -1.9138912570    -1.4181584212    -1.8590242648
    7      C      -0.5738965183    -2.0334650365    -1.7089976076
    8      C       0.4657922614    -1.1533098641    -2.4894593284
    9      O       1.8342020206    -1.4525855130    -1.9898594198
   10      C       2.3776250301    -0.3222707483    -1.3133272578
   11      C       3.7331882826    -0.7264308747    -0.6486069845
   12      C       4.3594987780     0.4380594544     0.2229172375
   13      C       3.5844787025     1.8070774849     0.1497304831
   14      O       2.8296007490     2.2930387743     1.0186538396
   15      O      -1.5685645007     1.1514939271    -0.0352142029
   16      O       3.9979637079     2.4882889233    -1.0440191935
   17      O       1.8169576923     0.7993545963    -1.2585326227
   18      C       3.2284563511     3.7435516237    -1.1895447540
   19      C       3.4798770838    -1.8319146961     0.4670416944
   20      C       4.8701860604    -2.4262131461     0.9224436786
   21      C       5.4214461819    -1.2606843800     1.8255690799
   22      C       4.2689154524    -0.1941564418     1.6756578124
   23      O       3.0399517884    -1.0223789533     1.6245802948
   24      H       4.4250198886    -1.0831324249    -1.4333263459
   25      H       5.4060703666     0.6208490764    -0.0788526397
   26      H       2.7100214079    -2.5789869140     0.1911386598
   27      H       4.7197837150    -3.3515433537     1.5011025612
   28      H       5.5257484572    -2.6495923450     0.0653656860
   29      H       5.5191166163    -1.5775612448     2.8760239197
   30      H       6.3936872715    -0.8754262524     1.4791202318
   31      H       4.1912325085     0.5542304838     2.4879014392
   32      O      -2.0085947139    -1.6213545354     0.5063659611
   33      C      -0.3204608744     1.3511739400     0.7412042970
   34      C      -5.2240927184     0.6264571281     0.9383756798
   35      C      -6.5453103250     0.6489338914     0.0757150391
   36      C      -6.4418548133    -0.7312255454    -0.6741360759
   37      C      -5.0844291584    -1.2943452863    -0.0924104760
   38      O      -5.0715892175    -0.8029252596     1.3023564356
   39      H      -4.1824980713     1.7093908574    -0.7293224060
   40      H      -4.0424768773    -0.3787240098    -1.8631388503
   41      H      -0.2183108129     0.5796324110     1.5307265779
   42      H      -5.2244180658     1.2581323836     1.8478067180
   43      H      -7.4314521349     0.6876892527     0.7289691678
   44      H      -6.5782162032     1.5069964906    -0.6146536502
   45      H      -7.2783134785    -1.3981640587    -0.4108516363
   46      H      -6.4102932570    -0.6205330586    -1.7697948257
   47      H      -4.9805754666    -2.3965071012    -0.1165302969
   48      H      -0.2938163194     2.3514863629     1.2169727967
   49      H       0.5118709601     1.2546936485     0.0128765188
   50      H       3.6311842489     4.2502432712    -2.0858147874
   51      H       3.3452079052     4.4015544018    -0.3043601553
   52      H       2.1485664725     3.5341736514    -1.3346282352
   53      H       0.4437465525    -1.3767096256    -3.5754529156
   54      H       0.2511442747    -0.0753906861    -2.3215821483
   55      H      -0.5977137906    -3.0672289194    -2.1135698449
   56      H      -0.3273722850    -2.0738577506    -0.6240659328
 ----------------------------------------------------------------

   10   -1510.2928581584      5.71E-09 Convergence criterion met
 Total energy in the final basis set = -1510.29285816
 Final energy is   -1510.29285815838
 **  OPTIMIZATION CONVERGED  **

                    Orbital Energies (a.u.)
 --------------------------------------------------------------

 Alpha MOs
 -- Occupied --
-18.952 -18.929 -18.922 -18.921 -18.900 -18.890 -18.883 -18.872
-18.867 -18.863 -10.119 -10.097 -10.093 -10.089 -10.075 -10.068
-10.065 -10.059 -10.058 -10.056 -10.053 -10.047 -10.036 -10.035
-10.035 -10.032 -10.023 -10.021 -10.018 -10.016  -1.031  -1.010
 -1.001  -0.998  -0.973  -0.966  -0.955  -0.934  -0.927  -0.925
 -0.767  -0.759  -0.730  -0.721  -0.714  -0.704  -0.695  -0.657
 -0.644  -0.619  -0.596  -0.578  -0.548  -0.541  -0.540  -0.534
 -0.516  -0.505  -0.485  -0.471  -0.461  -0.458  -0.455  -0.447
 -0.442  -0.433  -0.427  -0.413  -0.409  -0.403  -0.402  -0.400
 -0.393  -0.382  -0.370  -0.368  -0.360  -0.355  -0.353  -0.348
 -0.340  -0.336  -0.335  -0.331  -0.328  -0.327  -0.323  -0.314
 -0.309  -0.306  -0.304  -0.299  -0.290  -0.280  -0.279  -0.276
 -0.267  -0.261  -0.247  -0.247  -0.241  -0.237  -0.230  -0.195
 -0.174  -0.171  -0.167  -0.164  -0.156  -0.148  -0.144  -0.143
 -0.140

          Ground-State Mulliken Net Atomic Charges

     Atom                 Charge (a.u.)
  ----------------------------------------
      1 O                    -0.208521
      2 C                     0.212048
      3 C                    -0.078615
      4 C                    -0.078835
      5 C                     0.214722
      6 O                    -0.174030
      7 C                    -0.056569
      8 C                    -0.055548
      9 O                    -0.168891
     10 C                     0.223596
     11 C                    -0.077134
     12 C                    -0.081935
     13 C                     0.214854
     14 O                    -0.218287
     15 O                    -0.178278
     16 O                    -0.175436
     17 O                    -0.209445
     18 C                    -0.128477
     19 C                     0.024982
     20 C                    -0.143841
     21 C                    -0.143755
     22 C                     0.024775
     23 O                    -0.188941
     24 H                     0.089393
     25 H                     0.084770
     26 H                     0.086781
     27 H                     0.079577
     28 H                     0.073793
     29 H                     0.079357
     30 H                     0.073802
     31 H                     0.090375
     32 O                    -0.213708
     33 C                    -0.141730
     34 C                     0.024119
     35 C                    -0.144232
     36 C                    -0.143780
     37 C                     0.025756
     38 O                    -0.186395
     39 H                     0.083498
     40 H                     0.085614
     41 H                     0.090016
     42 H                     0.091458
     43 H                     0.077960
     44 H                     0.072709
     45 H                     0.077531
     46 H                     0.072793
     47 H                     0.082503
     48 H                     0.087086
     49 H                     0.105108
     50 H                     0.086579
     51 H                     0.087752
     52 H                     0.090984
     53 H                     0.088504
     54 H                     0.107680
     55 H                     0.082830
     56 H                     0.103079
  ----------------------------------------
  Sum of atomic charges =     0.000000

                    Cartesian Multipole Moments
 -----------------------------------------------------------------
    Charge (ESU x 10^10)
                 0.0000
    Dipole Moment (Debye)
         X       1.7694      Y      -0.6869      Z      -4.0384
       Tot       4.4622
    Quadrupole Moments (Debye-Ang)
        XX    -137.6219     XY      -5.3566     YY    -154.7876
        XZ       9.3415     YZ       0.2387     ZZ    -165.3037

 Total job time:  101.90s(wall), 4854.93s(cpu)
        *  Thank you very much for using Q-Chem.  Have a nice day.  *
