 Q-Chem 5.0, Q-Chem, Inc., Pleasanton, CA (2017)
 Q-Chem 5.0.1 for Intel X86 EM64T Linux

User input:
--------------------------------------------------------------
$molecule
0  1
O -3.94934 -3.66094 2.70899
C -3.26408 -4.56952 2.26188
C -3.36658 -6.02376 2.66595
C -2.29005 -6.56525 3.62079
C -1.33425 -5.54902 4.20544
O -0.41563 -6.17766 4.99687
C 0.54149 -5.28073 5.57017
C 1.6019 -4.91325 4.53739
O 2.55706 -4.01045 5.1166
C 3.52241 -3.56423 4.27509
C 4.74333 -3.05009 5.00012
C 5.90936 -2.63546 4.09086
C 5.57199 -2.45511 2.62445
O 5.83022 -1.46586 1.95418
O -2.27838 -4.27292 1.37408
O 5.42211 -3.62211 1.93391
O 3.33252 -3.60406 3.07144
C 5.29798 -3.71553 0.56217
C 4.50399 -1.75334 5.79217
C 5.53175 -1.64945 6.91653
C 6.79415 -1.38374 6.12084
C 6.20811 -1.25196 4.70877
O 4.91775 -0.73007 4.92062
H 5.05984 -3.86471 5.69106
H 6.77609 -3.33039 4.15152
H 3.47268 -1.66562 6.19821
H 5.27923 -0.73479 7.49978
H 5.58069 -2.51978 7.60577
H 7.22712 -0.41824 6.46481
H 7.56266 -2.18561 6.16606
H 6.88485 -0.63799 4.07491
O -1.36102 -4.3382 4.02007
C -2.00917 -3.00354 0.90705
C -4.62234 -6.29014 3.5318
C -5.00921 -7.76713 3.45815
C -3.90574 -8.38864 4.28574
C -3.1675 -7.12979 4.75019
O -4.17805 -6.15964 4.85958
H -3.47282 -6.61303 1.72759
H -1.66605 -7.33693 3.11678
H -1.73459 -2.33519 1.75101
H -5.4958 -5.66395 3.24535
H -5.97026 -7.8826 4.00915
H -5.12467 -8.17779 2.4321
H -4.36789 -8.91076 5.15302
H -3.23338 -9.08356 3.73738
H -2.59453 -7.34281 5.6792
H -2.89593 -2.59497 0.37689
H -1.15806 -3.05019 0.19721
H 5.18154 -4.78184 0.27968
H 6.2058 -3.31165 0.06534
H 4.40138 -3.15482 0.2215
H 2.11019 -5.8372 4.18085
H 1.10275 -4.4202 3.67528
H 1.05991 -5.81236 6.39611
H 0.05651 -4.38438 6.0209
$end

$opt
CONSTRAINT
tors           1           2           3           4    -102.951
tors           3           4           5           6    -178.183
tors           4           5           6           7    +178.989
tors           5           6           7           8     -78.557
tors           6           7           8           9    +179.833
tors           7           8           9          10    -177.296
tors           8           9          10          11    -159.283
tors           9          10          11          12    +175.423
tors          11          12          13          14    +127.927
ENDCONSTRAINT
$end

$rem
JOBTYPE                   OPT
METHOD                    B3LYP
DFT_D                     d3_op
BASIS                     STO-3G
GEOM_OPT_MAX_CYCLES       100
GEOM_OPT_TOL_GRADIENT     300
GEOM_OPT_TOL_DISPLACEMENT 1200
GEOM_OPT_TOL_ENERGY       100
SYMMETRY                  False
THRESH                    12
SCF_CONVERGENCE           8
MAX_SUB_FILE_NUM          128
MEM_STATIC                400
MEM_TOTAL                 4000
$end
--------------------------------------------------------------

   15   -1510.1455110561      5.83E-09 Convergence criterion met
 Total energy in the final basis set = -1510.14551106
   14   -1510.2160178303      6.23E-09 Convergence criterion met
 Total energy in the final basis set = -1510.21601783
   14   -1510.2521502793      7.15E-09 Convergence criterion met
 Total energy in the final basis set = -1510.25215028
   14   -1510.2678616357      3.68E-09 Convergence criterion met
 Total energy in the final basis set = -1510.26786164
   13   -1510.2745519745      7.35E-09 Convergence criterion met
 Total energy in the final basis set = -1510.27455197
   13   -1510.2770031945      2.91E-09 Convergence criterion met
 Total energy in the final basis set = -1510.27700319
   13   -1510.2784739733      2.87E-09 Convergence criterion met
 Total energy in the final basis set = -1510.27847397
   13   -1510.2794301439      2.37E-09 Convergence criterion met
   11   -1510.2822971112      6.19E-09 Convergence criterion met
 Total energy in the final basis set = -1510.28229711
   10   -1510.2823623950      9.56E-09 Convergence criterion met
 Total energy in the final basis set = -1510.28236240
   10   -1510.2824128395      6.96E-09 Convergence criterion met
 Total energy in the final basis set = -1510.28241284
   10   -1510.2824370078      4.23E-09 Convergence criterion met
 Total energy in the final basis set = -1510.28243701
   10   -1510.2824450089      4.46E-09 Convergence criterion met
 Total energy in the final basis set = -1510.28244501
    9   -1510.2824466634      5.74E-09 Convergence criterion met
 Total energy in the final basis set = -1510.28244666

             Standard Nuclear Orientation (Angstroms)
    I     Atom           X                Y                Z
 ----------------------------------------------------------------
    1      O      -4.3534559639     0.7720709962     2.5730360864
    2      C      -4.1566715074     1.2120405272     1.4209862806
    3      C      -4.9164371873     0.8096709150     0.1012580934
    4      C      -4.1158991132    -0.1713100812    -0.8491788473
    5      C      -2.7410868611    -0.6199630044    -0.2521678444
    6      O      -2.0872536101    -1.4647780588    -1.2062555105
    7      C      -0.7643878027    -1.8970782292    -0.6930538133
    8      C       0.3115991131    -0.7659296260    -0.8508116013
    9      O       1.5742810794    -1.3208436140    -0.3011752829
   10      C       2.6091703671    -0.3318662173    -0.3441872228
   11      C       4.0008231896    -1.0500660579    -0.2762224205
   12      C       5.1935401806    -0.0282945226    -0.4358222021
   13      C       4.7870010509     1.3800156058    -1.0080956627
   14      O       5.0487862935     2.4986713033    -0.5186655834
   15      O      -3.2499541338     2.2757365569     1.0952611036
   16      O       4.2698276548     1.1760276894    -2.3351261644
   17      O       2.4034710108     0.8994035474    -0.4330045671
   18      C       3.8607535435     2.4721701373    -2.9168031826
   19      C       4.2481423979    -1.5412438199     1.2159533185
   20      C       5.5840002944    -2.3847774373     1.2793574360
   21      C       6.6720182798    -1.2469520473     1.2492676948
   22      C       5.7619211498     0.0247433856     1.0438391375
   23      O       4.5870659976    -0.2717983394     1.8994871605
   24      H       4.0280283088    -1.8737864091    -1.0113896296
   25      H       5.9496152512    -0.4458939578    -1.1262591453
   26      H       3.3663539650    -2.0177494564     1.6873749397
   27      H       5.6295142705    -2.9677518446     2.2127080862
   28      H       5.6721322554    -3.0764994625     0.4263024769
   29      H       7.2111907733    -1.1818352437     2.2078707353
   30      H       7.4051664259    -1.3765561581     0.4373811411
   31      H       6.2093501762     0.9990507848     1.3213822112
   32      O      -2.2625990448    -0.3284326458     0.8665299878
   33      C      -2.4541287584     2.6355370286     2.2895498211
   34      C      -6.2011687376    -0.0659100090     0.4218896996
   35      C      -7.1464241004    -0.0406788559    -0.8416937505
   36      C      -6.3563147246    -0.9793920658    -1.8274443573
   37      C      -5.1245001978    -1.3992269486    -0.9305641815
   38      O      -5.6846813840    -1.4556456730     0.4371921841
   39      H      -5.1805337339     1.7357520632    -0.4397073463
   40      H      -3.9385212857     0.2697382235    -1.8466429651
   41      H      -1.8274287080     1.7833107413     2.6236694150
   42      H      -6.6813183265     0.1745816056     1.3899747202
   43      H      -8.1351576664    -0.4578334135    -0.5928611099
   44      H      -7.2816277656     0.9777736216    -1.2396369006
   45      H      -6.9481809886    -1.8661942293    -2.1049225290
   46      H      -6.0410422586    -0.4626467785    -2.7479655174
   47      H      -4.6469051350    -2.3606168983    -1.2026738644
   48      H      -3.1004989098     2.9512952013     3.1338886367
   49      H      -1.8039323884     3.4763113285     1.9851472354
   50      H       3.5660504915     2.2626572761    -3.9617200215
   51      H       4.6894264647     3.2094097754    -2.9038797253
   52      H       2.9975213313     2.9024960484    -2.3681821979
   53      H       0.4369591540    -0.4916694858    -1.9207818396
   54      H      -0.0047497558     0.1398384880    -0.2890383740
   55      H      -0.4800404347    -2.7815358649    -1.2973883820
   56      H      -0.8320728854    -2.1857133037     0.3776923994
 ----------------------------------------------------------------

    9   -1510.2824465760      1.87E-09 Convergence criterion met
 Total energy in the final basis set = -1510.28244658
 Final energy is   -1510.28244657597
 **  OPTIMIZATION CONVERGED  **

                    Orbital Energies (a.u.)
 --------------------------------------------------------------

 Alpha MOs
 -- Occupied --
-18.946 -18.939 -18.918 -18.918 -18.891 -18.890 -18.888 -18.886
-18.863 -18.860 -10.111 -10.108 -10.091 -10.089 -10.082 -10.079
-10.062 -10.061 -10.057 -10.056 -10.055 -10.052 -10.043 -10.041
-10.033 -10.033 -10.022 -10.021 -10.020 -10.019  -1.025  -1.019
 -0.998  -0.996  -0.971  -0.970  -0.950  -0.944  -0.925  -0.923
 -0.765  -0.763  -0.731  -0.723  -0.715  -0.705  -0.697  -0.655
 -0.653  -0.621  -0.597  -0.583  -0.546  -0.545  -0.537  -0.537
 -0.517  -0.509  -0.486  -0.475  -0.460  -0.456  -0.454  -0.452
 -0.439  -0.432  -0.430  -0.409  -0.406  -0.403  -0.402  -0.400
 -0.398  -0.384  -0.376  -0.366  -0.363  -0.356  -0.350  -0.346
 -0.342  -0.341  -0.337  -0.332  -0.332  -0.326  -0.324  -0.315
 -0.311  -0.307  -0.305  -0.302  -0.299  -0.280  -0.277  -0.275
 -0.275  -0.260  -0.255  -0.245  -0.243  -0.235  -0.234  -0.190
 -0.184  -0.165  -0.164  -0.163  -0.161  -0.145  -0.145  -0.142
 -0.140

          Ground-State Mulliken Net Atomic Charges

     Atom                 Charge (a.u.)
  ----------------------------------------
      1 O                    -0.215461
      2 C                     0.215260
      3 C                    -0.081533
      4 C                    -0.077841
      5 C                     0.214754
      6 O                    -0.171400
      7 C                    -0.047799
      8 C                    -0.049780
      9 O                    -0.175819
     10 C                     0.219143
     11 C                    -0.076893
     12 C                    -0.081213
     13 C                     0.216782
     14 O                    -0.216741
     15 O                    -0.176628
     16 O                    -0.179338
     17 O                    -0.201077
     18 C                    -0.128924
     19 C                     0.024675
     20 C                    -0.144670
     21 C                    -0.142747
     22 C                     0.023511
     23 O                    -0.190446
     24 H                     0.087131
     25 H                     0.083140
     26 H                     0.085249
     27 H                     0.078509
     28 H                     0.073155
     29 H                     0.078362
     30 H                     0.073161
     31 H                     0.091525
     32 O                    -0.204765
     33 C                    -0.128772
     34 C                     0.025001
     35 C                    -0.143989
     36 C                    -0.143810
     37 C                     0.025118
     38 O                    -0.188722
     39 H                     0.083809
     40 H                     0.087167
     41 H                     0.092614
     42 H                     0.089340
     43 H                     0.078261
     44 H                     0.073457
     45 H                     0.078332
     46 H                     0.073381
     47 H                     0.085248
     48 H                     0.086651
     49 H                     0.087286
     50 H                     0.085030
     51 H                     0.087853
     52 H                     0.090066
     53 H                     0.085880
     54 H                     0.097644
     55 H                     0.092898
     56 H                     0.098974
  ----------------------------------------
  Sum of atomic charges =    -0.000000

                    Cartesian Multipole Moments
 -----------------------------------------------------------------
    Charge (ESU x 10^10)
                 0.0000
    Dipole Moment (Debye)
         X       0.2194      Y      -1.5382      Z      -3.8532
       Tot       4.1547
    Quadrupole Moments (Debye-Ang)
        XX    -149.7753     XY     -16.0601     YY    -158.4289
        XZ       7.7350     YZ       0.1496     ZZ    -161.3548

 Total job time:  54.94s(wall), 2608.67s(cpu)
        *  Thank you very much for using Q-Chem.  Have a nice day.  *
