 Q-Chem 5.0, Q-Chem, Inc., Pleasanton, CA (2017)
 Q-Chem 5.0.1 for Intel X86 EM64T Linux

User input:
--------------------------------------------------------------
$molecule
0  1
O -3.94934 -3.66094 2.70899
C -3.26408 -4.56952 2.26188
C -3.36658 -6.02376 2.66595
C -2.63583 -6.44942 3.94995
C -2.03236 -5.33962 4.78197
O -1.09702 -5.85439 5.63378
C -0.46229 -4.85782 6.44199
C 0.50261 -4.03228 5.59726
O 1.13351 -3.03179 6.41204
C 1.65762 -1.97733 5.73931
C 2.36957 -0.99838 6.64232
C 3.07807 0.15458 5.91638
C 2.68432 0.36478 4.46812
O 1.9222 1.22871 4.05901
O -2.41917 -4.30044 1.23205
O 3.35981 -0.38762 3.55629
O 1.60602 -1.92743 4.51911
C 3.18917 -0.29421 2.19051
C 1.42648 -0.23721 7.58861
C 2.21076 0.24888 8.80541
C 3.06303 1.33136 8.17562
C 2.50213 1.32628 6.74773
O 1.15258 0.96222 6.91191
H 3.09854 -1.59627 7.23547
H 4.1886 0.13605 5.97773
H 0.54378 -0.83315 7.90814
H 1.47834 0.72771 9.4944
H 2.77242 -0.53602 9.35627
H 2.83672 2.29458 8.68464
H 4.15822 1.14185 8.18535
H 2.68407 2.31279 6.26633
O -2.59604 -4.269 4.98037
C -2.21515 -3.04358 0.70213
C -4.81357 -6.41647 3.01309
C -4.99146 -7.93107 2.90187
C -4.24408 -8.39277 4.13475
C -3.82665 -7.04494 4.72921
O -4.89597 -6.19201 4.39806
H -3.01539 -6.62425 1.79599
H -1.85187 -7.21926 3.76597
H -1.81788 -2.35993 1.48285
H -5.56752 -5.89396 2.38391
H -6.07257 -8.16019 3.03777
H -4.6391 -8.36448 1.94114
H -4.96814 -8.8905 4.81802
H -3.38039 -9.06612 3.94533
H -3.61116 -7.15654 5.8152
H -3.16723 -2.63906 0.29689
H -1.47623 -3.11192 -0.12237
H 3.86007 -1.0218 1.68961
H 3.44561 0.72875 1.84129
H 2.13809 -0.53141 1.91933
H 1.27033 -4.67779 5.11713
H -0.1117 -3.54885 4.80504
H 0.1392 -5.37593 7.21851
H -1.20363 -4.22191 6.97743
$end

$opt
CONSTRAINT
tors           1           2           3           4     -82.257
tors           3           4           5           6    -161.683
tors           4           5           6           7    +178.989
tors           5           6           7           8     -73.041
tors           6           7           8           9    +179.833
tors           7           8           9          10    -159.221
tors           8           9          10          11    -176.951
tors           9          10          11          12    +175.286
tors          11          12          13          14    +101.672
ENDCONSTRAINT
$end

$rem
JOBTYPE                   OPT
METHOD                    B3LYP
DFT_D                     d3_op
BASIS                     STO-3G
GEOM_OPT_MAX_CYCLES       100
GEOM_OPT_TOL_GRADIENT     300
GEOM_OPT_TOL_DISPLACEMENT 1200
GEOM_OPT_TOL_ENERGY       100
SYMMETRY                  False
THRESH                    12
SCF_CONVERGENCE           8
MAX_SUB_FILE_NUM          128
MEM_STATIC                400
MEM_TOTAL                 4000
$end
--------------------------------------------------------------

   15   -1510.1469349780      5.98E-09 Convergence criterion met
 Total energy in the final basis set = -1510.14693498
   14   -1510.2171669902      7.09E-09 Convergence criterion met
 Total energy in the final basis set = -1510.21716699
   14   -1510.2547190765      6.85E-09 Convergence criterion met
 Total energy in the final basis set = -1510.25471908
   14   -1510.2712941557      2.88E-09 Convergence criterion met
 Total energy in the final basis set = -1510.27129416
   13   -1510.2774220908      9.66E-09 Convergence criterion met
 Total energy in the final basis set = -1510.27742209
   13   -1510.2801179817      9.00E-09 Convergence criterion met
 Total energy in the final basis set = -1510.28011798
   13   -1510.2816339093      4.02E-09 Convergence criterion met
 Total energy in the final basis set = -1510.28163391
   12   -1510.2824188600      9.73E-09 Convergence criterion met
   11   -1510.2841467708      4.69E-09 Convergence criterion met
 Total energy in the final basis set = -1510.28414677
   10   -1510.2841727330      6.53E-09 Convergence criterion met
 Total energy in the final basis set = -1510.28417273
   10   -1510.2841894159      8.27E-09 Convergence criterion met
 Total energy in the final basis set = -1510.28418942
    9   -1510.2842017408      8.96E-09 Convergence criterion met
 Total energy in the final basis set = -1510.28420174
    9   -1510.2842078875      8.20E-09 Convergence criterion met
 Total energy in the final basis set = -1510.28420789
    9   -1510.2842114130      5.82E-09 Convergence criterion met
 Total energy in the final basis set = -1510.28421141

             Standard Nuclear Orientation (Angstroms)
    I     Atom           X                Y                Z
 ----------------------------------------------------------------
    1      O      -3.6937046457     1.0362627983     2.3591077200
    2      C      -3.7224406478     1.3953603604     1.1634370994
    3      C      -4.6510697582     0.8417217680     0.0175098093
    4      C      -4.1264168861    -0.4983087513    -0.6454811615
    5      C      -2.6546699356    -0.8655441437    -0.2687447276
    6      O      -2.1722407591    -1.8113578778    -1.2339526340
    7      C      -0.7648697699    -2.1787339354    -0.9381721586
    8      C       0.2269709010    -1.0142375064    -1.2916080323
    9      O       1.5897004454    -1.4953261594    -0.9512438342
   10      C       2.4764819397    -0.3858802007    -0.7791930937
   11      C       3.9106604292    -0.9438377084    -0.5004325875
   12      C       5.0156470009     0.1859259691    -0.4076896864
   13      C       4.4699553738     1.6489149533    -0.6149911342
   14      O       4.2341861150     2.5027373508     0.2651915557
   15      O      -2.8772607261     2.4059444887     0.5973344078
   16      O       4.3977265856     1.8919447984    -2.0285649056
   17      O       2.1212181218     0.8122076849    -0.8416654599
   18      C       3.8117470091     3.2276987688    -2.2751560499
   19      C       4.0076852743    -1.5832213291     0.9549920129
   20      C       5.3276513468    -2.4474294394     1.0322122289
   21      C       6.4224225868    -1.3205267785     1.1277901938
   22      C       5.5275212066    -0.0207998578     1.0787025611
   23      O       4.3021217004    -0.4154823240     1.8136013876
   24      H       4.1492070757    -1.6898906512    -1.2797494767
   25      H       5.8139540420     0.0076752227    -1.1497707251
   26      H       3.0844305142    -2.0959229746     1.2884751263
   27      H       5.3184037806    -3.0803114834     1.9337642499
   28      H       5.4548856808    -3.0927254850     0.1482445682
   29      H       6.9727662069    -1.3738893722     2.0805552661
   30      H       7.1467482671    -1.3585288137     0.2984378986
   31      H       5.9707983626     0.8857348878     1.5339758876
   32      O      -1.9637319240    -0.4248527135     0.6756727198
   33      C      -1.8950377128     2.8581251933     1.6086989105
   34      C      -6.0061008676     0.3240292512     0.6632550673
   35      C      -7.0478922217     0.0003146270    -0.4795463708
   36      C      -6.4996813687    -1.3744450227    -1.0168603666
   37      C      -5.2085800998    -1.5484080606    -0.1255391763
   38      O      -5.6258767552    -1.0107324514     1.1857973294
   39      H      -4.8054640760     1.6306694232    -0.7388874207
   40      H      -4.1704189652    -0.4322388355    -1.7476331894
   41      H      -1.2492683861     2.0195618895     1.9408533773
   42      H      -6.3870837116     0.9603106425     1.4849681207
   43      H      -8.0610455087    -0.1042419630    -0.0601797930
   44      H      -7.0669135683     0.7821823215    -1.2559563971
   45      H      -7.2093128167    -2.1946572739    -0.8231841992
   46      H      -6.2677317002    -1.3535034880    -2.0935544759
   47      H      -4.8353400604    -2.5862572154    -0.0263942470
   48      H      -2.3931162182     3.2948255349     2.4984300392
   49      H      -1.2770089432     3.6296572430     1.1137521737
   50      H       3.8287782815     3.3747468857    -3.3708010743
   51      H       4.3967671122     4.0311081651    -1.7825166167
   52      H       2.7653908509     3.2778405130    -1.9095483275
   53      H       0.1638850663    -0.7647987227    -2.3733237350
   54      H      -0.0229526032    -0.1059799389    -0.7036610177
   55      H      -0.5510518510    -3.0691223372    -1.5626100723
   56      H      -0.6419125477    -2.4437704346     0.1340126835
 ----------------------------------------------------------------

    9   -1510.2842116162      2.25E-09 Convergence criterion met
 Total energy in the final basis set = -1510.28421162
 Final energy is   -1510.28421161616
 **  OPTIMIZATION CONVERGED  **

                    Orbital Energies (a.u.)
 --------------------------------------------------------------

 Alpha MOs
 -- Occupied --
-18.943 -18.941 -18.920 -18.918 -18.889 -18.888 -18.888 -18.887
-18.861 -18.859 -10.108 -10.107 -10.088 -10.088 -10.081 -10.076
-10.063 -10.061 -10.058 -10.056 -10.053 -10.051 -10.041 -10.041
-10.034 -10.032 -10.022 -10.020 -10.020 -10.019  -1.023  -1.019
 -0.997  -0.996  -0.971  -0.969  -0.948  -0.943  -0.922  -0.922
 -0.764  -0.762  -0.730  -0.722  -0.715  -0.705  -0.697  -0.654
 -0.652  -0.621  -0.596  -0.582  -0.546  -0.545  -0.537  -0.537
 -0.516  -0.510  -0.481  -0.475  -0.460  -0.455  -0.452  -0.451
 -0.439  -0.432  -0.429  -0.409  -0.406  -0.402  -0.401  -0.399
 -0.395  -0.384  -0.377  -0.364  -0.361  -0.355  -0.349  -0.346
 -0.342  -0.338  -0.336  -0.331  -0.330  -0.328  -0.325  -0.314
 -0.312  -0.305  -0.304  -0.302  -0.297  -0.278  -0.275  -0.275
 -0.274  -0.260  -0.256  -0.243  -0.243  -0.234  -0.233  -0.188
 -0.185  -0.167  -0.163  -0.161  -0.158  -0.145  -0.144  -0.140
 -0.139

          Ground-State Mulliken Net Atomic Charges

     Atom                 Charge (a.u.)
  ----------------------------------------
      1 O                    -0.209759
      2 C                     0.212760
      3 C                    -0.080556
      4 C                    -0.079488
      5 C                     0.210982
      6 O                    -0.171567
      7 C                    -0.048051
      8 C                    -0.053208
      9 O                    -0.173960
     10 C                     0.215716
     11 C                    -0.078147
     12 C                    -0.081380
     13 C                     0.215521
     14 O                    -0.215501
     15 O                    -0.175198
     16 O                    -0.176628
     17 O                    -0.204911
     18 C                    -0.128582
     19 C                     0.025375
     20 C                    -0.143610
     21 C                    -0.144257
     22 C                     0.025365
     23 O                    -0.187593
     24 H                     0.086505
     25 H                     0.083604
     26 H                     0.085239
     27 H                     0.078457
     28 H                     0.073167
     29 H                     0.078203
     30 H                     0.073117
     31 H                     0.088673
     32 O                    -0.206664
     33 C                    -0.129029
     34 C                     0.026342
     35 C                    -0.145107
     36 C                    -0.142629
     37 C                     0.026308
     38 O                    -0.184611
     39 H                     0.084638
     40 H                     0.086387
     41 H                     0.094695
     42 H                     0.086159
     43 H                     0.078402
     44 H                     0.073534
     45 H                     0.078427
     46 H                     0.073687
     47 H                     0.084235
     48 H                     0.086638
     49 H                     0.088346
     50 H                     0.085286
     51 H                     0.086576
     52 H                     0.091887
     53 H                     0.084635
     54 H                     0.103840
     55 H                     0.092467
     56 H                     0.095265
  ----------------------------------------
  Sum of atomic charges =     0.000000

                    Cartesian Multipole Moments
 -----------------------------------------------------------------
    Charge (ESU x 10^10)
                 0.0000
    Dipole Moment (Debye)
         X       0.2286      Y      -1.6877      Z      -4.0224
       Tot       4.3681
    Quadrupole Moments (Debye-Ang)
        XX    -142.5725     XY      -9.2120     YY    -153.8363
        XZ       6.9498     YZ      -0.6777     ZZ    -165.6112

 Total job time:  54.34s(wall), 2584.04s(cpu)
        *  Thank you very much for using Q-Chem.  Have a nice day.  *
