 Q-Chem 5.0, Q-Chem, Inc., Pleasanton, CA (2017)
 Q-Chem 5.0.1 for Intel X86 EM64T Linux

User input:
--------------------------------------------------------------
$molecule
0  1
O -3.6937046457 1.0362627983 2.35910772
C -3.7224406478 1.3953603604 1.1634370994
C -4.6510697582 0.841721768 0.0175098093
C -4.1264168861 -0.4983087513 -0.6454811615
C -2.6546699356 -0.8655441437 -0.2687447276
O -2.1722407591 -1.8113578778 -1.233952634
C -0.7648697699 -2.1787339354 -0.9381721586
C 0.226970901 -1.0142375064 -1.2916080323
O 1.5897004454 -1.4953261594 -0.9512438342
C 2.4764819397 -0.3858802007 -0.7791930937
C 3.9106604292 -0.9438377084 -0.5004325875
C 5.0156470009 0.1859259691 -0.4076896864
C 4.4699553738 1.6489149533 -0.6149911342
O 4.234186115 2.5027373508 0.2651915557
O -2.8772607261 2.4059444887 0.5973344078
O 4.3977265856 1.8919447984 -2.0285649056
O 2.1212181218 0.8122076849 -0.8416654599
C 3.8117470091 3.2276987688 -2.2751560499
C 4.0076852743 -1.5832213291 0.9549920129
C 5.3276513468 -2.4474294394 1.0322122289
C 6.4224225868 -1.3205267785 1.1277901938
C 5.5275212066 -0.0207998578 1.0787025611
O 4.3021217004 -0.415482324 1.8136013876
H 4.1492070757 -1.6898906512 -1.2797494767
H 5.813954042 0.0076752227 -1.1497707251
H 3.0844305142 -2.0959229746 1.2884751263
H 5.3184037806 -3.0803114834 1.9337642499
H 5.4548856808 -3.092725485 0.1482445682
H 6.9727662069 -1.3738893722 2.0805552661
H 7.1467482671 -1.3585288137 0.2984378986
H 5.9707983626 0.8857348878 1.5339758876
O -1.963731924 -0.4248527135 0.6756727198
C -1.8950377128 2.8581251933 1.6086989105
C -6.0061008676 0.3240292512 0.6632550673
C -7.0478922217 0.000314627 -0.4795463708
C -6.4996813687 -1.3744450227 -1.0168603666
C -5.2085800998 -1.5484080606 -0.1255391763
O -5.6258767552 -1.0107324514 1.1857973294
H -4.805464076 1.6306694232 -0.7388874207
H -4.1704189652 -0.4322388355 -1.7476331894
H -1.2492683861 2.0195618895 1.9408533773
H -6.3870837116 0.9603106425 1.4849681207
H -8.0610455087 -0.104241963 -0.060179793
H -7.0669135683 0.7821823215 -1.2559563971
H -7.2093128167 -2.1946572739 -0.8231841992
H -6.2677317002 -1.353503488 -2.0935544759
H -4.8353400604 -2.5862572154 -0.026394247
H -2.3931162182 3.2948255349 2.4984300392
H -1.2770089432 3.629657243 1.1137521737
H 3.8287782815 3.3747468857 -3.3708010743
H 4.3967671122 4.0311081651 -1.7825166167
H 2.7653908509 3.277840513 -1.9095483275
H 0.1638850663 -0.7647987227 -2.373323735
H -0.0229526032 -0.1059799389 -0.7036610177
H -0.551051851 -3.0691223372 -1.5626100723
H -0.6419125477 -2.4437704346 0.1340126835
$end

$rem
JOBTYPE                   OPT
METHOD                    B3LYP
DFT_D                     d3_op
BASIS                     STO-3G
GEOM_OPT_MAX_CYCLES       100
GEOM_OPT_TOL_GRADIENT     300
GEOM_OPT_TOL_DISPLACEMENT 1200
GEOM_OPT_TOL_ENERGY       100
SYMMETRY                  False
THRESH                    12
SCF_CONVERGENCE           8
MAX_SUB_FILE_NUM          128
MEM_STATIC                400
MEM_TOTAL                 4000
$end
--------------------------------------------------------------

   15   -1510.2841521243      9.78E-09 Convergence criterion met
 Total energy in the final basis set = -1510.28415212
   13   -1510.2852564961      4.93E-09 Convergence criterion met
 Total energy in the final basis set = -1510.28525650
   13   -1510.2860209034      3.44E-09 Convergence criterion met
 Total energy in the final basis set = -1510.28602090
   13   -1510.2866016185      8.26E-09 Convergence criterion met
 Total energy in the final basis set = -1510.28660162
   13   -1510.2870636538      3.95E-09 Convergence criterion met
 Total energy in the final basis set = -1510.28706365
   13   -1510.2872815350      3.59E-09 Convergence criterion met
 Total energy in the final basis set = -1510.28728153
   13   -1510.2877456607      9.00E-09 Convergence criterion met
 Total energy in the final basis set = -1510.28774566
   14   -1510.2881967362      1.59E-09 Convergence criterion met
   12   -1510.3008947496      2.97E-09 Convergence criterion met
 Total energy in the final basis set = -1510.30089475
    9   -1510.3008954679      8.91E-09 Convergence criterion met
 Total energy in the final basis set = -1510.30089547
   10   -1510.3008963332      7.48E-09 Convergence criterion met
 Total energy in the final basis set = -1510.30089633
    9   -1510.3008962418      5.89E-09 Convergence criterion met
 Total energy in the final basis set = -1510.30089624
    9   -1510.3008974829      5.57E-09 Convergence criterion met
 Total energy in the final basis set = -1510.30089748
    9   -1510.3008989078      3.39E-09 Convergence criterion met
 Total energy in the final basis set = -1510.30089891

             Standard Nuclear Orientation (Angstroms)
    I     Atom           X                Y                Z
 ----------------------------------------------------------------
    1      O      -1.1113373121     0.5836732287     2.1427634397
    2      C      -1.7025587701     0.9116888678     1.0915206496
    3      C      -3.1505208019     0.4773072246     0.6478246690
    4      C      -3.2281312201    -0.3924790634    -0.6689627545
    5      C      -1.8408525918    -0.9158794630    -1.1670341138
    6      O      -1.9852837212    -1.2769247095    -2.5448420566
    7      C      -0.8040654728    -2.0185928145    -3.0463299790
    8      C       0.4940974567    -1.1439406167    -3.2441485601
    9      O       1.4690595238    -1.4650186219    -2.1768195273
   10      C       1.7853610310    -0.2952003842    -1.4132349746
   11      C       2.6685490585    -0.7357938012    -0.2046309156
   12      C       3.7058711875     0.3616629521     0.2765131518
   13      C       3.5792421029     1.7224286336    -0.5011651467
   14      O       3.1420547850     2.8093866319    -0.0690752264
   15      O      -1.2220261867     1.8343667371     0.1181438726
   16      O       4.1251365974     1.5302436244    -1.8135151912
   17      O       1.3940470783     0.8578423102    -1.7022726918
   18      C       3.9205558410     2.7507452803    -2.6246709917
   19      C       1.7846855319    -0.9213345139     1.1115489093
   20      C       2.6132247393    -1.7879918551     2.1330232902
   21      C       3.7062820857    -0.7517565950     2.5978119697
   22      C       3.2795711789     0.5353536451     1.7898203088
   23      O       1.8027347458     0.4211247643     1.7334214154
   24      H       3.1699395354    -1.6813491604    -0.4752733991
   25      H       4.7416944044    -0.0082443969     0.1718216649
   26      H       0.7396101922    -1.2346838448     0.9088032764
   27      H       1.9731957500    -2.1013095802     2.9731647613
   28      H       3.0474232728    -2.6849343759     1.6632240669
   29      H       3.6479760716    -0.5627199221     3.6813694149
   30      H       4.7300467902    -1.0748759357     2.3494348255
   31      H       3.5708645561     1.5062813816     2.2347450283
   32      O      -0.7958327119    -1.0777833187    -0.5005423930
   33      C       0.0801895533     2.4149098186     0.5360017229
   34      C      -3.8405006460    -0.4891677755     1.6987847983
   35      C      -5.4015023535    -0.3982722209     1.4910231766
   36      C      -5.5634111109    -1.1633738939     0.1244781577
   37      C      -4.0780550939    -1.6336627006    -0.1448860205
   38      O      -3.5180378898    -1.8509601161     1.2066479693
   39      H      -3.7431830928     1.4007777941     0.5156943782
   40      H      -3.7305990321     0.1345167917    -1.4990812770
   41      H       0.5359384342     2.8359636193    -0.3777385341
   42      H      -3.4758244661    -0.3593249133     2.7362426723
   43      H      -5.9303252290    -0.9173098711     2.3064757850
   44      H      -5.7582924443     0.6429224887     1.4432662833
   45      H      -6.2311888033    -2.0341668622     0.2214822868
   46      H      -5.9428865897    -0.5164791415    -0.6828643892
   47      H      -3.9796275520    -2.5470068418    -0.7636552285
   48      H       0.7605312898     1.6455136070     0.9825613097
   49      H      -0.0874169601     3.2289476779     1.2704548603
   50      H       4.4066092909     2.5578702185    -3.5987625637
   51      H       4.3784657454     3.6422353662    -2.1495322407
   52      H       2.8398431378     2.9479623524    -2.7809133001
   53      H       0.9621274105    -1.3880398108    -4.2207506380
   54      H       0.2627606070    -0.0559558729    -3.2068461460
   55      H      -1.1315607680    -2.4267942925    -4.0234852910
   56      H      -0.5519948077    -2.8627762953    -2.3671549592
 ----------------------------------------------------------------

    9   -1510.3008997230      2.07E-09 Convergence criterion met
 Total energy in the final basis set = -1510.30089972
 Final energy is   -1510.30089972302
 **  OPTIMIZATION CONVERGED  **

                    Orbital Energies (a.u.)
 --------------------------------------------------------------

 Alpha MOs
 -- Occupied --
-18.939 -18.933 -18.924 -18.903 -18.898 -18.884 -18.883 -18.878
-18.867 -18.849 -10.106 -10.102 -10.093 -10.078 -10.077 -10.071
-10.059 -10.058 -10.057 -10.052 -10.051 -10.036 -10.036 -10.034
-10.025 -10.018 -10.018 -10.016 -10.015 -10.009  -1.020  -1.011
 -1.001  -0.983  -0.972  -0.966  -0.944  -0.937  -0.928  -0.910
 -0.762  -0.758  -0.726  -0.719  -0.711  -0.701  -0.694  -0.656
 -0.632  -0.618  -0.592  -0.577  -0.544  -0.539  -0.534  -0.531
 -0.511  -0.504  -0.481  -0.464  -0.459  -0.449  -0.449  -0.444
 -0.436  -0.428  -0.425  -0.412  -0.406  -0.400  -0.397  -0.390
 -0.378  -0.375  -0.374  -0.361  -0.354  -0.353  -0.349  -0.345
 -0.341  -0.334  -0.329  -0.328  -0.325  -0.321  -0.317  -0.307
 -0.305  -0.302  -0.297  -0.295  -0.294  -0.279  -0.272  -0.268
 -0.265  -0.257  -0.249  -0.246  -0.239  -0.230  -0.216  -0.190
 -0.172  -0.168  -0.160  -0.157  -0.153  -0.146  -0.141  -0.139
 -0.129

          Ground-State Mulliken Net Atomic Charges

     Atom                 Charge (a.u.)
  ----------------------------------------
      1 O                    -0.215980
      2 C                     0.209930
      3 C                    -0.081162
      4 C                    -0.077091
      5 C                     0.219308
      6 O                    -0.172322
      7 C                    -0.050414
      8 C                    -0.056900
      9 O                    -0.171480
     10 C                     0.221547
     11 C                    -0.079205
     12 C                    -0.080728
     13 C                     0.214515
     14 O                    -0.212342
     15 O                    -0.181243
     16 O                    -0.175582
     17 O                    -0.214195
     18 C                    -0.128858
     19 C                     0.023124
     20 C                    -0.142515
     21 C                    -0.143672
     22 C                     0.027026
     23 O                    -0.178496
     24 H                     0.087376
     25 H                     0.084931
     26 H                     0.111901
     27 H                     0.082505
     28 H                     0.073536
     29 H                     0.079780
     30 H                     0.072836
     31 H                     0.090277
     32 O                    -0.213637
     33 C                    -0.151429
     34 C                     0.023664
     35 C                    -0.143286
     36 C                    -0.144120
     37 C                     0.024794
     38 O                    -0.190934
     39 H                     0.082304
     40 H                     0.087741
     41 H                     0.085683
     42 H                     0.090691
     43 H                     0.077085
     44 H                     0.073417
     45 H                     0.077151
     46 H                     0.073510
     47 H                     0.080442
     48 H                     0.119099
     49 H                     0.068813
     50 H                     0.086929
     51 H                     0.087975
     52 H                     0.092243
     53 H                     0.085212
     54 H                     0.105729
     55 H                     0.090343
     56 H                     0.094173
  ----------------------------------------
  Sum of atomic charges =     0.000000

                    Cartesian Multipole Moments
 -----------------------------------------------------------------
    Charge (ESU x 10^10)
                -0.0000
    Dipole Moment (Debye)
         X       0.1604      Y      -1.5891      Z      -2.5888
       Tot       3.0418
    Quadrupole Moments (Debye-Ang)
        XX    -140.4202     XY      -2.5302     YY    -160.3957
        XZ       2.1905     YZ       1.7583     ZZ    -153.8226

 Total job time:  170.14s(wall), 8118.95s(cpu)
        *  Thank you very much for using Q-Chem.  Have a nice day.  *
