 Q-Chem 5.0, Q-Chem, Inc., Pleasanton, CA (2017)
 Q-Chem 5.0.1 for Intel X86 EM64T Linux

User input:
--------------------------------------------------------------
$molecule
0  1
O -3.669607741 0.8943017716 2.5384554802
C -3.5758485751 1.2258015664 1.3385149647
C -4.574007026 0.8942825015 0.1672920994
C -4.1511036706 -0.3758318514 -0.6856795258
C -2.7558085865 -0.9532957848 -0.2848176555
O -2.1688487652 -1.5734661867 -1.437760485
C -0.8320941583 -2.1171841742 -1.0877289262
C 0.2410858142 -0.9778005073 -1.187070925
O 1.5626789789 -1.5490683009 -0.828594675
C 2.4316105222 -0.5020216871 -0.368071599
C 3.9131831246 -1.0131766004 -0.4141059713
C 4.9453428244 0.1781400182 -0.5236474659
C 4.3476879704 1.5476841599 -1.0056575354
O 4.6785349968 2.6898123929 -0.6233232746
O -2.4862327073 1.9740281993 0.7812250912
O 3.5036246928 1.2925667164 -2.1394964481
O 2.0362749946 0.6166322385 0.0276456028
C 2.917135359 2.5592883497 -2.6291368818
C 4.2922342671 -1.5695051714 1.0294115794
C 5.7390657193 -2.2057491686 0.9884092373
C 6.6465950605 -0.9195003043 1.0237256458
C 5.5523197571 0.2133641386 0.9411825227
O 4.4673658271 -0.3170198423 1.8010162093
H 4.0260890253 -1.7661053082 -1.2128055592
H 5.7335834254 -0.0873013058 -1.2535710998
H 3.5119868414 -2.2057479059 1.4910526077
H 5.9046519675 -2.8455721767 1.8696663689
H 5.8947265969 -2.8104947912 0.0803021555
H 7.2027449653 -0.8465751295 1.9720312674
H 7.3627564831 -0.8761607134 0.1876941777
H 5.8641761368 1.2213394831 1.2780649912
O -2.2019076395 -0.9098035818 0.8357511776
C -1.4338914413 2.1670301445 1.8049042424
C -5.961532511 0.4026987847 0.7567483272
C -7.0314978913 0.3865332376 -0.4060804609
C -6.6057625806 -0.9056225121 -1.1965903195
C -5.3513694574 -1.3729435919 -0.3584087194
O -5.718373814 -1.0340505971 1.0320851488
H -4.6799457849 1.7840344088 -0.478580694
H -4.1213487381 -0.1447178524 -1.7651512857
H -1.0560140881 1.1922981831 2.1759692768
H -6.268580454 0.9227833561 1.6843268961
H -8.0492858443 0.2929216675 0.0046540828
H -6.9813880281 1.2976893135 -1.0231707124
H -7.3934403934 -1.6756135477 -1.16692594
H -6.3522443773 -0.7006780817 -2.2489534425
H -5.0966181491 -2.4470410816 -0.4469794636
H -1.8041166137 2.7560107289 2.6687530491
H -0.6144810007 2.7158530301 1.3051296681
H 2.3631056956 2.3052316112 -3.5515616426
H 3.6989975618 3.3118368884 -2.8576063444
H 2.2169089187 2.9912828424 -1.8848582237
H 0.2752196958 -0.5769882105 -2.223832592
H -0.0156242629 -0.1466078924 -0.4953132256
H -0.6193102784 -2.9181914569 -1.8234122857
H -0.8329251836 -2.5379556594 -0.0600427199
$end

$rem
JOBTYPE                   OPT
METHOD                    B3LYP
DFT_D                     d3_op
BASIS                     STO-3G
GEOM_OPT_MAX_CYCLES       100
GEOM_OPT_TOL_GRADIENT     300
GEOM_OPT_TOL_DISPLACEMENT 1200
GEOM_OPT_TOL_ENERGY       100
SYMMETRY                  False
THRESH                    12
SCF_CONVERGENCE           8
MAX_SUB_FILE_NUM          128
MEM_STATIC                400
MEM_TOTAL                 4000
$end
--------------------------------------------------------------

   16   -1510.2805729222      6.35E-09 Convergence criterion met
 Total energy in the final basis set = -1510.28057292
   13   -1510.2832203474      6.94E-09 Convergence criterion met
 Total energy in the final basis set = -1510.28322035
   13   -1510.2850027787      7.29E-09 Convergence criterion met
 Total energy in the final basis set = -1510.28500278
   14   -1510.2864977484      2.23E-09 Convergence criterion met
 Total energy in the final basis set = -1510.28649775
   13   -1510.2875755172      4.11E-09 Convergence criterion met
 Total energy in the final basis set = -1510.28757552
   13   -1510.2887500546      3.26E-09 Convergence criterion met
 Total energy in the final basis set = -1510.28875005
   13   -1510.2888212215      8.86E-09 Convergence criterion met
 Total energy in the final basis set = -1510.28882122
   13   -1510.2897896626      3.43E-09 Convergence criterion met
   10   -1510.3008753651      6.28E-09 Convergence criterion met
 Total energy in the final basis set = -1510.30087537
   11   -1510.3008772414      4.18E-09 Convergence criterion met
 Total energy in the final basis set = -1510.30087724
    9   -1510.3008848149      9.85E-09 Convergence criterion met
 Total energy in the final basis set = -1510.30088481
   11   -1510.3008773532      6.14E-09 Convergence criterion met
 Total energy in the final basis set = -1510.30087735
   10   -1510.3008814960      8.02E-09 Convergence criterion met
 Total energy in the final basis set = -1510.30088150
   11   -1510.3008837762      3.82E-09 Convergence criterion met
 Total energy in the final basis set = -1510.30088378

             Standard Nuclear Orientation (Angstroms)
    I     Atom           X                Y                Z
 ----------------------------------------------------------------
    1      O      -1.1001467229     0.6865312068     2.1027257158
    2      C      -1.6857751829     0.9965336928     1.0429111808
    3      C      -3.1397411402     0.5722295696     0.6092850179
    4      C      -3.2295500846    -0.3395608985    -0.6781020379
    5      C      -1.8491873397    -0.8916348157    -1.1640737618
    6      O      -1.9987824692    -1.2813548581    -2.5335921345
    7      C      -0.8263749508    -2.0466864085    -3.0199534381
    8      C       0.4828436612    -1.1927321619    -3.2336997304
    9      O       1.4521680538    -1.5042638464    -2.1584075955
   10      C       1.7907037508    -0.3214469924    -1.4250767113
   11      C       2.6668042113    -0.7472265834    -0.2060964179
   12      C       3.7160871372     0.3479942808     0.2534718165
   13      C       3.6149247764     1.6893944216    -0.5609224052
   14      O       3.1952245825     2.7949701908    -0.1596927127
   15      O      -1.1908926966     1.8872879883     0.0472263167
   16      O       4.1620336753     1.4523855016    -1.8653236173
   17      O       1.4194775827     0.8308305623    -1.7423097988
   18      C       3.9824371543     2.6540990682    -2.7098093490
   19      C       1.7782047785    -0.8930976289     1.1116200469
   20      C       2.5963854578    -1.7419816325     2.1564282379
   21      C       3.6956705580    -0.7035833507     2.6013287831
   22      C       3.2837892705     0.5663774986     1.7592885774
   23      O       1.8062894051     0.4642949754     1.6999342666
   24      H       3.1569562376    -1.7043165412    -0.4559037441
   25      H       4.7471769182    -0.0393952775     0.1660768517
   26      H       0.7308758658    -1.2018285003     0.9134337742
   27      H       1.9513063964    -2.0316497388     3.0011871195
   28      H       3.0259384429    -2.6523519037     1.7087267316
   29      H       3.6338132260    -0.4875471009     3.6796263061
   30      H       4.7178448649    -1.0406757326     2.3654875438
   31      H       3.5824451380     1.5458008289     2.1801836224
   32      O      -0.8056245720    -1.0510098516    -0.4947123514
   33      C       0.1200494750     2.4574148455     0.4519530134
   34      C      -3.8462047387    -0.3479149963     1.6900386090
   35      C      -5.4052468581    -0.2442081036     1.4726982333
   36      C      -5.5735492782    -1.0592486825     0.1361340810
   37      C      -4.0926621756    -1.5537251726    -0.1129405680
   38      O      -3.5387079735    -1.7299165773     1.2467681569
   39      H      -3.7170423689     1.5002993277     0.4453080059
   40      H      -3.7287201016     0.1662207090    -1.5233279629
   41      H       0.7885506234     1.6874047078     0.9150406826
   42      H      -3.4837992343    -0.1867688270     2.7238648647
   43      H      -5.9441784983    -0.7237152034     2.3055833131
   44      H      -5.7475511438     0.7990209149     1.3829553022
   45      H      -6.2499163855    -1.9191274608     0.2655154185
   46      H      -5.9460419490    -0.4397116507    -0.6955296384
   47      H      -4.0022477786    -2.4888903338    -0.6995107257
   48      H      -0.0347196396     3.2895794567     1.1686939223
   49      H       0.5813767801     2.8518196577    -0.4708495575
   50      H       4.4692306494     2.4266986972    -3.6760512558
   51      H       4.4537477698     3.5499239941    -2.2564265841
   52      H       2.9060434825     2.8658606070    -2.8763921655
   53      H       0.9484913528    -1.4634206478    -4.2044509513
   54      H       0.2657264124    -0.1012882536    -3.2199492413
   55      H      -1.1584568428    -2.4691134182    -3.9894767212
   56      H      -0.5850955074    -2.8811336966    -2.3249790652
 ----------------------------------------------------------------

    9   -1510.3008840330      5.87E-09 Convergence criterion met
 Total energy in the final basis set = -1510.30088403
 Final energy is   -1510.30088403300
 **  OPTIMIZATION CONVERGED  **

                    Orbital Energies (a.u.)
 --------------------------------------------------------------

 Alpha MOs
 -- Occupied --
-18.939 -18.933 -18.924 -18.903 -18.898 -18.884 -18.883 -18.878
-18.867 -18.849 -10.106 -10.102 -10.093 -10.078 -10.077 -10.071
-10.059 -10.058 -10.057 -10.053 -10.051 -10.036 -10.036 -10.034
-10.025 -10.018 -10.018 -10.016 -10.015 -10.009  -1.020  -1.011
 -1.001  -0.983  -0.972  -0.966  -0.944  -0.937  -0.928  -0.910
 -0.762  -0.758  -0.726  -0.719  -0.711  -0.701  -0.694  -0.656
 -0.632  -0.618  -0.592  -0.576  -0.544  -0.539  -0.534  -0.531
 -0.511  -0.504  -0.481  -0.464  -0.459  -0.449  -0.448  -0.444
 -0.436  -0.428  -0.425  -0.412  -0.406  -0.400  -0.397  -0.390
 -0.378  -0.375  -0.374  -0.361  -0.354  -0.353  -0.349  -0.345
 -0.341  -0.334  -0.329  -0.328  -0.325  -0.321  -0.317  -0.307
 -0.305  -0.302  -0.297  -0.295  -0.294  -0.279  -0.271  -0.268
 -0.265  -0.257  -0.249  -0.246  -0.239  -0.230  -0.216  -0.190
 -0.172  -0.168  -0.160  -0.157  -0.154  -0.146  -0.141  -0.139
 -0.129

          Ground-State Mulliken Net Atomic Charges

     Atom                 Charge (a.u.)
  ----------------------------------------
      1 O                    -0.215771
      2 C                     0.209846
      3 C                    -0.081166
      4 C                    -0.077163
      5 C                     0.219116
      6 O                    -0.172296
      7 C                    -0.050395
      8 C                    -0.056835
      9 O                    -0.171437
     10 C                     0.221563
     11 C                    -0.079181
     12 C                    -0.080735
     13 C                     0.214538
     14 O                    -0.212414
     15 O                    -0.181228
     16 O                    -0.175620
     17 O                    -0.214122
     18 C                    -0.128877
     19 C                     0.023118
     20 C                    -0.142555
     21 C                    -0.143629
     22 C                     0.026973
     23 O                    -0.178407
     24 H                     0.087402
     25 H                     0.084879
     26 H                     0.111893
     27 H                     0.082509
     28 H                     0.073524
     29 H                     0.079774
     30 H                     0.072804
     31 H                     0.090334
     32 O                    -0.213653
     33 C                    -0.151441
     34 C                     0.023695
     35 C                    -0.143353
     36 C                    -0.144084
     37 C                     0.024893
     38 O                    -0.190772
     39 H                     0.082319
     40 H                     0.087667
     41 H                     0.119070
     42 H                     0.090681
     43 H                     0.077060
     44 H                     0.073407
     45 H                     0.077175
     46 H                     0.073501
     47 H                     0.080409
     48 H                     0.068826
     49 H                     0.085635
     50 H                     0.086933
     51 H                     0.087991
     52 H                     0.092209
     53 H                     0.085174
     54 H                     0.105749
     55 H                     0.090354
     56 H                     0.094111
  ----------------------------------------
  Sum of atomic charges =     0.000000

                    Cartesian Multipole Moments
 -----------------------------------------------------------------
    Charge (ESU x 10^10)
                -0.0000
    Dipole Moment (Debye)
         X       0.1409      Y      -1.6625      Z      -2.5551
       Tot       3.0516
    Quadrupole Moments (Debye-Ang)
        XX    -140.4766     XY      -2.7503     YY    -160.3327
        XZ       2.2782     YZ       1.8769     ZZ    -153.8028

 Total job time:  133.46s(wall), 6360.57s(cpu)
        *  Thank you very much for using Q-Chem.  Have a nice day.  *
