 Q-Chem 5.0, Q-Chem, Inc., Pleasanton, CA (2017)
 Q-Chem 5.0.1 for Intel X86 EM64T Linux

User input:
--------------------------------------------------------------
$molecule
0  1
O -3.94934 -3.66094 2.70899
C -3.26408 -4.56952 2.26188
C -3.36658 -6.02376 2.66595
C -2.38696 -6.52544 3.7395
C -1.5335 -5.47622 4.41688
O -0.3481 -6.02712 4.81281
C 0.52392 -5.08821 5.45099
C 1.31078 -4.30621 4.40435
O 2.18091 -3.36329 5.04985
C 2.54355 -2.29477 4.29759
C 3.75045 -1.57147 4.84612
C 4.54708 -0.76406 3.81085
C 3.84532 -0.5048 2.49289
O 3.93845 0.5178 1.82943
O -2.20992 -4.26061 1.46233
O 3.47524 -1.62596 1.81244
O 1.70108 -1.71619 3.62094
C 2.96613 -1.63886 0.52974
C 3.3884 -0.46032 5.85254
C 4.57768 -0.20379 6.77549
C 5.54673 0.44819 5.80977
C 4.65321 0.57465 4.56863
O 3.35471 0.72054 5.08987
H 4.38645 -2.32541 5.36522
H 5.52986 -1.22799 3.57512
H 2.47678 -0.68534 6.44843
H 4.24619 0.55855 7.51692
H 4.97338 -1.08947 7.31755
H 5.82333 1.44745 6.2132
H 6.4616 -0.14152 5.5838
H 5.01454 1.40495 3.92317
O -1.96621 -4.40065 4.81745
C -1.88221 -2.98103 1.06598
C -4.70859 -6.30228 3.38228
C -5.04435 -7.79277 3.3196
C -4.04848 -8.3445 4.31445
C -3.38747 -7.04784 4.78933
O -4.42587 -6.1032 4.74278
H -3.35332 -6.62237 1.72787
H -1.7341 -7.35414 3.38157
H -1.65684 -2.35188 1.9537
H -5.55559 -5.71201 2.96781
H -6.06887 -7.92685 3.73497
H -4.99813 -8.23683 2.30198
H -4.61128 -8.80927 5.1547
H -3.31519 -9.07121 3.90277
H -2.91536 -7.20287 5.78534
H -2.7191 -2.53282 0.48891
H -0.98143 -3.01987 0.41961
H 2.74584 -2.68594 0.23718
H 3.70697 -1.2172 -0.18263
H 2.02484 -1.05022 0.48757
H 1.90211 -4.98913 3.75651
H 0.55371 -3.78862 3.77379
H 1.26273 -5.66137 6.05015
H -0.00678 -4.42312 6.16995
$end

$opt
CONSTRAINT
tors           1           2           3           4     -96.314
tors           3           4           5           6    -150.894
tors           4           5           6           7    +179.316
tors           5           6           7           8     -83.778
tors           6           7           8           9    +179.833
tors           7           8           9          10    -156.111
tors           8           9          10          11    -162.799
tors           9          10          11          12    +155.955
tors          11          12          13          14    +143.888
ENDCONSTRAINT
$end

$rem
JOBTYPE                   OPT
METHOD                    B3LYP
DFT_D                     d3_op
BASIS                     STO-3G
GEOM_OPT_MAX_CYCLES       100
GEOM_OPT_TOL_GRADIENT     300
GEOM_OPT_TOL_DISPLACEMENT 1200
GEOM_OPT_TOL_ENERGY       100
SYMMETRY                  False
THRESH                    12
SCF_CONVERGENCE           8
MAX_SUB_FILE_NUM          128
MEM_STATIC                400
MEM_TOTAL                 4000
$end
--------------------------------------------------------------

   15   -1510.1324086218      6.50E-09 Convergence criterion met
 Total energy in the final basis set = -1510.13240862
   14   -1510.2035847008      5.90E-09 Convergence criterion met
 Total energy in the final basis set = -1510.20358470
   14   -1510.2426190971      6.89E-09 Convergence criterion met
 Total energy in the final basis set = -1510.24261910
   14   -1510.2613663495      4.05E-09 Convergence criterion met
 Total energy in the final basis set = -1510.26136635
   13   -1510.2692845010      7.03E-09 Convergence criterion met
 Total energy in the final basis set = -1510.26928450
   13   -1510.2730552459      4.08E-09 Convergence criterion met
 Total energy in the final basis set = -1510.27305525
    2   -1510.2730552458      3.67E-09 Convergence criterion met
 Total energy in the final basis set = -1510.27305525
   13   -1510.2751917439      4.00E-09 Convergence criterion met
   11   -1510.2805235057      6.92E-09 Convergence criterion met
 Total energy in the final basis set = -1510.28052351
   11   -1510.2805665666      4.26E-09 Convergence criterion met
 Total energy in the final basis set = -1510.28056657
   11   -1510.2805911416      6.50E-09 Convergence criterion met
 Total energy in the final basis set = -1510.28059114
   10   -1510.2806048863      6.54E-09 Convergence criterion met
 Total energy in the final basis set = -1510.28060489
    9   -1510.2806086874      7.18E-09 Convergence criterion met
 Total energy in the final basis set = -1510.28060869
    9   -1510.2806110964      4.25E-09 Convergence criterion met
 Total energy in the final basis set = -1510.28061110

             Standard Nuclear Orientation (Angstroms)
    I     Atom           X                Y                Z
 ----------------------------------------------------------------
    1      O      -3.6696077410     0.8943017716     2.5384554802
    2      C      -3.5758485751     1.2258015664     1.3385149647
    3      C      -4.5740070260     0.8942825015     0.1672920994
    4      C      -4.1511036706    -0.3758318514    -0.6856795258
    5      C      -2.7558085865    -0.9532957848    -0.2848176555
    6      O      -2.1688487652    -1.5734661867    -1.4377604850
    7      C      -0.8320941583    -2.1171841742    -1.0877289262
    8      C       0.2410858142    -0.9778005073    -1.1870709250
    9      O       1.5626789789    -1.5490683009    -0.8285946750
   10      C       2.4316105222    -0.5020216871    -0.3680715990
   11      C       3.9131831246    -1.0131766004    -0.4141059713
   12      C       4.9453428244     0.1781400182    -0.5236474659
   13      C       4.3476879704     1.5476841599    -1.0056575354
   14      O       4.6785349968     2.6898123929    -0.6233232746
   15      O      -2.4862327073     1.9740281993     0.7812250912
   16      O       3.5036246928     1.2925667164    -2.1394964481
   17      O       2.0362749946     0.6166322385     0.0276456028
   18      C       2.9171353590     2.5592883497    -2.6291368818
   19      C       4.2922342671    -1.5695051714     1.0294115794
   20      C       5.7390657193    -2.2057491686     0.9884092373
   21      C       6.6465950605    -0.9195003043     1.0237256458
   22      C       5.5523197571     0.2133641386     0.9411825227
   23      O       4.4673658271    -0.3170198423     1.8010162093
   24      H       4.0260890253    -1.7661053082    -1.2128055592
   25      H       5.7335834254    -0.0873013058    -1.2535710998
   26      H       3.5119868414    -2.2057479059     1.4910526077
   27      H       5.9046519675    -2.8455721767     1.8696663689
   28      H       5.8947265969    -2.8104947912     0.0803021555
   29      H       7.2027449653    -0.8465751295     1.9720312674
   30      H       7.3627564831    -0.8761607134     0.1876941777
   31      H       5.8641761368     1.2213394831     1.2780649912
   32      O      -2.2019076395    -0.9098035818     0.8357511776
   33      C      -1.4338914413     2.1670301445     1.8049042424
   34      C      -5.9615325110     0.4026987847     0.7567483272
   35      C      -7.0314978913     0.3865332376    -0.4060804609
   36      C      -6.6057625806    -0.9056225121    -1.1965903195
   37      C      -5.3513694574    -1.3729435919    -0.3584087194
   38      O      -5.7183738140    -1.0340505971     1.0320851488
   39      H      -4.6799457849     1.7840344088    -0.4785806940
   40      H      -4.1213487381    -0.1447178524    -1.7651512857
   41      H      -1.0560140881     1.1922981831     2.1759692768
   42      H      -6.2685804540     0.9227833561     1.6843268961
   43      H      -8.0492858443     0.2929216675     0.0046540828
   44      H      -6.9813880281     1.2976893135    -1.0231707124
   45      H      -7.3934403934    -1.6756135477    -1.1669259400
   46      H      -6.3522443773    -0.7006780817    -2.2489534425
   47      H      -5.0966181491    -2.4470410816    -0.4469794636
   48      H      -1.8041166137     2.7560107289     2.6687530491
   49      H      -0.6144810007     2.7158530301     1.3051296681
   50      H       2.3631056956     2.3052316112    -3.5515616426
   51      H       3.6989975618     3.3118368884    -2.8576063444
   52      H       2.2169089187     2.9912828424    -1.8848582237
   53      H       0.2752196958    -0.5769882105    -2.2238325920
   54      H      -0.0156242629    -0.1466078924    -0.4953132256
   55      H      -0.6193102784    -2.9181914569    -1.8234122857
   56      H      -0.8329251836    -2.5379556594    -0.0600427199
 ----------------------------------------------------------------

    9   -1510.2806120032      2.33E-09 Convergence criterion met
 Total energy in the final basis set = -1510.28061200
 Final energy is   -1510.28061200320
 **  OPTIMIZATION CONVERGED  **

                    Orbital Energies (a.u.)
 --------------------------------------------------------------

 Alpha MOs
 -- Occupied --
-18.941 -18.932 -18.928 -18.920 -18.888 -18.887 -18.883 -18.879
-18.872 -18.864 -10.105 -10.102 -10.098 -10.089 -10.077 -10.071
-10.063 -10.062 -10.061 -10.058 -10.057 -10.051 -10.040 -10.039
-10.037 -10.034 -10.021 -10.021 -10.020 -10.019  -1.020  -1.014
 -1.005  -0.998  -0.970  -0.970  -0.944  -0.938  -0.932  -0.924
 -0.764  -0.763  -0.728  -0.723  -0.714  -0.705  -0.696  -0.660
 -0.652  -0.619  -0.597  -0.581  -0.546  -0.545  -0.538  -0.537
 -0.514  -0.509  -0.481  -0.476  -0.460  -0.458  -0.453  -0.451
 -0.436  -0.432  -0.428  -0.412  -0.409  -0.406  -0.402  -0.399
 -0.395  -0.379  -0.375  -0.365  -0.362  -0.356  -0.349  -0.349
 -0.345  -0.341  -0.337  -0.332  -0.331  -0.326  -0.325  -0.312
 -0.311  -0.306  -0.304  -0.302  -0.293  -0.285  -0.276  -0.275
 -0.273  -0.258  -0.254  -0.247  -0.244  -0.234  -0.234  -0.185
 -0.179  -0.169  -0.167  -0.159  -0.158  -0.150  -0.144  -0.144
 -0.141

          Ground-State Mulliken Net Atomic Charges

     Atom                 Charge (a.u.)
  ----------------------------------------
      1 O                    -0.207923
      2 C                     0.213072
      3 C                    -0.079962
      4 C                    -0.079298
      5 C                     0.210040
      6 O                    -0.171521
      7 C                    -0.049984
      8 C                    -0.053091
      9 O                    -0.176586
     10 C                     0.217975
     11 C                    -0.077228
     12 C                    -0.079408
     13 C                     0.215868
     14 O                    -0.212718
     15 O                    -0.177713
     16 O                    -0.176239
     17 O                    -0.209209
     18 C                    -0.128774
     19 C                     0.024966
     20 C                    -0.144762
     21 C                    -0.142453
     22 C                     0.024309
     23 O                    -0.188530
     24 H                     0.087409
     25 H                     0.083797
     26 H                     0.083721
     27 H                     0.078617
     28 H                     0.073477
     29 H                     0.078630
     30 H                     0.073177
     31 H                     0.091583
     32 O                    -0.208520
     33 C                    -0.129972
     34 C                     0.025742
     35 C                    -0.144670
     36 C                    -0.143041
     37 C                     0.026274
     38 O                    -0.185334
     39 H                     0.083903
     40 H                     0.086367
     41 H                     0.095027
     42 H                     0.088290
     43 H                     0.078259
     44 H                     0.073306
     45 H                     0.078337
     46 H                     0.073656
     47 H                     0.083245
     48 H                     0.086429
     49 H                     0.090278
     50 H                     0.087359
     51 H                     0.089717
     52 H                     0.090983
     53 H                     0.082963
     54 H                     0.100578
     55 H                     0.091017
     56 H                     0.098564
  ----------------------------------------
  Sum of atomic charges =    -0.000000

                    Cartesian Multipole Moments
 -----------------------------------------------------------------
    Charge (ESU x 10^10)
                 0.0000
    Dipole Moment (Debye)
         X       0.4758      Y      -1.1502      Z      -4.2513
       Tot       4.4298
    Quadrupole Moments (Debye-Ang)
        XX    -145.0587     XY     -12.9174     YY    -157.1304
        XZ       7.4223     YZ      -0.2961     ZZ    -163.9023

 Total job time:  61.24s(wall), 2913.89s(cpu)
        *  Thank you very much for using Q-Chem.  Have a nice day.  *
