 Q-Chem 5.0, Q-Chem, Inc., Pleasanton, CA (2017)
 Q-Chem 5.0.1 for Intel X86 EM64T Linux

User input:
--------------------------------------------------------------
$molecule
0  1
O -3.94934 -3.66094 2.70899
C -3.26408 -4.56952 2.26188
C -3.36658 -6.02376 2.66595
C -2.24262 -6.5882 3.55024
C -1.23505 -5.59128 4.07849
O -0.08971 -6.23893 4.44482
C 0.92432 -5.35564 4.93552
C 1.61693 -4.65283 3.77256
O 2.02209 -3.33329 4.16946
C 2.51277 -2.55061 3.17658
C 2.98845 -1.20458 3.6691
C 3.65714 -0.32453 2.60295
C 3.43776 -0.74761 1.16435
O 2.80469 -0.11821 0.3291
O -2.26341 -4.27082 1.39254
O 4.24205 -1.7549 0.72234
O 2.5606 -2.96966 2.03043
C 4.28767 -2.20272 -0.582
C 1.8564 -0.28548 4.158
C 2.42097 0.73336 5.14514
C 3.24134 1.60275 4.2137
C 2.87139 0.98188 2.86015
O 1.55523 0.51767 3.04465
H 3.6967 -1.41189 4.50359
H 4.75051 -0.18598 2.75419
H 1.00324 -0.83567 4.61169
H 1.55903 1.32951 5.52217
H 2.97668 0.30824 6.0085
H 2.86447 2.64699 4.28819
H 4.33948 1.57911 4.38424
H 3.01546 1.72959 2.04925
O -1.53923 -4.46802 4.46675
C -1.96435 -2.99653 0.95861
C -4.58137 -6.2713 3.58873
C -4.97731 -7.74807 3.55864
C -3.85376 -8.35545 4.36849
C -3.07269 -7.09432 4.74569
O -4.06772 -6.11188 4.8861
H -3.51388 -6.60303 1.72722
H -1.6915 -7.42488 3.06343
H -1.68543 -2.35465 1.82168
H -5.46332 -5.64472 3.33066
H -5.92493 -7.85776 4.13316
H -5.11277 -8.16982 2.53948
H -4.28861 -8.81444 5.28448
H -3.22814 -9.10144 3.83236
H -2.44829 -7.2868 5.64661
H -2.83668 -2.55771 0.42874
H -1.10574 -3.04325 0.25776
H 5.02239 -3.03037 -0.65671
H 4.60478 -1.38079 -1.25881
H 3.28973 -2.58066 -0.89129
H 2.44282 -5.26831 3.35173
H 0.85439 -4.51283 2.97278
H 1.68726 -5.91281 5.5188
H 0.48616 -4.62408 5.65305
$end

$opt
CONSTRAINT
tors           1           2           3           4    -106.641
tors           3           4           5           6    -159.765
tors           4           5           6           7    +178.989
tors           5           6           7           8     -78.113
tors           6           7           8           9    +147.457
tors           7           8           9          10    -172.737
tors           8           9          10          11    -176.951
tors           9          10          11          12    +175.286
tors          11          12          13          14    +113.389
ENDCONSTRAINT
$end

$rem
JOBTYPE                   OPT
METHOD                    B3LYP
DFT_D                     d3_op
BASIS                     STO-3G
GEOM_OPT_MAX_CYCLES       100
GEOM_OPT_TOL_GRADIENT     300
GEOM_OPT_TOL_DISPLACEMENT 1200
GEOM_OPT_TOL_ENERGY       100
SYMMETRY                  False
THRESH                    12
SCF_CONVERGENCE           8
MAX_SUB_FILE_NUM          128
MEM_STATIC                400
MEM_TOTAL                 4000
$end
--------------------------------------------------------------

   15   -1510.1482166693      5.64E-09 Convergence criterion met
 Total energy in the final basis set = -1510.14821667
   14   -1510.2183980361      6.82E-09 Convergence criterion met
 Total energy in the final basis set = -1510.21839804
   14   -1510.2560218910      7.60E-09 Convergence criterion met
 Total energy in the final basis set = -1510.25602189
   14   -1510.2727884768      2.08E-09 Convergence criterion met
 Total energy in the final basis set = -1510.27278848
   13   -1510.2796747835      9.11E-09 Convergence criterion met
 Total energy in the final basis set = -1510.27967478
   13   -1510.2825830502      4.18E-09 Convergence criterion met
 Total energy in the final basis set = -1510.28258305
   13   -1510.2841726970      2.94E-09 Convergence criterion met
 Total energy in the final basis set = -1510.28417270
   12   -1510.2848883560      9.00E-09 Convergence criterion met
   12   -1510.2861750414      4.27E-09 Convergence criterion met
 Total energy in the final basis set = -1510.28617504
   10   -1510.2862051927      7.85E-09 Convergence criterion met
 Total energy in the final basis set = -1510.28620519
   10   -1510.2862251480      6.21E-09 Convergence criterion met
 Total energy in the final basis set = -1510.28622515
    9   -1510.2862342410      8.04E-09 Convergence criterion met
 Total energy in the final basis set = -1510.28623424
    9   -1510.2862421397      6.53E-09 Convergence criterion met
 Total energy in the final basis set = -1510.28624214
    9   -1510.2862453580      6.70E-09 Convergence criterion met
 Total energy in the final basis set = -1510.28624536

             Standard Nuclear Orientation (Angstroms)
    I     Atom           X                Y                Z
 ----------------------------------------------------------------
    1      O      -2.9625253261     0.0859365327     2.6499160291
    2      C      -3.0281938124     0.7724620247     1.6092315910
    3      C      -4.2416396212     0.8867477516     0.6098273921
    4      C      -4.0137501209     0.1326186558    -0.7665758800
    5      C      -2.6287157659    -0.5828763600    -0.8407147670
    6      O      -2.2933302790    -0.8228801430    -2.2152712139
    7      C      -0.9652138281    -1.4810438966    -2.2844860780
    8      C       0.1902602706    -0.4313943088    -2.0782184280
    9      O       1.2932735301    -1.1453292783    -1.3873247379
   10      C       2.3155714969    -0.2212201463    -1.0118802464
   11      C       3.4914142332    -1.0194935576    -0.3589739785
   12      C       4.7311885679    -0.1017007373    -0.0130651484
   13      C       4.6220268883     1.3754852894    -0.5472719751
   14      O       4.5188268564     2.4201038610     0.1292876619
   15      O      -1.9947792725     1.6507712863     1.1403047081
   16      O       4.8315747452     1.3417991993    -1.9685084854
   17      O       2.2318021017     1.0178510480    -1.1693012078
   18      C       4.6739512498     2.7024743983    -2.5265729297
   19      C       3.0649120216    -1.5037083376     1.0960779390
   20      C       4.1450645907    -2.5231410111     1.6335189117
   21      C       5.3210995616    -1.5498537970     2.0168225293
   22      C       4.7191879199    -0.1602166153     1.5719961053
   23      O       3.2818576721    -0.2888156463     1.9127187714
   24      H       3.7607033518    -1.8674679319    -1.0135490186
   25      H       5.6571899652    -0.5407293179    -0.4264349251
   26      H       2.0135777307    -1.8451635785     1.1682663846
   27      H       3.7593984050    -3.0614151245     2.5137514167
   28      H       4.4344288531    -3.2603544004     0.8673126986
   29      H       5.5111766626    -1.5571341490     3.1019095909
   30      H       6.2598649919    -1.7869399338     1.4914274940
   31      H       5.1508422965     0.7354774986     2.0592201212
   32      O      -1.9067317374    -0.9369788725     0.1180061455
   33      C      -0.7748665596     1.4750817756     1.9606457856
   34      C      -5.5097003625     0.1192014664     1.1681989191
   35      C      -6.7810391308     0.5849870670     0.3566879531
   36      C      -6.5563963531    -0.1581200146    -1.0129309707
   37      C      -5.2057710781    -0.9255659061    -0.7242715275
   38      O      -5.2973333364    -1.2748380212     0.7088230013
   39      H      -4.4501305879     1.9572252605     0.4331418268
   40      H      -4.1110615300     0.8087212039    -1.6341290308
   41      H      -0.4031391248     0.4313110843     1.9042729593
   42      H      -5.6045594879     0.1474657140     2.2708735618
   43      H      -7.7024605859     0.2425196418     0.8536966194
   44      H      -6.8253073718     1.6800685930     0.2448017748
   45      H      -7.3668180229    -0.8739681112    -1.2232933487
   46      H      -6.4653460084     0.5339689408    -1.8652193983
   47      H      -5.0366809947    -1.8313560062    -1.3390875207
   48      H      -0.9541060621     1.7299889547     3.0250720947
   49      H      -0.0170708620     2.1606192471     1.5381912266
   50      H       4.9071848649     2.6233049944    -3.6044114891
   51      H       5.3649397088     3.4261122528    -2.0478151738
   52      H       3.6345144170     3.0682133671    -2.3973015653
   53      H       0.5379864349    -0.0176659451    -3.0491284528
   54      H      -0.1718906763     0.4150040295    -1.4546957078
   55      H      -0.9079239791    -1.9474907903    -3.2872109696
   56      H      -0.8727027587    -2.2633878520    -1.5005035628
 ----------------------------------------------------------------

    9   -1510.2862471357      3.19E-09 Convergence criterion met
 Total energy in the final basis set = -1510.28624714
 Final energy is   -1510.28624713571
 **  OPTIMIZATION CONVERGED  **

                    Orbital Energies (a.u.)
 --------------------------------------------------------------

 Alpha MOs
 -- Occupied --
-18.943 -18.942 -18.918 -18.917 -18.888 -18.886 -18.886 -18.885
-18.862 -18.860 -10.107 -10.107 -10.089 -10.089 -10.081 -10.079
-10.063 -10.060 -10.056 -10.055 -10.054 -10.049 -10.041 -10.040
-10.033 -10.032 -10.021 -10.020 -10.019 -10.018  -1.024  -1.019
 -0.997  -0.996  -0.970  -0.969  -0.947  -0.943  -0.923  -0.923
 -0.764  -0.762  -0.730  -0.722  -0.714  -0.705  -0.697  -0.654
 -0.651  -0.621  -0.596  -0.582  -0.545  -0.544  -0.537  -0.536
 -0.516  -0.509  -0.486  -0.468  -0.459  -0.454  -0.453  -0.449
 -0.443  -0.431  -0.430  -0.408  -0.407  -0.403  -0.402  -0.399
 -0.398  -0.380  -0.374  -0.363  -0.361  -0.353  -0.350  -0.345
 -0.342  -0.341  -0.339  -0.331  -0.331  -0.325  -0.324  -0.312
 -0.311  -0.304  -0.303  -0.301  -0.296  -0.278  -0.276  -0.274
 -0.273  -0.260  -0.257  -0.244  -0.243  -0.234  -0.233  -0.188
 -0.185  -0.164  -0.164  -0.161  -0.160  -0.145  -0.144  -0.141
 -0.141

          Ground-State Mulliken Net Atomic Charges

     Atom                 Charge (a.u.)
  ----------------------------------------
      1 O                    -0.211826
      2 C                     0.214755
      3 C                    -0.080402
      4 C                    -0.078867
      5 C                     0.211826
      6 O                    -0.170630
      7 C                    -0.049914
      8 C                    -0.048420
      9 O                    -0.171522
     10 C                     0.216053
     11 C                    -0.077816
     12 C                    -0.081544
     13 C                     0.216093
     14 O                    -0.216969
     15 O                    -0.178854
     16 O                    -0.177858
     17 O                    -0.206691
     18 C                    -0.128751
     19 C                     0.024695
     20 C                    -0.144011
     21 C                    -0.143681
     22 C                     0.024386
     23 O                    -0.190129
     24 H                     0.086946
     25 H                     0.083387
     26 H                     0.086997
     27 H                     0.079103
     28 H                     0.073311
     29 H                     0.078255
     30 H                     0.073017
     31 H                     0.089932
     32 O                    -0.207071
     33 C                    -0.129751
     34 C                     0.025129
     35 C                    -0.144214
     36 C                    -0.143489
     37 C                     0.025839
     38 O                    -0.187329
     39 H                     0.083942
     40 H                     0.087125
     41 H                     0.093095
     42 H                     0.089895
     43 H                     0.078341
     44 H                     0.073626
     45 H                     0.078330
     46 H                     0.073720
     47 H                     0.082886
     48 H                     0.087060
     49 H                     0.091452
     50 H                     0.085191
     51 H                     0.087037
     52 H                     0.091049
     53 H                     0.087181
     54 H                     0.096845
     55 H                     0.091626
     56 H                     0.101616
  ----------------------------------------
  Sum of atomic charges =     0.000000

                    Cartesian Multipole Moments
 -----------------------------------------------------------------
    Charge (ESU x 10^10)
                 0.0000
    Dipole Moment (Debye)
         X       0.0492      Y      -0.7743      Z      -3.4404
       Tot       3.5268
    Quadrupole Moments (Debye-Ang)
        XX    -143.2493     XY     -14.4408     YY    -159.7372
        XZ       5.4283     YZ       1.1913     ZZ    -159.4423

 Total job time:  51.59s(wall), 2453.20s(cpu)
        *  Thank you very much for using Q-Chem.  Have a nice day.  *
