 Q-Chem 5.0, Q-Chem, Inc., Pleasanton, CA (2017)
 Q-Chem 5.0.1 for Intel X86 EM64T Linux

User input:
--------------------------------------------------------------
$molecule
0  1
O -2.9625253261 0.0859365327 2.6499160291
C -3.0281938124 0.7724620247 1.609231591
C -4.2416396212 0.8867477516 0.6098273921
C -4.0137501209 0.1326186558 -0.76657588
C -2.6287157659 -0.58287636 -0.840714767
O -2.293330279 -0.822880143 -2.2152712139
C -0.9652138281 -1.4810438966 -2.284486078
C 0.1902602706 -0.4313943088 -2.078218428
O 1.2932735301 -1.1453292783 -1.3873247379
C 2.3155714969 -0.2212201463 -1.0118802464
C 3.4914142332 -1.0194935576 -0.3589739785
C 4.7311885679 -0.1017007373 -0.0130651484
C 4.6220268883 1.3754852894 -0.5472719751
O 4.5188268564 2.420103861 0.1292876619
O -1.9947792725 1.6507712863 1.1403047081
O 4.8315747452 1.3417991993 -1.9685084854
O 2.2318021017 1.017851048 -1.1693012078
C 4.6739512498 2.7024743983 -2.5265729297
C 3.0649120216 -1.5037083376 1.096077939
C 4.1450645907 -2.5231410111 1.6335189117
C 5.3210995616 -1.549853797 2.0168225293
C 4.7191879199 -0.1602166153 1.5719961053
O 3.2818576721 -0.2888156463 1.9127187714
H 3.7607033518 -1.8674679319 -1.0135490186
H 5.6571899652 -0.5407293179 -0.4264349251
H 2.0135777307 -1.8451635785 1.1682663846
H 3.759398405 -3.0614151245 2.5137514167
H 4.4344288531 -3.2603544004 0.8673126986
H 5.5111766626 -1.557134149 3.1019095909
H 6.2598649919 -1.7869399338 1.491427494
H 5.1508422965 0.7354774986 2.0592201212
O -1.9067317374 -0.9369788725 0.1180061455
C -0.7748665596 1.4750817756 1.9606457856
C -5.5097003625 0.1192014664 1.1681989191
C -6.7810391308 0.584987067 0.3566879531
C -6.5563963531 -0.1581200146 -1.0129309707
C -5.2057710781 -0.9255659061 -0.7242715275
O -5.2973333364 -1.2748380212 0.7088230013
H -4.4501305879 1.9572252605 0.4331418268
H -4.11106153 0.8087212039 -1.6341290308
H -0.4031391248 0.4313110843 1.9042729593
H -5.6045594879 0.147465714 2.2708735618
H -7.7024605859 0.2425196418 0.8536966194
H -6.8253073718 1.680068593 0.2448017748
H -7.3668180229 -0.8739681112 -1.2232933487
H -6.4653460084 0.5339689408 -1.8652193983
H -5.0366809947 -1.8313560062 -1.3390875207
H -0.9541060621 1.7299889547 3.0250720947
H -0.017070862 2.1606192471 1.5381912266
H 4.9071848649 2.6233049944 -3.6044114891
H 5.3649397088 3.4261122528 -2.0478151738
H 3.634514417 3.0682133671 -2.3973015653
H 0.5379864349 -0.0176659451 -3.0491284528
H -0.1718906763 0.4150040295 -1.4546957078
H -0.9079239791 -1.9474907903 -3.2872109696
H -0.8727027587 -2.263387852 -1.5005035628
$end

$rem
JOBTYPE                   OPT
METHOD                    B3LYP
DFT_D                     d3_op
BASIS                     STO-3G
GEOM_OPT_MAX_CYCLES       100
GEOM_OPT_TOL_GRADIENT     300
GEOM_OPT_TOL_DISPLACEMENT 1200
GEOM_OPT_TOL_ENERGY       100
SYMMETRY                  False
THRESH                    12
SCF_CONVERGENCE           8
MAX_SUB_FILE_NUM          128
MEM_STATIC                400
MEM_TOTAL                 4000
$end
--------------------------------------------------------------

   15   -1510.2860966489      8.67E-09 Convergence criterion met
 Total energy in the final basis set = -1510.28609665
   14   -1510.2874359808      2.39E-09 Convergence criterion met
 Total energy in the final basis set = -1510.28743598
   14   -1510.2856137107      2.43E-09 Convergence criterion met
 Total energy in the final basis set = -1510.28561371
   14   -1510.2890657647      2.16E-09 Convergence criterion met
 Total energy in the final basis set = -1510.28906576
   14   -1510.2871197800      2.71E-09 Convergence criterion met
 Total energy in the final basis set = -1510.28711978
   14   -1510.2887612203      1.98E-09 Convergence criterion met
 Total energy in the final basis set = -1510.28876122
   13   -1510.2901463734      3.76E-09 Convergence criterion met
 Total energy in the final basis set = -1510.29014637
   13   -1510.2912295763      4.52E-09 Convergence criterion met
   12   -1510.3008612609      3.70E-09 Convergence criterion met
 Total energy in the final basis set = -1510.30086126
   11   -1510.3008909574      9.81E-09 Convergence criterion met
 Total energy in the final basis set = -1510.30089096
   12   -1510.3008757549      3.67E-09 Convergence criterion met
 Total energy in the final basis set = -1510.30087575
   11   -1510.3008965576      6.85E-09 Convergence criterion met
 Total energy in the final basis set = -1510.30089656
    9   -1510.3008951265      7.81E-09 Convergence criterion met
 Total energy in the final basis set = -1510.30089513
    9   -1510.3008937150      8.22E-09 Convergence criterion met
 Total energy in the final basis set = -1510.30089371

             Standard Nuclear Orientation (Angstroms)
    I     Atom           X                Y                Z
 ----------------------------------------------------------------
    1      O       1.1764415924    -1.9359603360    -1.1437121356
    2      C       1.6668040581    -0.7990210386    -1.3150099356
    3      C       3.1378628729    -0.3507883223    -0.9755993957
    4      C       3.2729364085     0.7562371397     0.1466718985
    5      C       1.9360913400     1.0745493441     0.8922214515
    6      O       2.0360003279     2.4029069887     1.4178639488
    7      C       0.9181387573     2.7138441019     2.3409604004
    8      C      -0.4818277476     2.9165562900     1.6442747187
    9      O      -1.3261305970     1.7281158496     1.9052492630
   10      C      -1.8426524893     1.1933745099     0.6827867497
   11      C      -2.5586973997    -0.1523264517     1.0176144717
   12      C      -3.6900202076    -0.5656666208    -0.0104787033
   13      C      -3.8168022468     0.4139235137    -1.2346563991
   14      O      -3.4684834944     0.2037392466    -2.4153825678
   15      O       1.0134510412     0.3017735932    -1.9403829607
   16      O      -4.4922153477     1.5968795981    -0.7859387217
   17      O      -1.7033367484     1.7367213172    -0.4360353139
   18      C      -4.5507476023     2.5843900748    -1.8863287111
   19      C      -1.5529590402    -1.3842634230     0.8804426847
   20      C      -2.1699292494    -2.6027140666     1.6647991305
   21      C      -3.3490128831    -3.0186604319     0.7041922553
   22      C      -3.1693551755    -1.9857846643    -0.4759842609
   23      O      -1.6998813882    -1.7982826969    -0.5328912813
   24      H      -2.9491998245    -0.0844793026     2.0480021059
   25      H      -4.6716865377    -0.6241315407     0.4928829896
   26      H      -0.4953719965    -1.1237807688     1.0955437106
   27      H      -1.4258844778    -3.4094104889     1.7611909551
   28      H      -2.5187773692    -2.3175878726     2.6700096628
   29      H      -3.2239959430    -4.0487099605     0.3344922072
   30      H      -4.3378445561    -2.9331297527     1.1829197406
   31      H      -3.5517524560    -2.3086925855    -1.4636050326
   32      O       0.9615719928     0.3144231472     1.0786137460
   33      C      -0.3333969856    -0.0918279160    -2.4309093601
   34      C       3.9784633433    -1.5375951851    -0.3450327277
   35      C       5.5102863635    -1.2168072044    -0.5379325295
   36      C       5.7007331558    -0.0460063646     0.4963925472
   37      C       4.2648522572     0.0218247333     1.1545987097
   38      O       3.7831442135    -1.3756413109     1.1165048316
   39      H       3.5990604136     0.0114852930    -1.9122382738
   40      H       3.6971531527     1.6997828390    -0.2386227182
   41      H      -0.8724677277    -0.7516009541    -1.7034610849
   42      H       3.6441305767    -2.5428500069    -0.6676851003
   43      H       6.1234888515    -2.0923587848    -0.2712362008
   44      H       5.7493630401    -0.9179136303    -1.5709181534
   45      H       6.4612970903    -0.2918669065     1.2543555770
   46      H       5.9770267164     0.9056199023     0.0146984724
   47      H       4.2412528634     0.4168008998     2.1891376994
   48      H      -0.2427827588    -0.6142925591    -3.4049906080
   49      H      -0.8954685532     0.8486762441    -2.5714593342
   50      H      -5.1179302417     3.4486853063    -1.4945375671
   51      H      -5.0653410898     2.1746165719    -2.7793846018
   52      H      -3.5328182843     2.9110163944    -2.1832057682
   53      H      -0.9871403215     3.8051247458     2.0790618368
   54      H      -0.3800388558     3.0588195280     0.5454123651
   55      H       1.2267193860     3.6553700943     2.8376760083
   56      H       0.8095912252     1.9167392077     3.1092204563
 ----------------------------------------------------------------

    9   -1510.3008940294      2.71E-09 Convergence criterion met
 Total energy in the final basis set = -1510.30089403
 Final energy is   -1510.30089402941
 **  OPTIMIZATION CONVERGED  **

                    Orbital Energies (a.u.)
 --------------------------------------------------------------

 Alpha MOs
 -- Occupied --
-18.939 -18.935 -18.923 -18.904 -18.897 -18.883 -18.883 -18.879
-18.865 -18.850 -10.106 -10.103 -10.092 -10.079 -10.077 -10.072
-10.059 -10.058 -10.056 -10.051 -10.051 -10.036 -10.036 -10.034
-10.025 -10.018 -10.017 -10.016 -10.015 -10.010  -1.020  -1.012
 -1.001  -0.984  -0.972  -0.966  -0.944  -0.939  -0.927  -0.911
 -0.762  -0.758  -0.727  -0.719  -0.711  -0.701  -0.694  -0.656
 -0.632  -0.618  -0.592  -0.577  -0.544  -0.539  -0.534  -0.531
 -0.512  -0.504  -0.481  -0.463  -0.459  -0.449  -0.448  -0.444
 -0.436  -0.428  -0.426  -0.411  -0.405  -0.401  -0.398  -0.391
 -0.379  -0.375  -0.374  -0.361  -0.355  -0.351  -0.349  -0.345
 -0.341  -0.335  -0.330  -0.328  -0.326  -0.320  -0.318  -0.308
 -0.305  -0.301  -0.297  -0.295  -0.294  -0.279  -0.272  -0.268
 -0.265  -0.257  -0.250  -0.246  -0.239  -0.231  -0.216  -0.191
 -0.172  -0.167  -0.161  -0.157  -0.154  -0.144  -0.141  -0.139
 -0.130

          Ground-State Mulliken Net Atomic Charges

     Atom                 Charge (a.u.)
  ----------------------------------------
      1 O                    -0.214736
      2 C                     0.209223
      3 C                    -0.080974
      4 C                    -0.077635
      5 C                     0.218525
      6 O                    -0.171670
      7 C                    -0.050091
      8 C                    -0.055881
      9 O                    -0.170557
     10 C                     0.220400
     11 C                    -0.079308
     12 C                    -0.081124
     13 C                     0.214442
     14 O                    -0.213425
     15 O                    -0.181837
     16 O                    -0.175355
     17 O                    -0.213604
     18 C                    -0.128643
     19 C                     0.021376
     20 C                    -0.142504
     21 C                    -0.143656
     22 C                     0.027169
     23 O                    -0.178815
     24 H                     0.087329
     25 H                     0.084755
     26 H                     0.113073
     27 H                     0.082575
     28 H                     0.073354
     29 H                     0.079751
     30 H                     0.072703
     31 H                     0.089941
     32 O                    -0.213688
     33 C                    -0.152724
     34 C                     0.023936
     35 C                    -0.143556
     36 C                    -0.144063
     37 C                     0.025066
     38 O                    -0.189953
     39 H                     0.082451
     40 H                     0.087494
     41 H                     0.119124
     42 H                     0.091029
     43 H                     0.077327
     44 H                     0.073509
     45 H                     0.077228
     46 H                     0.073524
     47 H                     0.080119
     48 H                     0.069563
     49 H                     0.086264
     50 H                     0.086759
     51 H                     0.087595
     52 H                     0.092156
     53 H                     0.084968
     54 H                     0.105760
     55 H                     0.090650
     56 H                     0.094655
  ----------------------------------------
  Sum of atomic charges =     0.000000

                    Cartesian Multipole Moments
 -----------------------------------------------------------------
    Charge (ESU x 10^10)
                -0.0000
    Dipole Moment (Debye)
         X       0.0052      Y       2.2766      Z       2.0623
       Tot       3.0718
    Quadrupole Moments (Debye-Ang)
        XX    -141.3504     XY       3.9157     YY    -154.6953
        XZ      -4.1912     YZ       2.1399     ZZ    -158.8068

 Total job time:  106.50s(wall), 5081.13s(cpu)
        *  Thank you very much for using Q-Chem.  Have a nice day.  *
