 Q-Chem 5.0, Q-Chem, Inc., Pleasanton, CA (2017)
 Q-Chem 5.0.1 for Intel X86 EM64T Linux

User input:
--------------------------------------------------------------
$molecule
0  1
O -3.0287067738 0.5646122566 2.5908958315
C -3.1032237511 1.0862520189 1.4590058601
C -4.2737463969 0.9469781347 0.4129432735
C -4.0167901189 -0.1583089621 -0.6947074304
C -2.5974118813 -0.8021865795 -0.6059260826
O -2.2811955831 -1.4051400417 -1.8697234848
C -0.9328749233 -2.021078543 -1.7993709985
C 0.1886336565 -0.9256365319 -1.9278832051
O 1.4122944816 -1.475890346 -1.2917236853
C 2.340708243 -0.4201797001 -1.0337601977
C 3.6451282979 -1.0317145583 -0.4239085998
C 4.7365137376 0.0717885864 -0.1172691454
C 4.4001527208 1.5056658377 -0.6749298081
O 4.1517350826 2.5358030936 -0.013864906
O -2.1108754794 1.9498074835 0.8874916917
O 4.60411148 1.4779607021 -2.0972338545
O 2.0980648156 0.7902602355 -1.2421518313
C 4.2493419686 2.7909761578 -2.6777817106
C 3.3501285367 -1.5670719341 1.044063247
C 4.6053729492 -2.3791930654 1.5550538725
C 5.5984792587 -1.2143198055 1.9230837769
C 4.7627622705 0.043687397 1.4682678389
O 3.3753037193 -0.3221792831 1.8440637221
H 4.02005824 -1.8290545168 -1.0904448205
H 5.7109373925 -0.2307457677 -0.5414483703
H 2.375864793 -2.0833457371 1.1487814374
H 4.3412455732 -2.9829401998 2.4377263815
H 5.0061491943 -3.0486018243 0.7770786539
H 5.7894375561 -1.176858586 3.0074790238
H 6.5627540734 -1.2920258504 1.3958082308
H 5.0437330532 1.0096272462 1.9310060612
O -1.8286939173 -0.8280068257 0.3805542765
C -0.9141357078 1.9873601395 1.7587611784
C -5.5678323832 0.3604033416 1.1170779027
C -6.8028191227 0.5430449847 0.1498029518
C -6.5347641196 -0.5912234303 -0.9072506623
C -5.1803639162 -1.1966834244 -0.36459702
O -5.3227851644 -1.1024147722 1.1033975051
H -4.4554187477 1.9322695086 -0.0516981268
H -4.1389180518 0.2523816133 -1.7128434859
H -0.4797315593 0.9741768708 1.8821823418
H -5.7166745597 0.7123966958 2.1559799314
H -7.7473485292 0.3761292015 0.6915546663
H -6.8271299764 1.5473988984 -0.3024501818
H -7.3280130947 -1.3559131307 -0.8906231756
H -6.4381377009 -0.2053757976 -1.934680549
H -4.969702791 -2.2388443653 -0.6744398675
H -1.1489313455 2.3974067064 2.7622035526
H -0.183715754 2.6441120363 1.2512155469
H 4.4946651685 2.7293290579 -3.754105757
H 4.824827854 3.616403034 -2.2109966629
H 3.1670370062 3.0025375565 -2.5555036186
H 0.3832468884 -0.6770858285 -2.9934769486
H -0.1244272221 0.0052984347 -1.4078806189
H -0.8828113635 -2.743064995 -2.637869471
H -0.7938694767 -2.5570909694 -0.8357220967
$end

$rem
JOBTYPE                   OPT
METHOD                    B3LYP
DFT_D                     d3_op
BASIS                     STO-3G
GEOM_OPT_MAX_CYCLES       100
GEOM_OPT_TOL_GRADIENT     300
GEOM_OPT_TOL_DISPLACEMENT 1200
GEOM_OPT_TOL_ENERGY       100
SYMMETRY                  False
THRESH                    12
SCF_CONVERGENCE           8
MAX_SUB_FILE_NUM          128
MEM_STATIC                400
MEM_TOTAL                 4000
$end
--------------------------------------------------------------

   15   -1510.2853320989      9.39E-09 Convergence criterion met
 Total energy in the final basis set = -1510.28533210
   13   -1510.2861742206      8.07E-09 Convergence criterion met
 Total energy in the final basis set = -1510.28617422
   13   -1510.2871486984      7.92E-09 Convergence criterion met
 Total energy in the final basis set = -1510.28714870
   14   -1510.2887842955      1.94E-09 Convergence criterion met
 Total energy in the final basis set = -1510.28878430
   14   -1510.2755425483      3.48E-09 Convergence criterion met
 Total energy in the final basis set = -1510.27554255
   14   -1510.2894000755      2.59E-09 Convergence criterion met
 Total energy in the final basis set = -1510.28940008
   14   -1510.2906311828      1.53E-09 Convergence criterion met
 Total energy in the final basis set = -1510.29063118
   14   -1510.2900577479      2.75E-09 Convergence criterion met
   11   -1510.3010124286      7.51E-09 Convergence criterion met
 Total energy in the final basis set = -1510.30101243
   11   -1510.3010173508      7.37E-09 Convergence criterion met
 Total energy in the final basis set = -1510.30101735
   10   -1510.3010244806      7.18E-09 Convergence criterion met
 Total energy in the final basis set = -1510.30102448
   11   -1510.3010330227      7.71E-09 Convergence criterion met
 Total energy in the final basis set = -1510.30103302
   10   -1510.3010311255      8.02E-09 Convergence criterion met
 Total energy in the final basis set = -1510.30103113
    9   -1510.3010315310      4.26E-09 Convergence criterion met
 Total energy in the final basis set = -1510.30103153

             Standard Nuclear Orientation (Angstroms)
    I     Atom           X                Y                Z
 ----------------------------------------------------------------
    1      O       1.1547061151    -1.6248260851    -1.5242650606
    2      C       1.6602131681    -0.4853308183    -1.4310740942
    3      C       3.1223773352    -0.1421506053    -0.9578859022
    4      C       3.2344532949     0.6497689812     0.4061907111
    5      C       1.8840372544     0.7659320183     1.1863659989
    6      O       2.0068888194     1.8540599059     2.1085819550
    7      C       0.8698313750     1.9002414538     3.0582769865
    8      C      -0.5038821936     2.3524835427     2.4280008434
    9      O      -1.4026315978     1.1806131308     2.3190997020
   10      C      -1.7934621863     0.9721506472     0.9572952667
   11      C      -2.5962821117    -0.3649976313     0.8881604754
   12      C      -3.7062659328    -0.3984679317    -0.2424573408
   13      C      -3.7318337283     0.8944637927    -1.1366941313
   14      O      -3.3795663414     1.0012629824    -2.3300801941
   15      O       1.0436926111     0.7337673450    -1.8359382116
   16      O      -4.3072472562     1.9556369058    -0.3629139727
   17      O      -1.5144154883     1.7525110500     0.0194985847
   18      C      -4.2607019253     3.2167187024    -1.1359299996
   19      C      -1.6609237379    -1.5769571006     0.4360269658
   20      C      -2.3837261591    -2.9219892395     0.8234953724
   21      C      -3.5412644989    -2.9660621708    -0.2462470101
   22      C      -3.2453421207    -1.6583159879    -1.0797903117
   23      O      -1.7665572848    -1.5653890637    -1.0397360940
   24      H      -3.0265066708    -0.5559950369     1.8866436917
   25      H      -4.7086632365    -0.5367786873     0.2013309667
   26      H      -0.6008811281    -1.4638320963     0.7436603665
   27      H      -1.6938841419    -3.7723419873     0.7034417148
   28      H      -2.7591233761    -2.9116479570     1.8591927241
   29      H      -3.4635372494    -3.8580336689    -0.8877408197
   30      H      -4.5434283836    -2.9448598359     0.2112228041
   31      H      -3.5992618518    -1.6615530214    -2.1288431372
   32      O       0.8821936793     0.0232429158     1.0982091872
   33      C      -0.2845836337     0.4759834605    -2.4501680125
   34      C       3.9552167476    -1.4497398287    -0.6257068977
   35      C       5.4879533029    -1.0887274822    -0.7130230060
   36      C       5.6611179411    -0.2137207525     0.5844841078
   37      C       4.2155277797    -0.3098131467     1.2164203186
   38      O       3.7400155497    -1.6543894538     0.8273169267
   39      H       3.6032182417     0.4384950076    -1.7656579823
   40      H       3.6602168780     1.6600576263     0.2764757036
   41      H      -0.8645251843    -0.3032802984    -1.8926832476
   42      H       3.6302067329    -2.3444906767    -1.1913507243
   43      H       6.1028103192    -2.0017051450    -0.6657593004
   44      H       5.7376515038    -0.5406303338    -1.6354024526
   45      H       6.4099522339    -0.6433383588     1.2686777758
   46      H       5.9430906330     0.8276098923     0.3605542376
   47      H       4.1733993976    -0.1810177348     2.3156933653
   48      H      -0.1574373050     0.1554036432    -3.5043607639
   49      H      -0.8270371988     1.4377605020    -2.4247696047
   50      H      -4.7461547592     3.9831216162    -0.5042216790
   51      H      -4.8043927052     3.1281312797    -2.0986566468
   52      H      -3.2134569060     3.5162431143    -1.3467690480
   53      H      -0.9909723174     3.0977786780     3.0910511150
   54      H      -0.3641819093     2.7936580003     1.4157753875
   55      H       1.1865695433     2.6319573589     3.8283591462
   56      H       0.7201351541     0.9090640091     3.5409280775
 ----------------------------------------------------------------

    9   -1510.3010327422      2.87E-09 Convergence criterion met
 Total energy in the final basis set = -1510.30103274
 Final energy is   -1510.30103274217
 **  OPTIMIZATION CONVERGED  **

                    Orbital Energies (a.u.)
 --------------------------------------------------------------

 Alpha MOs
 -- Occupied --
-18.939 -18.933 -18.925 -18.902 -18.898 -18.883 -18.883 -18.878
-18.867 -18.847 -10.106 -10.102 -10.093 -10.078 -10.076 -10.070
-10.059 -10.059 -10.057 -10.054 -10.050 -10.036 -10.035 -10.035
-10.024 -10.018 -10.018 -10.016 -10.015 -10.008  -1.020  -1.011
 -1.002  -0.983  -0.973  -0.966  -0.943  -0.937  -0.929  -0.909
 -0.762  -0.757  -0.726  -0.719  -0.711  -0.701  -0.694  -0.657
 -0.631  -0.618  -0.592  -0.576  -0.544  -0.539  -0.535  -0.531
 -0.511  -0.504  -0.481  -0.464  -0.459  -0.449  -0.448  -0.444
 -0.435  -0.429  -0.425  -0.412  -0.406  -0.400  -0.397  -0.390
 -0.378  -0.375  -0.374  -0.361  -0.354  -0.353  -0.349  -0.345
 -0.341  -0.334  -0.329  -0.328  -0.325  -0.321  -0.317  -0.307
 -0.305  -0.302  -0.297  -0.295  -0.294  -0.279  -0.271  -0.269
 -0.265  -0.257  -0.249  -0.246  -0.239  -0.230  -0.215  -0.189
 -0.172  -0.168  -0.160  -0.157  -0.153  -0.146  -0.141  -0.139
 -0.128

          Ground-State Mulliken Net Atomic Charges

     Atom                 Charge (a.u.)
  ----------------------------------------
      1 O                    -0.216510
      2 C                     0.209830
      3 C                    -0.081267
      4 C                    -0.077457
      5 C                     0.218255
      6 O                    -0.172237
      7 C                    -0.050310
      8 C                    -0.056943
      9 O                    -0.171364
     10 C                     0.221658
     11 C                    -0.079040
     12 C                    -0.080800
     13 C                     0.214456
     14 O                    -0.212491
     15 O                    -0.180954
     16 O                    -0.175302
     17 O                    -0.213681
     18 C                    -0.128739
     19 C                     0.024093
     20 C                    -0.142575
     21 C                    -0.143563
     22 C                     0.027014
     23 O                    -0.178192
     24 H                     0.087411
     25 H                     0.084916
     26 H                     0.111104
     27 H                     0.082681
     28 H                     0.073672
     29 H                     0.079805
     30 H                     0.072828
     31 H                     0.090391
     32 O                    -0.213446
     33 C                    -0.151717
     34 C                     0.023989
     35 C                    -0.143591
     36 C                    -0.144046
     37 C                     0.025015
     38 O                    -0.190601
     39 H                     0.082342
     40 H                     0.087449
     41 H                     0.119138
     42 H                     0.090579
     43 H                     0.077046
     44 H                     0.073435
     45 H                     0.077152
     46 H                     0.073475
     47 H                     0.080328
     48 H                     0.068424
     49 H                     0.085484
     50 H                     0.087107
     51 H                     0.087742
     52 H                     0.092540
     53 H                     0.085122
     54 H                     0.105955
     55 H                     0.090356
     56 H                     0.094033
  ----------------------------------------
  Sum of atomic charges =     0.000000

                    Cartesian Multipole Moments
 -----------------------------------------------------------------
    Charge (ESU x 10^10)
                -0.0000
    Dipole Moment (Debye)
         X      -0.2108      Y       1.6485      Z       2.5549
       Tot       3.0479
    Quadrupole Moments (Debye-Ang)
        XX    -141.0293     XY       4.5817     YY    -156.0303
        XZ      -2.6200     YZ       3.0892     ZZ    -157.5269

 Total job time:  122.10s(wall), 5824.37s(cpu)
        *  Thank you very much for using Q-Chem.  Have a nice day.  *
