 Q-Chem 5.0, Q-Chem, Inc., Pleasanton, CA (2017)
 Q-Chem 5.0.1 for Intel X86 EM64T Linux

User input:
--------------------------------------------------------------
$molecule
0  1
O -3.94934 -3.66094 2.70899
C -3.26408 -4.56952 2.26188
C -3.36658 -6.02376 2.66595
C -2.37954 -6.52822 3.73137
C -1.51838 -5.48129 4.4025
O -0.42122 -6.0719 4.96183
C 0.4462 -5.14125 5.61813
C 1.2913 -4.39572 4.59046
O 1.72697 -3.13955 5.1337
C 2.18413 -2.23969 4.22794
C 2.68279 -0.96468 4.86541
C 3.222 0.08335 3.88094
C 2.86397 -0.13253 2.42427
O 2.13689 0.59036 1.75842
O -2.21417 -4.26112 1.45659
O 3.6486 -1.02407 1.75601
O 2.20329 -2.5165 3.03895
C 3.5722 -1.26957 0.40029
C 1.58207 -0.16052 5.58257
C 2.2165 0.7226 6.65447
C 2.93255 1.74123 5.7913
C 2.4447 1.31372 4.40075
O 1.16119 0.78619 4.63331
H 3.46186 -1.2665 5.60198
H 4.32259 0.23266 3.94272
H 0.78494 -0.79553 6.02714
H 1.38133 1.23151 7.18751
H 2.85576 0.19689 7.396
H 2.55126 2.75266 6.05509
H 4.04221 1.72182 5.85352
H 2.49776 2.17559 3.69945
O -1.93579 -4.37396 4.72581
C -1.89055 -2.9819 1.05567
C -4.70154 -6.30316 3.39622
C -5.04156 -7.79232 3.3277
C -4.0317 -8.35443 4.3029
C -3.36732 -7.0623 4.78552
O -4.40488 -6.1159 4.75603
H -3.36429 -6.62241 1.72775
H -1.71798 -7.33948 3.351
H -1.66185 -2.35019 1.94075
H -5.55205 -5.70852 2.9955
H -6.05964 -7.92434 3.75936
H -5.01499 -8.23147 2.30727
H -4.58258 -8.83448 5.14238
H -3.29948 -9.0707 3.87136
H -2.88568 -7.22583 5.77542
H -2.73106 -2.53648 0.48168
H -0.99311 -3.0208 0.40476
H 4.32022 -2.04204 0.12801
H 3.79196 -0.34214 -0.17049
H 2.55952 -1.64273 0.13621
H 2.12382 -5.01274 4.187
H 0.59969 -4.16207 3.74947
H 1.1311 -5.67232 6.31191
H -0.14046 -4.43864 6.25381
$end

$opt
CONSTRAINT
tors           1           2           3           4     -96.790
tors           3           4           5           6    -159.765
tors           4           5           6           7    +179.975
tors           5           6           7           8     -78.113
tors           6           7           8           9    +156.339
tors           7           8           9          10    -163.692
tors           8           9          10          11    -177.480
tors           9          10          11          12    +179.538
tors          11          12          13          14    +113.389
ENDCONSTRAINT
$end

$rem
JOBTYPE                   OPT
METHOD                    B3LYP
DFT_D                     d3_op
BASIS                     STO-3G
GEOM_OPT_MAX_CYCLES       100
GEOM_OPT_TOL_GRADIENT     300
GEOM_OPT_TOL_DISPLACEMENT 1200
GEOM_OPT_TOL_ENERGY       100
SYMMETRY                  False
THRESH                    12
SCF_CONVERGENCE           8
MAX_SUB_FILE_NUM          128
MEM_STATIC                400
MEM_TOTAL                 4000
$end
--------------------------------------------------------------

   15   -1510.1448546163      9.83E-09 Convergence criterion met
 Total energy in the final basis set = -1510.14485462
   14   -1510.2152676176      6.64E-09 Convergence criterion met
 Total energy in the final basis set = -1510.21526762
   14   -1510.2528554083      5.25E-09 Convergence criterion met
 Total energy in the final basis set = -1510.25285541
   14   -1510.2696910104      4.99E-09 Convergence criterion met
 Total energy in the final basis set = -1510.26969101
   13   -1510.2768434962      9.03E-09 Convergence criterion met
 Total energy in the final basis set = -1510.27684350
   13   -1510.2800769408      3.69E-09 Convergence criterion met
 Total energy in the final basis set = -1510.28007694
   13   -1510.2821019423      3.05E-09 Convergence criterion met
 Total energy in the final basis set = -1510.28210194
   13   -1510.2832833293      2.99E-09 Convergence criterion met
   11   -1510.2851760814      9.42E-09 Convergence criterion met
 Total energy in the final basis set = -1510.28517608
   10   -1510.2852214574      9.90E-09 Convergence criterion met
 Total energy in the final basis set = -1510.28522146
   10   -1510.2852541847      5.47E-09 Convergence criterion met
 Total energy in the final basis set = -1510.28525418
   10   -1510.2852705802      6.19E-09 Convergence criterion met
 Total energy in the final basis set = -1510.28527058
   10   -1510.2852791320      5.07E-09 Convergence criterion met
 Total energy in the final basis set = -1510.28527913
    9   -1510.2852817087      5.57E-09 Convergence criterion met
 Total energy in the final basis set = -1510.28528171

             Standard Nuclear Orientation (Angstroms)
    I     Atom           X                Y                Z
 ----------------------------------------------------------------
    1      O      -3.0287067738     0.5646122566     2.5908958315
    2      C      -3.1032237511     1.0862520189     1.4590058601
    3      C      -4.2737463969     0.9469781347     0.4129432735
    4      C      -4.0167901189    -0.1583089621    -0.6947074304
    5      C      -2.5974118813    -0.8021865795    -0.6059260826
    6      O      -2.2811955831    -1.4051400417    -1.8697234848
    7      C      -0.9328749233    -2.0210785430    -1.7993709985
    8      C       0.1886336565    -0.9256365319    -1.9278832051
    9      O       1.4122944816    -1.4758903460    -1.2917236853
   10      C       2.3407082430    -0.4201797001    -1.0337601977
   11      C       3.6451282979    -1.0317145583    -0.4239085998
   12      C       4.7365137376     0.0717885864    -0.1172691454
   13      C       4.4001527208     1.5056658377    -0.6749298081
   14      O       4.1517350826     2.5358030936    -0.0138649060
   15      O      -2.1108754794     1.9498074835     0.8874916917
   16      O       4.6041114800     1.4779607021    -2.0972338545
   17      O       2.0980648156     0.7902602355    -1.2421518313
   18      C       4.2493419686     2.7909761578    -2.6777817106
   19      C       3.3501285367    -1.5670719341     1.0440632470
   20      C       4.6053729492    -2.3791930654     1.5550538725
   21      C       5.5984792587    -1.2143198055     1.9230837769
   22      C       4.7627622705     0.0436873970     1.4682678389
   23      O       3.3753037193    -0.3221792831     1.8440637221
   24      H       4.0200582400    -1.8290545168    -1.0904448205
   25      H       5.7109373925    -0.2307457677    -0.5414483703
   26      H       2.3758647930    -2.0833457371     1.1487814374
   27      H       4.3412455732    -2.9829401998     2.4377263815
   28      H       5.0061491943    -3.0486018243     0.7770786539
   29      H       5.7894375561    -1.1768585860     3.0074790238
   30      H       6.5627540734    -1.2920258504     1.3958082308
   31      H       5.0437330532     1.0096272462     1.9310060612
   32      O      -1.8286939173    -0.8280068257     0.3805542765
   33      C      -0.9141357078     1.9873601395     1.7587611784
   34      C      -5.5678323832     0.3604033416     1.1170779027
   35      C      -6.8028191227     0.5430449847     0.1498029518
   36      C      -6.5347641196    -0.5912234303    -0.9072506623
   37      C      -5.1803639162    -1.1966834244    -0.3645970200
   38      O      -5.3227851644    -1.1024147722     1.1033975051
   39      H      -4.4554187477     1.9322695086    -0.0516981268
   40      H      -4.1389180518     0.2523816133    -1.7128434859
   41      H      -0.4797315593     0.9741768708     1.8821823418
   42      H      -5.7166745597     0.7123966958     2.1559799314
   43      H      -7.7473485292     0.3761292015     0.6915546663
   44      H      -6.8271299764     1.5473988984    -0.3024501818
   45      H      -7.3280130947    -1.3559131307    -0.8906231756
   46      H      -6.4381377009    -0.2053757976    -1.9346805490
   47      H      -4.9697027910    -2.2388443653    -0.6744398675
   48      H      -1.1489313455     2.3974067064     2.7622035526
   49      H      -0.1837157540     2.6441120363     1.2512155469
   50      H       4.4946651685     2.7293290579    -3.7541057570
   51      H       4.8248278540     3.6164030340    -2.2109966629
   52      H       3.1670370062     3.0025375565    -2.5555036186
   53      H       0.3832468884    -0.6770858285    -2.9934769486
   54      H      -0.1244272221     0.0052984347    -1.4078806189
   55      H      -0.8828113635    -2.7430649950    -2.6378694710
   56      H      -0.7938694767    -2.5570909694    -0.8357220967
 ----------------------------------------------------------------

    9   -1510.2852825639      2.41E-09 Convergence criterion met
 Total energy in the final basis set = -1510.28528256
 Final energy is   -1510.28528256390
 **  OPTIMIZATION CONVERGED  **

                    Orbital Energies (a.u.)
 --------------------------------------------------------------

 Alpha MOs
 -- Occupied --
-18.943 -18.943 -18.917 -18.917 -18.888 -18.888 -18.887 -18.885
-18.860 -18.859 -10.108 -10.107 -10.089 -10.087 -10.081 -10.077
-10.063 -10.060 -10.056 -10.055 -10.053 -10.048 -10.041 -10.041
-10.032 -10.032 -10.021 -10.020 -10.019 -10.018  -1.024  -1.019
 -0.996  -0.995  -0.970  -0.969  -0.947  -0.943  -0.923  -0.921
 -0.764  -0.762  -0.730  -0.722  -0.714  -0.705  -0.696  -0.653
 -0.650  -0.621  -0.595  -0.582  -0.545  -0.544  -0.537  -0.536
 -0.516  -0.508  -0.484  -0.471  -0.459  -0.454  -0.452  -0.450
 -0.441  -0.431  -0.429  -0.408  -0.405  -0.402  -0.401  -0.398
 -0.397  -0.381  -0.374  -0.363  -0.360  -0.354  -0.348  -0.344
 -0.342  -0.339  -0.338  -0.331  -0.331  -0.325  -0.324  -0.312
 -0.311  -0.305  -0.303  -0.301  -0.296  -0.277  -0.275  -0.274
 -0.273  -0.261  -0.256  -0.243  -0.241  -0.234  -0.233  -0.189
 -0.184  -0.164  -0.163  -0.161  -0.159  -0.144  -0.144  -0.140
 -0.139

          Ground-State Mulliken Net Atomic Charges

     Atom                 Charge (a.u.)
  ----------------------------------------
      1 O                    -0.211017
      2 C                     0.213864
      3 C                    -0.080434
      4 C                    -0.079200
      5 C                     0.211050
      6 O                    -0.171071
      7 C                    -0.049436
      8 C                    -0.049953
      9 O                    -0.171905
     10 C                     0.217090
     11 C                    -0.077322
     12 C                    -0.081744
     13 C                     0.216343
     14 O                    -0.218104
     15 O                    -0.177664
     16 O                    -0.177901
     17 O                    -0.205498
     18 C                    -0.128626
     19 C                     0.024785
     20 C                    -0.144237
     21 C                    -0.143385
     22 C                     0.024014
     23 O                    -0.189875
     24 H                     0.086989
     25 H                     0.083296
     26 H                     0.086811
     27 H                     0.078698
     28 H                     0.073026
     29 H                     0.078341
     30 H                     0.073056
     31 H                     0.090165
     32 O                    -0.206566
     33 C                    -0.129801
     34 C                     0.025691
     35 C                    -0.144671
     36 C                    -0.142969
     37 C                     0.025996
     38 O                    -0.186084
     39 H                     0.084055
     40 H                     0.086749
     41 H                     0.094978
     42 H                     0.088482
     43 H                     0.078227
     44 H                     0.073546
     45 H                     0.078260
     46 H                     0.073655
     47 H                     0.083414
     48 H                     0.086273
     49 H                     0.091021
     50 H                     0.085157
     51 H                     0.086926
     52 H                     0.090627
     53 H                     0.085664
     54 H                     0.099743
     55 H                     0.091632
     56 H                     0.099842
  ----------------------------------------
  Sum of atomic charges =     0.000000

                    Cartesian Multipole Moments
 -----------------------------------------------------------------
    Charge (ESU x 10^10)
                 0.0000
    Dipole Moment (Debye)
         X       0.2988      Y      -1.2718      Z      -3.6191
       Tot       3.8477
    Quadrupole Moments (Debye-Ang)
        XX    -141.2833     XY     -11.2820     YY    -157.2338
        XZ       7.5790     YZ       1.2769     ZZ    -161.9532

 Total job time:  55.22s(wall), 2625.32s(cpu)
        *  Thank you very much for using Q-Chem.  Have a nice day.  *
