 Q-Chem 5.0, Q-Chem, Inc., Pleasanton, CA (2017)
 Q-Chem 5.0.1 for Intel X86 EM64T Linux

User input:
--------------------------------------------------------------
$molecule
0  1
O -3.94934 -3.66094 2.70899
C -3.26408 -4.56952 2.26188
C -3.36658 -6.02376 2.66595
C -2.34665 -6.54104 3.69358
C -1.4511 -5.50466 4.33544
O -0.52553 -6.11922 5.12984
C 0.43979 -5.21313 5.67427
C 1.50874 -4.89621 4.63358
O 1.96101 -3.54238 4.79318
C 2.88562 -3.12646 3.89247
C 3.51483 -1.80453 4.26293
C 4.64892 -1.34483 3.33514
C 4.74752 -2.06478 2.00524
O 4.42066 -1.60115 0.92229
O -2.2533 -4.26812 1.40455
O 5.43092 -3.24266 2.02163
O 3.18288 -3.83273 2.94066
C 5.70536 -3.9999 0.90155
C 2.54435 -0.61469 4.17838
C 3.036 0.50762 5.08956
C 4.26367 0.96792 4.33049
C 4.15162 0.0967 3.07258
O 2.76573 -0.07769 2.89957
H 3.88454 -1.91821 5.30753
H 5.65806 -1.34117 3.80314
H 1.49311 -0.88182 4.4233
H 2.26995 1.31521 5.05163
H 3.2134 0.22113 6.14852
H 4.13557 2.04417 4.07879
H 5.23291 0.80955 4.85104
H 4.69007 0.58113 2.22805
O -1.48199 -4.29646 4.13267
C -1.96462 -2.99503 0.95969
C -4.66967 -6.30341 3.45574
C -5.03096 -7.78619 3.36809
C -3.97033 -8.38776 4.26392
C -3.28215 -7.11571 4.76778
O -4.31153 -6.16032 4.80829
H -3.41269 -6.62106 1.72776
H -1.67712 -7.30078 3.23133
H -1.70839 -2.3382 1.8184
H -5.53218 -5.69088 3.11201
H -6.02137 -7.9112 3.86211
H -5.08046 -8.20514 2.34009
H -4.4761 -8.91638 5.10239
H -3.25369 -9.07167 3.75954
H -2.7625 -7.31419 5.73095
H -2.83465 -2.57495 0.41118
H -1.09512 -3.03852 0.27227
H 6.26903 -4.90598 1.20438
H 6.32355 -3.41619 0.18647
H 4.75924 -4.31409 0.41112
H 2.32908 -5.64767 4.66599
H 1.03705 -4.9486 3.62637
H 0.92908 -5.64506 6.57257
H -0.06557 -4.28754 6.03746
$end

$opt
CONSTRAINT
tors           1           2           3           4     -98.956
tors           3           4           5           6    -174.666
tors           4           5           6           7    +174.450
tors           5           6           7           8     -79.925
tors           6           7           8           9    +146.247
tors           7           8           9          10    -177.917
tors           8           9          10          11    -168.933
tors           9          10          11          12    +175.286
tors          11          12          13          14    +105.703
ENDCONSTRAINT
$end

$rem
JOBTYPE                   OPT
METHOD                    B3LYP
DFT_D                     d3_op
BASIS                     STO-3G
GEOM_OPT_MAX_CYCLES       100
GEOM_OPT_TOL_GRADIENT     300
GEOM_OPT_TOL_DISPLACEMENT 1200
GEOM_OPT_TOL_ENERGY       100
SYMMETRY                  False
THRESH                    12
SCF_CONVERGENCE           8
MAX_SUB_FILE_NUM          128
MEM_STATIC                400
MEM_TOTAL                 4000
$end
--------------------------------------------------------------

   15   -1510.1526711280      5.96E-09 Convergence criterion met
 Total energy in the final basis set = -1510.15267113
   13   -1510.2222173110      8.97E-09 Convergence criterion met
 Total energy in the final basis set = -1510.22221731
   13   -1510.2592150864      9.06E-09 Convergence criterion met
 Total energy in the final basis set = -1510.25921509
   14   -1510.2748195715      3.35E-09 Convergence criterion met
 Total energy in the final basis set = -1510.27481957
   13   -1510.2798649571      7.16E-09 Convergence criterion met
 Total energy in the final basis set = -1510.27986496
   13   -1510.2817374898      3.64E-09 Convergence criterion met
 Total energy in the final basis set = -1510.28173749
   13   -1510.2826507939      1.55E-09 Convergence criterion met
 Total energy in the final basis set = -1510.28265079
   12   -1510.2832274819      5.90E-09 Convergence criterion met
   11   -1510.2840343021      7.01E-09 Convergence criterion met
 Total energy in the final basis set = -1510.28403430
   12   -1510.2841250882      3.14E-09 Convergence criterion met
 Total energy in the final basis set = -1510.28412509
   11   -1510.2841669473      3.50E-09 Convergence criterion met
 Total energy in the final basis set = -1510.28416695
   10   -1510.2842001263      6.90E-09 Convergence criterion met
 Total energy in the final basis set = -1510.28420013
   10   -1510.2842286770      5.17E-09 Convergence criterion met
 Total energy in the final basis set = -1510.28422868
    9   -1510.2842396293      6.31E-09 Convergence criterion met
 Total energy in the final basis set = -1510.28423963

             Standard Nuclear Orientation (Angstroms)
    I     Atom           X                Y                Z
 ----------------------------------------------------------------
    1      O       3.6409679205    -2.7052307840    -0.1780393713
    2      C       3.4816398032    -1.6817267078    -0.8757270509
    3      C       4.4287224264    -0.4260410822    -0.9627627051
    4      C       3.9680148126     0.8069153061    -0.0823607941
    5      C       2.6384450519     0.5460690105     0.6966105181
    6      O       2.2472184257     1.7573528528     1.3568348911
    7      C       0.9203347431     1.5777154121     1.9940281587
    8      C      -0.2426764866     1.7194983168     0.9418317600
    9      O      -1.3167518712     0.7863744688     1.3662828989
   10      C      -2.3946468798     0.8227266194     0.4274006070
   11      C      -3.6171086567     0.0583343721     1.0362576908
   12      C      -4.9103352570     0.1382727960     0.1267592441
   13      C      -4.7538444859     1.0238183722    -1.1654446817
   14      O      -4.6361496734     0.6279594593    -2.3440795691
   15      O       2.4229759576    -1.4957168024    -1.8264651296
   16      O      -4.9195861961     2.3980012160    -0.7810811969
   17      O      -2.3360544165     1.4024068461    -0.6803072427
   18      C      -4.7319241084     3.2685437697    -1.9620673145
   19      C      -3.3601463898    -1.5122727296     1.0530287333
   20      C      -4.4624037375    -2.1912751802     1.9584292057
   21      C      -5.7166229161    -2.1330317092     1.0097640562
   22      C      -5.1116393767    -1.3911202229    -0.2453349202
   23      O      -3.7284232758    -1.9193431608    -0.3205380531
   24      H      -3.7993426632     0.4483006918     2.0537855626
   25      H      -5.7629868988     0.5324261645     0.7081036674
   26      H      -2.3154004213    -1.7991969644     1.2830489023
   27      H      -4.1797039819    -3.2295450517     2.1941196979
   28      H      -4.6170241378    -1.6445010194     2.9025089568
   29      H      -6.0589832091    -3.1426742840     0.7319572058
   30      H      -6.5614381948    -1.5818088295     1.4527099040
   31      H      -5.6372171307    -1.5573885550    -1.2056402535
   32      O       1.9900687822    -0.5218833905     0.7642882062
   33      C       1.4489484598    -2.6041305016    -1.7150345311
   34      C       5.8391889095    -0.7438568446    -0.3139120347
   35      C       6.8671739245     0.3610129681    -0.7770536208
   36      C       6.4110278060     1.5867108637     0.0985666600
   37      C       5.2089565490     0.9545416143     0.9053536169
   38      O       5.6317041490    -0.4455965981     1.1236936987
   39      H       4.5159011293    -0.1328088337    -2.0239334403
   40      H       3.8350698115     1.7188363089    -0.6921875206
   41      H       0.9866602425    -2.6300368225    -0.7070100760
   42      H       6.1698522101    -1.7925364526    -0.4420795805
   43      H       7.8979625905     0.0553641708    -0.5372274888
   44      H       6.7994281869     0.5618576707    -1.8581385319
   45      H       7.2068109664     1.9102504759     0.7884800419
   46      H       6.0965804178     2.4520062318    -0.5067656765
   47      H       4.9701118192     1.4505342567     1.8662327715
   48      H       1.9216207320    -3.5879563104    -1.9129242052
   49      H       0.6698122074    -2.4076641373    -2.4745009238
   50      H      -4.9249969295     4.3015081704    -1.6185271048
   51      H      -5.4365635398     3.0099252401    -2.7788245660
   52      H      -3.6964989409     3.1942495396    -2.3536767326
   53      H      -0.6247972608     2.7619211812     0.8977963272
   54      H       0.1280599920     1.4488883919    -0.0716067151
   55      H       0.8486008798     2.3583614651     2.7762514815
   56      H       0.8452162855     0.5715182917     2.4606671586
 ----------------------------------------------------------------

    9   -1510.2842405799      6.12E-09 Convergence criterion met
 Total energy in the final basis set = -1510.28424058
 Final energy is   -1510.28424057989
 **  OPTIMIZATION CONVERGED  **

                    Orbital Energies (a.u.)
 --------------------------------------------------------------

 Alpha MOs
 -- Occupied --
-18.944 -18.942 -18.918 -18.917 -18.891 -18.888 -18.887 -18.886
-18.859 -18.858 -10.109 -10.108 -10.089 -10.088 -10.082 -10.080
-10.062 -10.061 -10.057 -10.056 -10.053 -10.050 -10.042 -10.041
-10.032 -10.032 -10.021 -10.020 -10.019 -10.018  -1.025  -1.020
 -0.997  -0.995  -0.970  -0.969  -0.949  -0.944  -0.923  -0.921
 -0.764  -0.762  -0.730  -0.722  -0.715  -0.705  -0.697  -0.654
 -0.651  -0.621  -0.596  -0.582  -0.545  -0.544  -0.537  -0.537
 -0.517  -0.509  -0.487  -0.467  -0.460  -0.454  -0.453  -0.448
 -0.444  -0.432  -0.430  -0.409  -0.407  -0.403  -0.402  -0.400
 -0.398  -0.381  -0.374  -0.363  -0.362  -0.354  -0.351  -0.345
 -0.343  -0.338  -0.336  -0.331  -0.331  -0.325  -0.325  -0.314
 -0.311  -0.305  -0.304  -0.301  -0.298  -0.278  -0.275  -0.275
 -0.274  -0.260  -0.256  -0.244  -0.242  -0.234  -0.233  -0.188
 -0.186  -0.164  -0.164  -0.161  -0.161  -0.145  -0.144  -0.140
 -0.139

          Ground-State Mulliken Net Atomic Charges

     Atom                 Charge (a.u.)
  ----------------------------------------
      1 O                    -0.215501
      2 C                     0.214954
      3 C                    -0.081433
      4 C                    -0.078336
      5 C                     0.213283
      6 O                    -0.171927
      7 C                    -0.050220
      8 C                    -0.048081
      9 O                    -0.172044
     10 C                     0.215375
     11 C                    -0.077898
     12 C                    -0.081658
     13 C                     0.215626
     14 O                    -0.216455
     15 O                    -0.176326
     16 O                    -0.177198
     17 O                    -0.204661
     18 C                    -0.128559
     19 C                     0.025111
     20 C                    -0.143845
     21 C                    -0.143941
     22 C                     0.024985
     23 O                    -0.188845
     24 H                     0.086497
     25 H                     0.083403
     26 H                     0.086708
     27 H                     0.078687
     28 H                     0.073207
     29 H                     0.078161
     30 H                     0.073051
     31 H                     0.089167
     32 O                    -0.203774
     33 C                    -0.128665
     34 C                     0.025435
     35 C                    -0.144324
     36 C                    -0.143445
     37 C                     0.025414
     38 O                    -0.187847
     39 H                     0.084211
     40 H                     0.087026
     41 H                     0.092297
     42 H                     0.088703
     43 H                     0.078195
     44 H                     0.073618
     45 H                     0.078259
     46 H                     0.073500
     47 H                     0.084984
     48 H                     0.085962
     49 H                     0.088984
     50 H                     0.085126
     51 H                     0.086765
     52 H                     0.091343
     53 H                     0.087506
     54 H                     0.094327
     55 H                     0.091957
     56 H                     0.103156
  ----------------------------------------
  Sum of atomic charges =    -0.000000

                    Cartesian Multipole Moments
 -----------------------------------------------------------------
    Charge (ESU x 10^10)
                 0.0000
    Dipole Moment (Debye)
         X      -0.4665      Y       2.9902      Z       1.3216
       Tot       3.3024
    Quadrupole Moments (Debye-Ang)
        XX    -147.9762     XY       9.5089     YY    -157.6847
        XZ     -16.4307     YZ       1.7209     ZZ    -160.2459

 Total job time:  46.60s(wall), 2213.99s(cpu)
        *  Thank you very much for using Q-Chem.  Have a nice day.  *
