 Q-Chem 5.0, Q-Chem, Inc., Pleasanton, CA (2017)
 Q-Chem 5.0.1 for Intel X86 EM64T Linux

User input:
--------------------------------------------------------------
$molecule
0  1
O 3.6409679205 -2.705230784 -0.1780393713
C 3.4816398032 -1.6817267078 -0.8757270509
C 4.4287224264 -0.4260410822 -0.9627627051
C 3.9680148126 0.8069153061 -0.0823607941
C 2.6384450519 0.5460690105 0.6966105181
O 2.2472184257 1.7573528528 1.3568348911
C 0.9203347431 1.5777154121 1.9940281587
C -0.2426764866 1.7194983168 0.94183176
O -1.3167518712 0.7863744688 1.3662828989
C -2.3946468798 0.8227266194 0.427400607
C -3.6171086567 0.0583343721 1.0362576908
C -4.910335257 0.138272796 0.1267592441
C -4.7538444859 1.0238183722 -1.1654446817
O -4.6361496734 0.6279594593 -2.3440795691
O 2.4229759576 -1.4957168024 -1.8264651296
O -4.9195861961 2.398001216 -0.7810811969
O -2.3360544165 1.4024068461 -0.6803072427
C -4.7319241084 3.2685437697 -1.9620673145
C -3.3601463898 -1.5122727296 1.0530287333
C -4.4624037375 -2.1912751802 1.9584292057
C -5.7166229161 -2.1330317092 1.0097640562
C -5.1116393767 -1.3911202229 -0.2453349202
O -3.7284232758 -1.9193431608 -0.3205380531
H -3.7993426632 0.4483006918 2.0537855626
H -5.7629868988 0.5324261645 0.7081036674
H -2.3154004213 -1.7991969644 1.2830489023
H -4.1797039819 -3.2295450517 2.1941196979
H -4.6170241378 -1.6445010194 2.9025089568
H -6.0589832091 -3.142674284 0.7319572058
H -6.5614381948 -1.5818088295 1.452709904
H -5.6372171307 -1.557388555 -1.2056402535
O 1.9900687822 -0.5218833905 0.7642882062
C 1.4489484598 -2.6041305016 -1.7150345311
C 5.8391889095 -0.7438568446 -0.3139120347
C 6.8671739245 0.3610129681 -0.7770536208
C 6.411027806 1.5867108637 0.09856666
C 5.208956549 0.9545416143 0.9053536169
O 5.631704149 -0.4455965981 1.1236936987
H 4.5159011293 -0.1328088337 -2.0239334403
H 3.8350698115 1.7188363089 -0.6921875206
H 0.9866602425 -2.6300368225 -0.707010076
H 6.1698522101 -1.7925364526 -0.4420795805
H 7.8979625905 0.0553641708 -0.5372274888
H 6.7994281869 0.5618576707 -1.8581385319
H 7.2068109664 1.9102504759 0.7884800419
H 6.0965804178 2.4520062318 -0.5067656765
H 4.9701118192 1.4505342567 1.8662327715
H 1.921620732 -3.5879563104 -1.9129242052
H 0.6698122074 -2.4076641373 -2.4745009238
H -4.9249969295 4.3015081704 -1.6185271048
H -5.4365635398 3.0099252401 -2.778824566
H -3.6964989409 3.1942495396 -2.3536767326
H -0.6247972608 2.7619211812 0.8977963272
H 0.128059992 1.4488883919 -0.0716067151
H 0.8486008798 2.3583614651 2.7762514815
H 0.8452162855 0.5715182917 2.4606671586
$end

$rem
JOBTYPE                   OPT
METHOD                    B3LYP
DFT_D                     d3_op
BASIS                     STO-3G
GEOM_OPT_MAX_CYCLES       100
GEOM_OPT_TOL_GRADIENT     300
GEOM_OPT_TOL_DISPLACEMENT 1200
GEOM_OPT_TOL_ENERGY       100
SYMMETRY                  False
THRESH                    12
SCF_CONVERGENCE           8
MAX_SUB_FILE_NUM          128
MEM_STATIC                400
MEM_TOTAL                 4000
$end
--------------------------------------------------------------

   16   -1510.2842209702      5.13E-09 Convergence criterion met
 Total energy in the final basis set = -1510.28422097
   14   -1510.2854501153      1.30E-09 Convergence criterion met
 Total energy in the final basis set = -1510.28545012
   14   -1510.2862077991      1.60E-09 Convergence criterion met
 Total energy in the final basis set = -1510.28620780
   13   -1510.2865659670      9.78E-09 Convergence criterion met
 Total energy in the final basis set = -1510.28656597
   14   -1510.2869223928      1.95E-09 Convergence criterion met
 Total energy in the final basis set = -1510.28692239
   14   -1510.2892749715      2.51E-09 Convergence criterion met
 Total energy in the final basis set = -1510.28927497
   16   -1509.8600191044      4.39E-09 Convergence criterion met
 Total energy in the final basis set = -1509.86001910
   21   -1510.2841552746      3.88E-09 Convergence criterion met
   11   -1510.3012511028      4.95E-09 Convergence criterion met
 Total energy in the final basis set = -1510.30125110
    9   -1510.3012544359      4.15E-09 Convergence criterion met
 Total energy in the final basis set = -1510.30125444
    9   -1510.3012553410      4.18E-09 Convergence criterion met
 Total energy in the final basis set = -1510.30125534
    9   -1510.3012556155      7.66E-09 Convergence criterion met
 Total energy in the final basis set = -1510.30125562
   10   -1510.3012565192      6.00E-09 Convergence criterion met
 Total energy in the final basis set = -1510.30125652
   10   -1510.3012557545      9.86E-09 Convergence criterion met
 Total energy in the final basis set = -1510.30125575

             Standard Nuclear Orientation (Angstroms)
    I     Atom           X                Y                Z
 ----------------------------------------------------------------
    1      O       1.2425632636    -1.7959810608    -1.4620961732
    2      C       1.7198360087    -0.6444955472    -1.3694911867
    3      C       3.1922550348    -0.2790666486    -0.9580157461
    4      C       3.3341710513     0.7574532051     0.2298401482
    5      C       1.9903703011     1.1085350130     0.9510330227
    6      O       1.9917254357     2.5202572200     1.2018061694
    7      C       0.8707215914     2.9275452660     2.0804639052
    8      C      -0.5318624970     2.9777004059     1.3685625528
    9      O      -1.2590241571     1.7325687535     1.7092742513
   10      C      -2.0520207772     1.2797193059     0.6143466896
   11      C      -2.6207079107    -0.1253594927     0.9948417217
   12      C      -3.6766332222    -0.6944418368    -0.0374454796
   13      C      -3.9089347493     0.2282534887    -1.2906142987
   14      O      -3.4402256785     0.0794907792    -2.4388225741
   15      O       1.0336773462     0.5634829658    -1.6865108687
   16      O      -4.8691629210     1.2313409342    -0.9280646697
   17      O      -2.2026499244     1.9097791059    -0.4575359518
   18      C      -5.0565319175     2.1697874502    -2.0563319261
   19      C      -1.4785593462    -1.2383425525     0.9250024774
   20      C      -1.9795308554    -2.4969857374     1.7279094108
   21      C      -3.0765579257    -3.0681272942     0.7511435091
   22      C      -2.9801940439    -2.0538218639    -0.4544192658
   23      O      -1.5398282136    -1.7025954890    -0.4802968519
   24      H      -3.0396640866    -0.0660222603     2.0150898066
   25      H      -4.6515113309    -0.8613173959     0.4542209787
   26      H      -0.4617943848    -0.8559230846     1.1669460832
   27      H      -1.1540950714    -3.2128475992     1.8678500988
   28      H      -2.3860557638    -2.2249881009     2.7149578010
   29      H      -2.8270638908    -4.0876583310     0.4168995051
   30      H      -4.0822693913    -3.0794696864     1.2013128101
   31      H      -3.2951230899    -2.4447037870    -1.4412902257
   32      O       1.0964483349     0.3246967353     1.3362886459
   33      C      -0.3284275244     0.2671554945    -2.2057351468
   34      C       3.9622540777    -1.5351318730    -0.3735390808
   35      C       5.5107755274    -1.2689942601    -0.5019684892
   36      C       5.7139903315    -0.1658679055     0.6024969331
   37      C       4.2614520986    -0.0758297224     1.2218389736
   38      O       3.7264001298    -1.4477734853     1.0878976056
   39      H       3.7012382964     0.1143986851    -1.8573423390
   40      H       3.8103277021     1.6991573750    -0.0935094181
   41      H      -0.8381486737    -0.5260102470    -1.5991386189
   42      H       3.5952801140    -2.5032454990    -0.7669312469
   43      H       6.0796653581    -2.1828222687    -0.2671673871
   44      H       5.7945320599    -0.9231530633    -1.5087165604
   45      H       6.4403928710    -0.4837415362     1.3672287479
   46      H       6.0414755930     0.7988719713     0.1832456654
   47      H       4.2210351260     0.2569189339     2.2774587957
   48      H      -0.2738150789    -0.0519998839    -3.2656693615
   49      H      -0.8959201988     1.2129249120    -2.1336066285
   50      H      -5.8408863315     2.8813873543    -1.7389240946
   51      H      -5.3802099879     1.6448154403    -2.9782703468
   52      H      -4.1192315366     2.7219675519    -2.2742133091
   53      H      -1.1076679275     3.8517416707     1.7444262111
   54      H      -0.4266168350     3.0760378794     0.2661992178
   55      H       1.1440122966     3.9449051925     2.4260192393
   56      H       0.7907255642     2.2515187271     2.9600632736
 ----------------------------------------------------------------

    9   -1510.3012547773      4.84E-09 Convergence criterion met
 Total energy in the final basis set = -1510.30125478
 Final energy is   -1510.30125477726
 **  OPTIMIZATION CONVERGED  **

                    Orbital Energies (a.u.)
 --------------------------------------------------------------

 Alpha MOs
 -- Occupied --
-18.940 -18.939 -18.919 -18.908 -18.897 -18.884 -18.883 -18.882
-18.860 -18.855 -10.105 -10.105 -10.089 -10.081 -10.080 -10.077
-10.059 -10.057 -10.053 -10.051 -10.049 -10.036 -10.036 -10.032
-10.028 -10.019 -10.017 -10.016 -10.014 -10.012  -1.021  -1.013
 -0.997  -0.989  -0.971  -0.966  -0.944  -0.941  -0.924  -0.915
 -0.762  -0.758  -0.728  -0.719  -0.712  -0.701  -0.695  -0.653
 -0.634  -0.619  -0.593  -0.578  -0.543  -0.539  -0.534  -0.532
 -0.514  -0.504  -0.483  -0.463  -0.459  -0.450  -0.449  -0.441
 -0.439  -0.429  -0.426  -0.410  -0.405  -0.401  -0.398  -0.395
 -0.382  -0.376  -0.373  -0.361  -0.359  -0.354  -0.347  -0.346
 -0.339  -0.337  -0.330  -0.328  -0.327  -0.321  -0.317  -0.308
 -0.306  -0.300  -0.299  -0.296  -0.291  -0.276  -0.276  -0.269
 -0.265  -0.256  -0.252  -0.243  -0.241  -0.231  -0.220  -0.192
 -0.174  -0.164  -0.162  -0.157  -0.155  -0.142  -0.141  -0.140
 -0.133

          Ground-State Mulliken Net Atomic Charges

     Atom                 Charge (a.u.)
  ----------------------------------------
      1 O                    -0.210395
      2 C                     0.208141
      3 C                    -0.080188
      4 C                    -0.077954
      5 C                     0.219001
      6 O                    -0.170641
      7 C                    -0.048818
      8 C                    -0.051871
      9 O                    -0.167932
     10 C                     0.218053
     11 C                    -0.079358
     12 C                    -0.082372
     13 C                     0.214529
     14 O                    -0.216850
     15 O                    -0.183256
     16 O                    -0.175282
     17 O                    -0.212920
     18 C                    -0.128414
     19 C                     0.017039
     20 C                    -0.142535
     21 C                    -0.143630
     22 C                     0.027519
     23 O                    -0.179984
     24 H                     0.087205
     25 H                     0.084634
     26 H                     0.114889
     27 H                     0.082576
     28 H                     0.073086
     29 H                     0.079716
     30 H                     0.072587
     31 H                     0.089756
     32 O                    -0.213253
     33 C                    -0.156272
     34 C                     0.023704
     35 C                    -0.143464
     36 C                    -0.144208
     37 C                     0.025342
     38 O                    -0.188646
     39 H                     0.082537
     40 H                     0.086957
     41 H                     0.119023
     42 H                     0.092157
     43 H                     0.077515
     44 H                     0.073332
     45 H                     0.077245
     46 H                     0.073308
     47 H                     0.079833
     48 H                     0.072970
     49 H                     0.084693
     50 H                     0.085902
     51 H                     0.086999
     52 H                     0.091558
     53 H                     0.085492
     54 H                     0.103811
     55 H                     0.091008
     56 H                     0.096124
  ----------------------------------------
  Sum of atomic charges =    -0.000000

                    Cartesian Multipole Moments
 -----------------------------------------------------------------
    Charge (ESU x 10^10)
                -0.0000
    Dipole Moment (Debye)
         X       0.2230      Y       2.3034      Z       2.1099
       Tot       3.1316
    Quadrupole Moments (Debye-Ang)
        XX    -141.7062     XY       4.3463     YY    -154.6136
        XZ      -4.0262     YZ       2.2225     ZZ    -159.2252

 Total job time:  151.07s(wall), 7203.38s(cpu)
        *  Thank you very much for using Q-Chem.  Have a nice day.  *
