 Q-Chem 5.0, Q-Chem, Inc., Pleasanton, CA (2017)
 Q-Chem 5.0.1 for Intel X86 EM64T Linux

User input:
--------------------------------------------------------------
$molecule
0  1
O -3.94934 -3.66094 2.70899
C -3.26408 -4.56952 2.26188
C -3.36658 -6.02376 2.66595
C -2.24262 -6.5882 3.55024
C -1.23505 -5.59128 4.07849
O -0.19529 -6.25112 4.6692
C 0.81471 -5.37199 5.17544
C 1.58644 -4.73873 4.02239
O 2.00072 -3.41119 4.3814
C 2.45069 -2.6439 3.35771
C 2.93892 -1.288 3.80916
C 3.56363 -0.42398 2.70395
C 3.29235 -0.87235 1.28196
O 2.47548 -0.36972 0.5239
O -2.28556 -4.27481 1.36546
O 4.14332 -1.81236 0.78598
O 2.50739 -3.09165 2.22164
C 4.10337 -2.29411 -0.50609
C 1.81633 -0.37177 4.32347
C 2.40612 0.6751 5.26572
C 3.17286 1.53639 4.28331
C 2.763 0.8756 2.96082
O 1.46116 0.39993 3.20544
H 3.67565 -1.47776 4.62274
H 4.65587 -0.24267 2.81122
H 0.98903 -0.92202 4.82279
H 1.55311 1.26714 5.6686
H 3.00468 0.27335 6.11145
H 2.7764 2.57423 4.34514
H 4.27674 1.54034 4.4133
H 2.86512 1.60441 2.1263
O -1.34594 -4.37064 4.03809
C -2.00572 -3.0039 0.90891
C -4.57016 -6.28341 3.60444
C -4.97667 -7.75599 3.5439
C -3.83267 -8.39649 4.3002
C -3.05184 -7.15032 4.72703
O -4.04301 -6.1692 4.9041
H -3.52781 -6.60518 1.73046
H -1.66582 -7.35672 2.98774
H -1.71217 -2.34877 1.757
H -5.45228 -5.64556 3.37678
H -5.90446 -7.86607 4.15018
H -5.15722 -8.15684 2.52337
H -4.24778 -8.9182 5.19116
H -3.20382 -9.0963 3.70818
H -2.41981 -7.37352 5.61474
H -2.89308 -2.57806 0.39365
H -1.16303 -3.05345 0.18919
H 4.9048 -3.04966 -0.63742
H 4.26942 -1.46676 -1.2287
H 3.12178 -2.77523 -0.70476
H 2.42515 -5.3835 3.67916
H 0.89771 -4.63472 3.15703
H 1.5243 -5.90962 5.83876
H 0.32895 -4.59236 5.80802
$end

$opt
CONSTRAINT
tors           1           2           3           4    -106.641
tors           3           4           5           6    -170.856
tors           4           5           6           7    +178.989
tors           5           6           7           8     -71.214
tors           6           7           8           9    +147.230
tors           7           8           9          10    -166.977
tors           8           9          10          11    -176.951
tors           9          10          11          12    +175.286
tors          11          12          13          14    +102.042
ENDCONSTRAINT
$end

$rem
JOBTYPE                   OPT
METHOD                    B3LYP
DFT_D                     d3_op
BASIS                     STO-3G
GEOM_OPT_MAX_CYCLES       100
GEOM_OPT_TOL_GRADIENT     300
GEOM_OPT_TOL_DISPLACEMENT 1200
GEOM_OPT_TOL_ENERGY       100
SYMMETRY                  False
THRESH                    12
SCF_CONVERGENCE           8
MAX_SUB_FILE_NUM          128
MEM_STATIC                400
MEM_TOTAL                 4000
$end
--------------------------------------------------------------

   15   -1510.1558429512      5.96E-09 Convergence criterion met
 Total energy in the final basis set = -1510.15584295
   13   -1510.2251582173      8.86E-09 Convergence criterion met
 Total energy in the final basis set = -1510.22515822
   14   -1510.2620190668      4.01E-09 Convergence criterion met
 Total energy in the final basis set = -1510.26201907
   14   -1510.2776870598      2.36E-09 Convergence criterion met
 Total energy in the final basis set = -1510.27768706
   13   -1510.2824292591      6.91E-09 Convergence criterion met
 Total energy in the final basis set = -1510.28242926
   13   -1510.2839106762      4.30E-09 Convergence criterion met
 Total energy in the final basis set = -1510.28391068
   13   -1510.2846521923      2.06E-09 Convergence criterion met
 Total energy in the final basis set = -1510.28465219
   12   -1510.2849802528      8.79E-09 Convergence criterion met
   10   -1510.2856939981      9.73E-09 Convergence criterion met
 Total energy in the final basis set = -1510.28569400
   10   -1510.2857118703      5.59E-09 Convergence criterion met
 Total energy in the final basis set = -1510.28571187
    9   -1510.2857224857      8.19E-09 Convergence criterion met
 Total energy in the final basis set = -1510.28572249
    9   -1510.2857313203      4.33E-09 Convergence criterion met
 Total energy in the final basis set = -1510.28573132
    9   -1510.2857375672      5.83E-09 Convergence criterion met
 Total energy in the final basis set = -1510.28573757
    9   -1510.2857388793      3.40E-09 Convergence criterion met
 Total energy in the final basis set = -1510.28573888

             Standard Nuclear Orientation (Angstroms)
    I     Atom           X                Y                Z
 ----------------------------------------------------------------
    1      O      -2.8465043473     0.7233580597     2.5367935802
    2      C      -2.9495684803     1.1586133406     1.3709170231
    3      C      -4.1794402404     0.9973885253     0.3973273350
    4      C      -3.9483212861    -0.0325072932    -0.7841429309
    5      C      -2.5555020138    -0.7344372013    -0.7017905621
    6      O      -2.3259918164    -1.4834818560    -1.9030162709
    7      C      -0.9911305646    -2.1296155363    -1.8322667285
    8      C       0.1730727912    -1.0762616929    -1.9656478754
    9      O       1.3023132847    -1.5697548203    -1.1384227511
   10      C       2.2673477418    -0.5279100468    -0.9708142607
   11      C       3.4809183059    -1.0933637758    -0.1641020839
   12      C       4.6668721905    -0.0534355835    -0.0218933359
   13      C       4.4182318903     1.3245054209    -0.7424314500
   14      O       4.0794778985     2.4049669260    -0.2155706495
   15      O      -1.9808666451     1.9898658212     0.7145079514
   16      O       4.7666746031     1.1656294476    -2.1268162050
   17      O       2.1220393651     0.6333371733    -1.4146570632
   18      C       4.4652208756     2.4137119668    -2.8613063788
   19      C       3.0937941392    -1.3206330875     1.3630492715
   20      C       4.2211292875    -2.1966118103     2.0384662790
   21      C       5.3777359777    -1.1398965278     2.1937080270
   22      C       4.7080209018     0.1373315534     1.5528118795
   23      O       3.2857428380     0.0214285822     1.9543108888
   24      H       3.8090102489    -2.0350479953    -0.6399119570
   25      H       5.6067137498    -0.4838666574    -0.4109089441
   26      H       2.0568234054    -1.6766971387     1.5206491554
   27      H       3.8806800990    -2.5715991995     3.0168215628
   28      H       4.5095243510    -3.0556577953     1.4118508911
   29      H       5.6196995913    -0.9590778595     3.2530454855
   30      H       6.2981306776    -1.4341747108     1.6648482349
   31      H       5.1181553800     1.1127985516     1.8780177376
   32      O      -1.7550930997    -0.7136971726     0.2602777626
   33      C      -0.7470457017     2.0626708312     1.5292564658
   34      C      -5.4147782299     0.3326200052     1.1378134399
   35      C      -6.7125193995     0.6045209425     0.2801769098
   36      C      -6.4916152788    -0.3850155319    -0.9236675541
   37      C      -5.1272134964    -1.0673252063    -0.5140014092
   38      O      -5.1871389605    -1.1224962109     0.9624055428
   39      H      -4.4329882258     1.9937876690    -0.0065513828
   40      H      -4.0484739151     0.4417420457    -1.7768674608
   41      H      -0.2974793398     1.0572764456     1.6620198334
   42      H      -5.4839032039     0.5818784578     2.2142926036
   43      H      -7.6165714073     0.3463446283     0.8543632314
   44      H      -6.7854388361     1.6557830321    -0.0412841878
   45      H      -7.2940110445    -1.1376970709    -0.9826618907
   46      H      -6.4210532699     0.1324578829    -1.8938316684
   47      H      -4.9560072548    -2.0750926710    -0.9402566722
   48      H      -0.9400617654     2.4998745577     2.5301061233
   49      H      -0.0453865858     2.7091871172     0.9705206435
   50      H       4.7948924626     2.2461586056    -3.9032459151
   51      H       5.0062468679     3.2830680297    -2.4347280978
   52      H       3.3776955277     2.6325388343    -2.8459680992
   53      H       0.4902781376    -0.9659540164    -3.0251961346
   54      H      -0.1612089444    -0.0803746164    -1.6041020601
   55      H      -0.9692360853    -2.8574359619    -2.6666568923
   56      H      -0.8650075728    -2.6691133686    -0.8681851629
 ----------------------------------------------------------------

    9   -1510.2857391060      1.50E-09 Convergence criterion met
 Total energy in the final basis set = -1510.28573911
 Final energy is   -1510.28573910597
 **  OPTIMIZATION CONVERGED  **

                    Orbital Energies (a.u.)
 --------------------------------------------------------------

 Alpha MOs
 -- Occupied --
-18.945 -18.942 -18.918 -18.914 -18.889 -18.887 -18.887 -18.886
-18.859 -18.857 -10.108 -10.107 -10.089 -10.086 -10.082 -10.078
-10.062 -10.060 -10.055 -10.055 -10.053 -10.046 -10.041 -10.040
-10.032 -10.031 -10.021 -10.020 -10.019 -10.018  -1.025  -1.019
 -0.996  -0.993  -0.969  -0.969  -0.947  -0.943  -0.922  -0.920
 -0.763  -0.761  -0.730  -0.721  -0.714  -0.704  -0.696  -0.653
 -0.648  -0.621  -0.595  -0.582  -0.545  -0.544  -0.536  -0.536
 -0.516  -0.508  -0.485  -0.468  -0.459  -0.454  -0.452  -0.449
 -0.441  -0.431  -0.429  -0.408  -0.404  -0.403  -0.401  -0.398
 -0.396  -0.381  -0.374  -0.363  -0.360  -0.354  -0.349  -0.344
 -0.342  -0.339  -0.336  -0.331  -0.330  -0.325  -0.324  -0.313
 -0.311  -0.304  -0.303  -0.301  -0.297  -0.277  -0.275  -0.274
 -0.273  -0.261  -0.257  -0.243  -0.240  -0.234  -0.233  -0.189
 -0.185  -0.164  -0.162  -0.160  -0.160  -0.144  -0.143  -0.140
 -0.138

          Ground-State Mulliken Net Atomic Charges

     Atom                 Charge (a.u.)
  ----------------------------------------
      1 O                    -0.215220
      2 C                     0.215267
      3 C                    -0.081204
      4 C                    -0.078339
      5 C                     0.213202
      6 O                    -0.170201
      7 C                    -0.049048
      8 C                    -0.049345
      9 O                    -0.171284
     10 C                     0.215446
     11 C                    -0.078106
     12 C                    -0.081618
     13 C                     0.215508
     14 O                    -0.216753
     15 O                    -0.178841
     16 O                    -0.176907
     17 O                    -0.206405
     18 C                    -0.128637
     19 C                     0.025058
     20 C                    -0.143687
     21 C                    -0.144181
     22 C                     0.025169
     23 O                    -0.188491
     24 H                     0.086613
     25 H                     0.083492
     26 H                     0.087577
     27 H                     0.078987
     28 H                     0.073150
     29 H                     0.078289
     30 H                     0.073032
     31 H                     0.088560
     32 O                    -0.204994
     33 C                    -0.129373
     34 C                     0.024829
     35 C                    -0.143949
     36 C                    -0.143654
     37 C                     0.025400
     38 O                    -0.188504
     39 H                     0.083573
     40 H                     0.086994
     41 H                     0.093459
     42 H                     0.090063
     43 H                     0.078078
     44 H                     0.073485
     45 H                     0.078182
     46 H                     0.073537
     47 H                     0.083974
     48 H                     0.086420
     49 H                     0.091025
     50 H                     0.085213
     51 H                     0.086607
     52 H                     0.091595
     53 H                     0.085602
     54 H                     0.099410
     55 H                     0.092286
     56 H                     0.099659
  ----------------------------------------
  Sum of atomic charges =    -0.000000

                    Cartesian Multipole Moments
 -----------------------------------------------------------------
    Charge (ESU x 10^10)
                 0.0000
    Dipole Moment (Debye)
         X       0.2390      Y      -1.5311      Z      -3.3061
       Tot       3.6513
    Quadrupole Moments (Debye-Ang)
        XX    -141.7797     XY     -11.1723     YY    -157.7379
        XZ       8.0674     YZ       0.6987     ZZ    -160.6493

 Total job time:  51.01s(wall), 2424.65s(cpu)
        *  Thank you very much for using Q-Chem.  Have a nice day.  *
