 Q-Chem 5.0, Q-Chem, Inc., Pleasanton, CA (2017)
 Q-Chem 5.0.1 for Intel X86 EM64T Linux

User input:
--------------------------------------------------------------
$molecule
0  1
O -2.8465043473 0.7233580597 2.5367935802
C -2.9495684803 1.1586133406 1.3709170231
C -4.1794402404 0.9973885253 0.397327335
C -3.9483212861 -0.0325072932 -0.7841429309
C -2.5555020138 -0.7344372013 -0.7017905621
O -2.3259918164 -1.483481856 -1.9030162709
C -0.9911305646 -2.1296155363 -1.8322667285
C 0.1730727912 -1.0762616929 -1.9656478754
O 1.3023132847 -1.5697548203 -1.1384227511
C 2.2673477418 -0.5279100468 -0.9708142607
C 3.4809183059 -1.0933637758 -0.1641020839
C 4.6668721905 -0.0534355835 -0.0218933359
C 4.4182318903 1.3245054209 -0.74243145
O 4.0794778985 2.404966926 -0.2155706495
O -1.9808666451 1.9898658212 0.7145079514
O 4.7666746031 1.1656294476 -2.126816205
O 2.1220393651 0.6333371733 -1.4146570632
C 4.4652208756 2.4137119668 -2.8613063788
C 3.0937941392 -1.3206330875 1.3630492715
C 4.2211292875 -2.1966118103 2.038466279
C 5.3777359777 -1.1398965278 2.193708027
C 4.7080209018 0.1373315534 1.5528118795
O 3.285742838 0.0214285822 1.9543108888
H 3.8090102489 -2.0350479953 -0.639911957
H 5.6067137498 -0.4838666574 -0.4109089441
H 2.0568234054 -1.6766971387 1.5206491554
H 3.880680099 -2.5715991995 3.0168215628
H 4.509524351 -3.0556577953 1.4118508911
H 5.6196995913 -0.9590778595 3.2530454855
H 6.2981306776 -1.4341747108 1.6648482349
H 5.11815538 1.1127985516 1.8780177376
O -1.7550930997 -0.7136971726 0.2602777626
C -0.7470457017 2.0626708312 1.5292564658
C -5.4147782299 0.3326200052 1.1378134399
C -6.7125193995 0.6045209425 0.2801769098
C -6.4916152788 -0.3850155319 -0.9236675541
C -5.1272134964 -1.0673252063 -0.5140014092
O -5.1871389605 -1.1224962109 0.9624055428
H -4.4329882258 1.993787669 -0.0065513828
H -4.0484739151 0.4417420457 -1.7768674608
H -0.2974793398 1.0572764456 1.6620198334
H -5.4839032039 0.5818784578 2.2142926036
H -7.6165714073 0.3463446283 0.8543632314
H -6.7854388361 1.6557830321 -0.0412841878
H -7.2940110445 -1.1376970709 -0.9826618907
H -6.4210532699 0.1324578829 -1.8938316684
H -4.9560072548 -2.075092671 -0.9402566722
H -0.9400617654 2.4998745577 2.5301061233
H -0.0453865858 2.7091871172 0.9705206435
H 4.7948924626 2.2461586056 -3.9032459151
H 5.0062468679 3.2830680297 -2.4347280978
H 3.3776955277 2.6325388343 -2.8459680992
H 0.4902781376 -0.9659540164 -3.0251961346
H -0.1612089444 -0.0803746164 -1.6041020601
H -0.9692360853 -2.8574359619 -2.6666568923
H -0.8650075728 -2.6691133686 -0.8681851629
$end

$rem
JOBTYPE                   OPT
METHOD                    B3LYP
DFT_D                     d3_op
BASIS                     STO-3G
GEOM_OPT_MAX_CYCLES       100
GEOM_OPT_TOL_GRADIENT     300
GEOM_OPT_TOL_DISPLACEMENT 1200
GEOM_OPT_TOL_ENERGY       100
SYMMETRY                  False
THRESH                    12
SCF_CONVERGENCE           8
MAX_SUB_FILE_NUM          128
MEM_STATIC                400
MEM_TOTAL                 4000
$end
--------------------------------------------------------------

   16   -1510.2856863656      4.45E-09 Convergence criterion met
 Total energy in the final basis set = -1510.28568637
   14   -1510.2868902085      1.26E-09 Convergence criterion met
 Total energy in the final basis set = -1510.28689021
   14   -1510.2881629288      2.06E-09 Convergence criterion met
 Total energy in the final basis set = -1510.28816293
   14   -1510.2914555101      2.36E-09 Convergence criterion met
 Total energy in the final basis set = -1510.29145551
   19   -1509.3644999523      5.87E-09 Convergence criterion met
 Total energy in the final basis set = -1509.36449995
   19   -1510.2876481908      5.73E-09 Convergence criterion met
 Total energy in the final basis set = -1510.28764819
   14   -1510.2883735885      4.62E-09 Convergence criterion met
 Total energy in the final basis set = -1510.28837359
   14   -1510.2903180894      2.07E-09 Convergence criterion met
   11   -1510.3009450706      6.79E-09 Convergence criterion met
 Total energy in the final basis set = -1510.30094507
   12   -1510.3009663429      2.67E-09 Convergence criterion met
 Total energy in the final basis set = -1510.30096634
   12   -1510.3009925376      5.38E-09 Convergence criterion met
 Total energy in the final basis set = -1510.30099254
   11   -1510.3009970235      3.21E-09 Convergence criterion met
 Total energy in the final basis set = -1510.30099702
   10   -1510.3010024493      7.09E-09 Convergence criterion met
 Total energy in the final basis set = -1510.30100245
   10   -1510.3010052800      7.87E-09 Convergence criterion met
 Total energy in the final basis set = -1510.30100528

             Standard Nuclear Orientation (Angstroms)
    I     Atom           X                Y                Z
 ----------------------------------------------------------------
    1      O       1.1257534691    -1.9891936879    -1.0880734622
    2      C       1.6557559634    -0.8729713572    -1.2765393875
    3      C       3.1386645059    -0.4700565080    -0.9339043852
    4      C       3.3020573192     0.6778599642     0.1429017387
    5      C       1.9685539797     1.0713596211     0.8580897875
    6      O       2.0889915378     2.4293851043     1.2963737494
    7      C       0.9741005497     2.8181098451     2.1931825500
    8      C      -0.4208620020     3.0013150659     1.4819066761
    9      O      -1.2752586681     1.8332369381     1.7977833335
   10      C      -1.8473222169     1.2825560400     0.6085570404
   11      C      -2.5729777296    -0.0433618262     0.9994675827
   12      C      -3.7057831339    -0.4910295942    -0.0120931505
   13      C      -3.8272859124     0.4382420671    -1.2754557806
   14      O      -3.4660633997     0.1819493532    -2.4432341344
   15      O       1.0425594537     0.2397471032    -1.9211793789
   16      O      -4.5205593596     1.6311958939    -0.8834799235
   17      O      -1.7397566023     1.7975349385    -0.5272414517
   18      C      -4.5772307078     2.5707416752    -2.0251839380
   19      C      -1.5749633114    -1.2860304187     0.9147647936
   20      C      -2.2009491927    -2.4688665195     1.7447236802
   21      C      -3.3800962883    -2.9159541460     0.7984471493
   22      C      -3.1923224853    -1.9309953279    -0.4208142580
   23      O      -1.7215813515    -1.7548553170    -0.4814743702
   24      H      -2.9634765136     0.0701929815     2.0258020271
   25      H      -4.6879363812    -0.5246921423     0.4923926932
   26      H      -0.5160925661    -1.0240143849     1.1228651816
   27      H      -1.4616976719    -3.2752577741     1.8739142895
   28      H      -2.5504049618    -2.1431461996     2.7373526617
   29      H      -3.2597188625    -3.9603430557     0.4696837624
   30      H      -4.3695845858    -2.8066165047     1.2708240614
   31      H      -3.5742953077    -2.2904307867    -1.3959225467
   32      O       0.9808373914     0.3415182199     1.0902021360
   33      C      -0.3178623397    -0.1123663235    -2.4064367614
   34      C       3.9226170792    -1.6611378541    -0.2411943560
   35      C       5.4680862353    -1.4092968584    -0.4297156787
   36      C       5.6935591427    -0.2025678454     0.5554175734
   37      C       4.2548460337    -0.0498806116     1.1925809043
   38      O       3.7192582811    -1.4277391246     1.2095080278
   39      H       3.6290640956    -0.1681639783    -1.8770007776
   40      H       3.7636151286     1.5888593055    -0.2764040373
   41      H      -0.8723454839    -0.7578613714    -1.6775687818
   42      H       3.5505891856    -2.6651179054    -0.5241969369
   43      H       6.0437419206    -2.2953446242    -0.1178383378
   44      H       5.7289284810    -1.1653892373    -1.4718102060
   45      H       6.4356829929    -0.4447571469     1.3325467975
   46      H       6.0126295884     0.7154210555     0.0364874047
   47      H       4.2369892524     0.3903375839     2.2087610871
   48      H      -0.2472950530    -0.6335147787    -3.3827221132
   49      H      -0.8528986433     0.8449548256    -2.5397960724
   50      H      -5.1542096672     3.4463633356    -1.6750848952
   51      H      -5.0813246592     2.1194764805    -2.9042210069
   52      H      -3.5594575402     2.8925757713    -2.3276784006
   53      H      -0.9174013202     3.9150027854     1.8730696531
   54      H      -0.3150250462     3.0939318061     0.3783460591
   55      H       1.2978343773     3.7843621057     2.6292204224
   56      H       0.8499861110     2.0740230800     3.0107279070
 ----------------------------------------------------------------

    9   -1510.3010055825      3.50E-09 Convergence criterion met
 Total energy in the final basis set = -1510.30100558
 Final energy is   -1510.30100558250
 **  OPTIMIZATION CONVERGED  **

                    Orbital Energies (a.u.)
 --------------------------------------------------------------

 Alpha MOs
 -- Occupied --
-18.940 -18.936 -18.922 -18.904 -18.897 -18.883 -18.883 -18.880
-18.864 -18.851 -10.106 -10.103 -10.091 -10.080 -10.078 -10.073
-10.059 -10.057 -10.056 -10.051 -10.050 -10.036 -10.036 -10.033
-10.026 -10.018 -10.017 -10.016 -10.015 -10.010  -1.021  -1.012
 -1.000  -0.985  -0.971  -0.966  -0.944  -0.939  -0.926  -0.911
 -0.761  -0.758  -0.727  -0.719  -0.711  -0.701  -0.694  -0.655
 -0.632  -0.618  -0.592  -0.577  -0.543  -0.539  -0.534  -0.531
 -0.512  -0.504  -0.482  -0.463  -0.459  -0.449  -0.449  -0.444
 -0.437  -0.428  -0.426  -0.411  -0.404  -0.401  -0.398  -0.392
 -0.379  -0.375  -0.374  -0.361  -0.356  -0.350  -0.350  -0.345
 -0.341  -0.336  -0.330  -0.328  -0.326  -0.320  -0.318  -0.308
 -0.305  -0.301  -0.297  -0.295  -0.294  -0.278  -0.272  -0.268
 -0.265  -0.257  -0.250  -0.245  -0.239  -0.231  -0.216  -0.191
 -0.173  -0.167  -0.161  -0.157  -0.154  -0.144  -0.141  -0.140
 -0.130

          Ground-State Mulliken Net Atomic Charges

     Atom                 Charge (a.u.)
  ----------------------------------------
      1 O                    -0.214123
      2 C                     0.209086
      3 C                    -0.080874
      4 C                    -0.077617
      5 C                     0.218616
      6 O                    -0.171429
      7 C                    -0.049781
      8 C                    -0.055246
      9 O                    -0.169958
     10 C                     0.219967
     11 C                    -0.079276
     12 C                    -0.081374
     13 C                     0.214437
     14 O                    -0.214015
     15 O                    -0.182310
     16 O                    -0.175409
     17 O                    -0.213593
     18 C                    -0.128546
     19 C                     0.020564
     20 C                    -0.142513
     21 C                    -0.143661
     22 C                     0.027232
     23 O                    -0.179009
     24 H                     0.087310
     25 H                     0.084692
     26 H                     0.113644
     27 H                     0.082618
     28 H                     0.073247
     29 H                     0.079695
     30 H                     0.072597
     31 H                     0.089867
     32 O                    -0.213563
     33 C                    -0.153706
     34 C                     0.023824
     35 C                    -0.143523
     36 C                    -0.144116
     37 C                     0.025168
     38 O                    -0.189882
     39 H                     0.082448
     40 H                     0.087490
     41 H                     0.119430
     42 H                     0.091244
     43 H                     0.077331
     44 H                     0.073486
     45 H                     0.077283
     46 H                     0.073536
     47 H                     0.080040
     48 H                     0.069976
     49 H                     0.086383
     50 H                     0.086568
     51 H                     0.087377
     52 H                     0.092089
     53 H                     0.085041
     54 H                     0.105587
     55 H                     0.090780
     56 H                     0.094871
  ----------------------------------------
  Sum of atomic charges =    -0.000000

                    Cartesian Multipole Moments
 -----------------------------------------------------------------
    Charge (ESU x 10^10)
                -0.0000
    Dipole Moment (Debye)
         X       0.1305      Y       2.3391      Z       1.9888
       Tot       3.0731
    Quadrupole Moments (Debye-Ang)
        XX    -141.1740     XY       3.3046     YY    -154.6025
        XZ      -4.1776     YZ       2.2121     ZZ    -159.1884

 Total job time:  183.17s(wall), 8736.62s(cpu)
        *  Thank you very much for using Q-Chem.  Have a nice day.  *
