 Q-Chem 5.0, Q-Chem, Inc., Pleasanton, CA (2017)
 Q-Chem 5.0.1 for Intel X86 EM64T Linux

User input:
--------------------------------------------------------------
$molecule
0  1
O -3.94934 -3.66094 2.70899
C -3.26408 -4.56952 2.26188
C -3.36658 -6.02376 2.66595
C -2.24382 -6.58758 3.55216
C -1.23758 -5.59014 4.08195
O -0.08996 -6.23634 4.44366
C 0.92295 -5.35238 4.93549
C 1.72988 -4.77997 3.77474
O 2.1623 -3.44702 4.08962
C 2.75899 -2.77272 3.07551
C 3.22932 -1.39607 3.4808
C 3.927 -0.59734 2.37015
C 3.73948 -1.12256 0.96101
O 3.2535 -0.49665 0.03008
O -2.26491 -4.27105 1.39078
O 4.52377 -2.19032 0.63815
O 2.86401 -3.29427 1.97754
C 4.63877 -2.72503 -0.62906
C 2.08791 -0.43521 3.86317
C 2.6286 0.64843 4.79296
C 3.4907 1.44034 3.83058
C 3.15327 0.73166 2.51201
O 1.8283 0.29081 2.68751
H 3.90425 -1.54109 4.35499
H 5.01948 -0.47426 2.54024
H 1.21491 -0.94363 4.32758
H 1.75932 1.27712 5.09248
H 3.14809 0.28604 5.70604
H 3.13012 2.49288 3.82339
H 4.58284 1.41082 4.03559
H 3.32927 1.42027 1.65653
O -1.54446 -4.46599 4.46509
C -1.97066 -2.99754 0.95133
C -4.58276 -6.27107 3.58702
C -4.97832 -7.74795 3.55727
C -3.85603 -8.35445 4.36946
C -3.07575 -7.09286 4.74676
O -4.07118 -6.11056 4.88502
H -3.51277 -6.60332 1.72722
H -1.69212 -7.42525 3.06769
H -1.69382 -2.35085 1.81143
H -5.46447 -5.6449 3.32714
H -5.92691 -7.85755 4.1302
H -5.11185 -8.17036 2.53813
H -4.29227 -8.81256 5.28522
H -3.22953 -9.10095 3.83506
H -2.4527 -7.28457 5.64879
H -2.84491 -2.56426 0.42002
H -1.11239 -3.04415 0.25006
H 5.33574 -3.58738 -0.59776
H 5.04226 -1.96491 -1.3316
H 3.64755 -3.0783 -0.98548
H 2.55434 -5.46099 3.46745
H 1.02336 -4.68139 2.91824
H 1.61019 -5.88479 5.62606
H 0.48517 -4.53828 5.5572
$end

$opt
CONSTRAINT
tors           1           2           3           4    -106.543
tors           3           4           5           6    -159.447
tors           4           5           6           7    +178.989
tors           5           6           7           8     -85.339
tors           6           7           8           9    +147.457
tors           7           8           9          10    -172.737
tors           8           9          10          11    -178.185
tors           9          10          11          12    +179.336
tors          11          12          13          14    +121.546
ENDCONSTRAINT
$end

$rem
JOBTYPE                   OPT
METHOD                    B3LYP
DFT_D                     d3_op
BASIS                     STO-3G
GEOM_OPT_MAX_CYCLES       100
GEOM_OPT_TOL_GRADIENT     300
GEOM_OPT_TOL_DISPLACEMENT 1200
GEOM_OPT_TOL_ENERGY       100
SYMMETRY                  False
THRESH                    12
SCF_CONVERGENCE           8
MAX_SUB_FILE_NUM          128
MEM_STATIC                400
MEM_TOTAL                 4000
$end
--------------------------------------------------------------

   15   -1510.1439998750      5.75E-09 Convergence criterion met
 Total energy in the final basis set = -1510.14399988
   14   -1510.2145246346      7.16E-09 Convergence criterion met
 Total energy in the final basis set = -1510.21452463
   14   -1510.2516408466      7.58E-09 Convergence criterion met
 Total energy in the final basis set = -1510.25164085
   14   -1510.2686047379      7.31E-09 Convergence criterion met
 Total energy in the final basis set = -1510.26860474
   13   -1510.2763069963      9.00E-09 Convergence criterion met
 Total energy in the final basis set = -1510.27630700
   13   -1510.2795767807      3.84E-09 Convergence criterion met
 Total energy in the final basis set = -1510.27957678
   13   -1510.2816182814      3.36E-09 Convergence criterion met
 Total energy in the final basis set = -1510.28161828
   13   -1510.2829137152      3.87E-09 Convergence criterion met
   11   -1510.2855171010      8.01E-09 Convergence criterion met
 Total energy in the final basis set = -1510.28551710
   11   -1510.2855958102      2.30E-09 Convergence criterion met
 Total energy in the final basis set = -1510.28559581
   11   -1510.2856399634      6.10E-09 Convergence criterion met
 Total energy in the final basis set = -1510.28563996
   10   -1510.2856671530      8.23E-09 Convergence criterion met
 Total energy in the final basis set = -1510.28566715
   10   -1510.2856787158      5.02E-09 Convergence criterion met
 Total energy in the final basis set = -1510.28567872
    9   -1510.2856837039      5.55E-09 Convergence criterion met
 Total energy in the final basis set = -1510.28568370

             Standard Nuclear Orientation (Angstroms)
    I     Atom           X                Y                Z
 ----------------------------------------------------------------
    1      O       3.1334056237     0.6041095315     2.6339031703
    2      C       3.1211087416    -0.3159344306     1.7901481012
    3      C       4.2740642759    -0.7284115048     0.7992326168
    4      C       4.0015106331    -0.3177251956    -0.7073657260
    5      C       2.6446500121     0.4301820282    -0.8968544172
    6      O       2.2492340062     0.3374807395    -2.2729344096
    7      C       0.9480210324     1.0243791979    -2.4596241764
    8      C      -0.2391314339     0.0473387852    -2.1243905887
    9      O      -1.3329162065     0.8769857471    -1.5592532714
   10      C      -2.3811282602     0.0367265917    -1.0751590929
   11      C      -3.5385763091     0.9387778907    -0.5285965518
   12      C      -4.7506147181     0.0811180331     0.0131551040
   13      C      -4.7124566115    -1.4405876697    -0.3854923201
   14      O      -4.7017262407    -2.4218358080     0.3872148007
   15      O       2.0322883499    -1.2290879359     1.5871361407
   16      O      -4.9137932165    -1.5262355863    -1.8064862560
   17      O      -2.3257481443    -1.2140511374    -1.0588928980
   18      C      -4.8573880247    -2.9412410431    -2.2327524066
   19      C      -3.0540426665     1.6301697287     0.8202271121
   20      C      -4.1456605978     2.6719672938     1.2908185123
   21      C      -5.2346063054     1.7201259247     1.9136098415
   22      C      -4.6197016088     0.3080642489     1.5768777744
   23      O      -3.1677195241     0.5189870686     1.7922690027
   24      H      -3.8358037218     1.6721983035    -1.2992496089
   25      H      -5.7028945421     0.4941441720    -0.3671663928
   26      H      -2.0158896798     2.0147361333     0.7822240323
   27      H      -3.7258832798     3.3596848401     2.0418011686
   28      H      -4.5351539898     3.2641687191     0.4473901513
   29      H      -5.3098643116     1.8554800770     3.0044871650
   30      H      -6.2325141262     1.8628230494     1.4691740759
   31      H      -4.9817686482    -0.5426801235     2.1864971712
   32      O       1.9879058715     1.0450404072    -0.0272848613
   33      C       0.8539129929    -0.7953047316     2.3713117666
   34      C       5.5987334522     0.0888372545     1.0982027572
   35      C       6.8055809213    -0.6277171965     0.3752791604
   36      C       6.5363960510    -0.2356311898    -1.1251142681
   37      C       5.2361161860     0.6501714620    -0.9809130470
   38      O       5.4186063625     1.3357031159     0.3159826558
   39      H       4.4311441197    -1.8189781120     0.8808024082
   40      H       4.0180086177    -1.1891082280    -1.3855282468
   41      H       0.5120557167     0.2107287580     2.0517134451
   42      H       5.7491909269     0.3277261419     2.1687040223
   43      H       7.7654931123    -0.2216895829     0.7321301190
   44      H       6.8009858501    -1.7172819438     0.5380567582
   45      H       7.3622859948     0.3629046855    -1.5414588961
   46      H       6.3733421876    -1.1114968072    -1.7733084407
   47      H       5.0713666953     1.3832306197    -1.7944443473
   48      H       1.0692621386    -0.7680884043     3.4589183708
   49      H       0.0583037949    -1.5361286664     2.1692211898
   50      H      -5.0903621448    -2.9478290249    -3.3135647466
   51      H      -5.5959323887    -3.5648900417    -1.6886286583
   52      H      -3.8465665597    -3.3681521321    -2.0688831989
   53      H      -0.5859541408    -0.4941982082    -3.0305493162
   54      H       0.0937156213    -0.7104608490    -1.3807733748
   55      H       0.9137792531     1.3488349479    -3.5179795715
   56      H       0.8756966169     1.9068376953    -1.7881904403
 ----------------------------------------------------------------

    9   -1510.2856839126      2.95E-09 Convergence criterion met
 Total energy in the final basis set = -1510.28568391
 Final energy is   -1510.28568391265
 **  OPTIMIZATION CONVERGED  **

                    Orbital Energies (a.u.)
 --------------------------------------------------------------

 Alpha MOs
 -- Occupied --
-18.943 -18.943 -18.918 -18.917 -18.888 -18.887 -18.887 -18.885
-18.862 -18.860 -10.107 -10.107 -10.090 -10.089 -10.080 -10.079
-10.063 -10.060 -10.056 -10.055 -10.054 -10.049 -10.041 -10.040
-10.033 -10.032 -10.021 -10.020 -10.019 -10.018  -1.024  -1.019
 -0.997  -0.996  -0.970  -0.969  -0.947  -0.943  -0.923  -0.923
 -0.764  -0.762  -0.730  -0.722  -0.714  -0.705  -0.697  -0.654
 -0.651  -0.621  -0.596  -0.581  -0.545  -0.544  -0.537  -0.536
 -0.516  -0.508  -0.487  -0.469  -0.460  -0.455  -0.453  -0.449
 -0.444  -0.431  -0.430  -0.408  -0.407  -0.403  -0.402  -0.399
 -0.398  -0.380  -0.374  -0.363  -0.362  -0.353  -0.350  -0.344
 -0.343  -0.341  -0.340  -0.332  -0.332  -0.325  -0.324  -0.312
 -0.311  -0.305  -0.303  -0.301  -0.297  -0.278  -0.277  -0.274
 -0.273  -0.260  -0.256  -0.244  -0.243  -0.234  -0.233  -0.188
 -0.185  -0.165  -0.164  -0.161  -0.160  -0.145  -0.144  -0.141
 -0.141

          Ground-State Mulliken Net Atomic Charges

     Atom                 Charge (a.u.)
  ----------------------------------------
      1 O                    -0.211573
      2 C                     0.214775
      3 C                    -0.080403
      4 C                    -0.078628
      5 C                     0.212477
      6 O                    -0.171278
      7 C                    -0.051226
      8 C                    -0.048305
      9 O                    -0.171493
     10 C                     0.216834
     11 C                    -0.077044
     12 C                    -0.081573
     13 C                     0.216445
     14 O                    -0.218109
     15 O                    -0.178694
     16 O                    -0.178223
     17 O                    -0.205946
     18 C                    -0.128662
     19 C                     0.024254
     20 C                    -0.144452
     21 C                    -0.143032
     22 C                     0.023651
     23 O                    -0.191790
     24 H                     0.087248
     25 H                     0.083230
     26 H                     0.086856
     27 H                     0.079010
     28 H                     0.073352
     29 H                     0.078311
     30 H                     0.073217
     31 H                     0.090885
     32 O                    -0.207151
     33 C                    -0.129625
     34 C                     0.025174
     35 C                    -0.144181
     36 C                    -0.143449
     37 C                     0.025741
     38 O                    -0.187449
     39 H                     0.084196
     40 H                     0.087316
     41 H                     0.092747
     42 H                     0.089905
     43 H                     0.078258
     44 H                     0.073615
     45 H                     0.078317
     46 H                     0.073819
     47 H                     0.083133
     48 H                     0.087023
     49 H                     0.091300
     50 H                     0.085224
     51 H                     0.087144
     52 H                     0.090393
     53 H                     0.087589
     54 H                     0.095936
     55 H                     0.091227
     56 H                     0.103682
  ----------------------------------------
  Sum of atomic charges =     0.000000

                    Cartesian Multipole Moments
 -----------------------------------------------------------------
    Charge (ESU x 10^10)
                 0.0000
    Dipole Moment (Debye)
         X      -0.2011      Y       0.1067      Z      -3.2472
       Tot       3.2551
    Quadrupole Moments (Debye-Ang)
        XX    -144.8994     XY     -16.8253     YY    -161.6794
        XZ      -3.3180     YZ      -0.8792     ZZ    -157.4996

 Total job time:  55.04s(wall), 2618.51s(cpu)
        *  Thank you very much for using Q-Chem.  Have a nice day.  *
