 Q-Chem 5.0, Q-Chem, Inc., Pleasanton, CA (2017)
 Q-Chem 5.0.1 for Intel X86 EM64T Linux

User input:
--------------------------------------------------------------
$molecule
0  1
O 3.1334056237 0.6041095315 2.6339031703
C 3.1211087416 -0.3159344306 1.7901481012
C 4.2740642759 -0.7284115048 0.7992326168
C 4.0015106331 -0.3177251956 -0.707365726
C 2.6446500121 0.4301820282 -0.8968544172
O 2.2492340062 0.3374807395 -2.2729344096
C 0.9480210324 1.0243791979 -2.4596241764
C -0.2391314339 0.0473387852 -2.1243905887
O -1.3329162065 0.8769857471 -1.5592532714
C -2.3811282602 0.0367265917 -1.0751590929
C -3.5385763091 0.9387778907 -0.5285965518
C -4.7506147181 0.0811180331 0.013155104
C -4.7124566115 -1.4405876697 -0.3854923201
O -4.7017262407 -2.421835808 0.3872148007
O 2.0322883499 -1.2290879359 1.5871361407
O -4.9137932165 -1.5262355863 -1.806486256
O -2.3257481443 -1.2140511374 -1.058892898
C -4.8573880247 -2.9412410431 -2.2327524066
C -3.0540426665 1.6301697287 0.8202271121
C -4.1456605978 2.6719672938 1.2908185123
C -5.2346063054 1.7201259247 1.9136098415
C -4.6197016088 0.3080642489 1.5768777744
O -3.1677195241 0.5189870686 1.7922690027
H -3.8358037218 1.6721983035 -1.2992496089
H -5.7028945421 0.494144172 -0.3671663928
H -2.0158896798 2.0147361333 0.7822240323
H -3.7258832798 3.3596848401 2.0418011686
H -4.5351539898 3.2641687191 0.4473901513
H -5.3098643116 1.855480077 3.004487165
H -6.2325141262 1.8628230494 1.4691740759
H -4.9817686482 -0.5426801235 2.1864971712
O 1.9879058715 1.0450404072 -0.0272848613
C 0.8539129929 -0.7953047316 2.3713117666
C 5.5987334522 0.0888372545 1.0982027572
C 6.8055809213 -0.6277171965 0.3752791604
C 6.536396051 -0.2356311898 -1.1251142681
C 5.236116186 0.650171462 -0.980913047
O 5.4186063625 1.3357031159 0.3159826558
H 4.4311441197 -1.818978112 0.8808024082
H 4.0180086177 -1.189108228 -1.3855282468
H 0.5120557167 0.210728758 2.0517134451
H 5.7491909269 0.3277261419 2.1687040223
H 7.7654931123 -0.2216895829 0.732130119
H 6.8009858501 -1.7172819438 0.5380567582
H 7.3622859948 0.3629046855 -1.5414588961
H 6.3733421876 -1.1114968072 -1.7733084407
H 5.0713666953 1.3832306197 -1.7944443473
H 1.0692621386 -0.7680884043 3.4589183708
H 0.0583037949 -1.5361286664 2.1692211898
H -5.0903621448 -2.9478290249 -3.3135647466
H -5.5959323887 -3.5648900417 -1.6886286583
H -3.8465665597 -3.3681521321 -2.0688831989
H -0.5859541408 -0.4941982082 -3.0305493162
H 0.0937156213 -0.710460849 -1.3807733748
H 0.9137792531 1.3488349479 -3.5179795715
H 0.8756966169 1.9068376953 -1.7881904403
$end

$rem
JOBTYPE                   OPT
METHOD                    B3LYP
DFT_D                     d3_op
BASIS                     STO-3G
GEOM_OPT_MAX_CYCLES       100
GEOM_OPT_TOL_GRADIENT     300
GEOM_OPT_TOL_DISPLACEMENT 1200
GEOM_OPT_TOL_ENERGY       100
SYMMETRY                  False
THRESH                    12
SCF_CONVERGENCE           8
MAX_SUB_FILE_NUM          128
MEM_STATIC                400
MEM_TOTAL                 4000
$end
--------------------------------------------------------------

   15   -1510.2856872099      8.89E-09 Convergence criterion met
 Total energy in the final basis set = -1510.28568721
   14   -1510.2868384244      1.89E-09 Convergence criterion met
 Total energy in the final basis set = -1510.28683842
   14   -1510.2870166754      1.95E-09 Convergence criterion met
 Total energy in the final basis set = -1510.28701668
   14   -1510.2892839197      1.92E-09 Convergence criterion met
 Total energy in the final basis set = -1510.28928392
   14   -1510.2883908880      2.97E-09 Convergence criterion met
 Total energy in the final basis set = -1510.28839089
   13   -1510.2898889683      5.60E-09 Convergence criterion met
 Total energy in the final basis set = -1510.28988897
   14   -1510.2902421569      3.29E-09 Convergence criterion met
 Total energy in the final basis set = -1510.29024216
   14   -1510.2919988737      1.83E-09 Convergence criterion met
   10   -1510.3011872428      9.48E-09 Convergence criterion met
 Total energy in the final basis set = -1510.30118724
   12   -1510.3012200995      3.10E-09 Convergence criterion met
 Total energy in the final basis set = -1510.30122010
   13   -1510.3012475683      3.08E-09 Convergence criterion met
 Total energy in the final basis set = -1510.30124757
   11   -1510.3012458400      7.95E-09 Convergence criterion met
 Total energy in the final basis set = -1510.30124584
   11   -1510.3012487740      1.53E-09 Convergence criterion met
 Total energy in the final basis set = -1510.30124877
   10   -1510.3012488320      5.17E-09 Convergence criterion met
 Total energy in the final basis set = -1510.30124883

             Standard Nuclear Orientation (Angstroms)
    I     Atom           X                Y                Z
 ----------------------------------------------------------------
    1      O       1.2246205555    -1.8356620946    -1.4689895151
    2      C       1.7110848645    -0.6873533604    -1.3843924528
    3      C       3.1898419995    -0.3320709185    -0.9872968061
    4      C       3.3508694681     0.7142273037     0.1894267087
    5      C       2.0170632393     1.0867648114     0.9183525954
    6      O       2.0328324931     2.5018038748     1.1492173090
    7      C       0.9280828465     2.9301546717     2.0383837478
    8      C      -0.4846756349     2.9842757875     1.3472992107
    9      O      -1.2173032492     1.7483386321     1.7093083613
   10      C      -2.0225930964     1.2883812963     0.6263381911
   11      C      -2.5983952540    -0.1080215512     1.0273502824
   12      C      -3.6703819504    -0.6784984639     0.0123659521
   13      C      -3.9096988663     0.2343728209    -1.2466042837
   14      O      -3.4572516936     0.0697804558    -2.3991657440
   15      O       1.0304498151     0.5242841186    -1.6991350533
   16      O      -4.8558534117     1.2499530498    -0.8818215708
   17      O      -2.1776924178     1.9071960077    -0.4514625175
   18      C      -5.0480698403     2.1796199025    -2.0164950197
   19      C      -1.4660110533    -1.2307159355     0.9554660712
   20      C      -1.9683530752    -2.4780965536     1.7750350164
   21      C      -3.0796119985    -3.0499550941     0.8150074669
   22      C      -2.9891170155    -2.0468851056    -0.4001613963
   23      O      -1.5464160344    -1.7070283079    -0.4448838579
   24      H      -3.0052123267    -0.0352639028     2.0516075217
   25      H      -4.6409408859    -0.8331515899     0.5164860632
   26      H      -0.4436970741    -0.8542314597     1.1830266348
   27      H      -1.1469834706    -3.1989374427     1.9133014696
   28      H      -2.3627268247    -2.1938276902     2.7635584990
   29      H      -2.8404600036    -4.0739274553     0.4868636290
   30      H      -4.0804856594    -3.0509952422     1.2759825439
   31      H      -3.3178339941    -2.4437747794    -1.3801121454
   32      O       1.1209801163     0.3160652672     1.3244593657
   33      C      -0.3385553468     0.2347353536    -2.2041251195
   34      C       3.9519717132    -1.5901415054    -0.3966496627
   35      C       5.5020492129    -1.3403663338    -0.5392212017
   36      C       5.7242221502    -0.2292092477     0.5534552120
   37      C       4.2772339698    -0.1189862980     1.1824222860
   38      O       3.7278172981    -1.4867234380     1.0655480171
   39      H       3.6961485919     0.0474929172    -1.8940447556
   40      H       3.8342710613     1.6477018582    -0.1467890279
   41      H      -0.8495518102    -0.5478221057    -1.5849268951
   42      H       3.5724121069    -2.5581696056    -0.7781928556
   43      H       6.0638716608    -2.2574544086    -0.3002150987
   44      H       5.7813081931    -1.0066036466    -1.5512895050
   45      H       6.4529498084    -0.5472738372     1.3158964146
   46      H       6.0581809575     0.7283391450     0.1230007122
   47      H       4.2481187667     0.2241756045     2.2350749703
   48      H      -0.2959269451    -0.0955887572    -3.2611803141
   49      H      -0.8970716062     1.1861350095    -2.1364106452
   50      H      -5.8233397341     2.9002422160    -1.6970941246
   51      H      -5.3858577865     1.6489091855    -2.9300451615
   52      H      -4.1088955480     2.7223380727    -2.2494767969
   53      H      -1.0477629945     3.8659204109     1.7246408987
   54      H      -0.3959418379     3.0723459510     0.2426073293
   55      H       1.2151276444     3.9495171128     2.3665429417
   56      H       0.8551945802     2.2664856485     2.9279475311
 ----------------------------------------------------------------

    9   -1510.3012493980      3.47E-09 Convergence criterion met
 Total energy in the final basis set = -1510.30124940
 Final energy is   -1510.30124939800
 **  OPTIMIZATION CONVERGED  **

                    Orbital Energies (a.u.)
 --------------------------------------------------------------

 Alpha MOs
 -- Occupied --
-18.940 -18.939 -18.919 -18.909 -18.897 -18.884 -18.883 -18.882
-18.860 -18.856 -10.105 -10.105 -10.089 -10.081 -10.081 -10.077
-10.059 -10.057 -10.053 -10.051 -10.049 -10.036 -10.036 -10.032
-10.028 -10.019 -10.016 -10.016 -10.014 -10.012  -1.021  -1.013
 -0.997  -0.989  -0.971  -0.967  -0.944  -0.941  -0.924  -0.915
 -0.762  -0.758  -0.728  -0.719  -0.712  -0.701  -0.695  -0.653
 -0.634  -0.619  -0.593  -0.578  -0.543  -0.539  -0.534  -0.532
 -0.514  -0.504  -0.483  -0.463  -0.459  -0.450  -0.449  -0.441
 -0.439  -0.429  -0.426  -0.410  -0.405  -0.401  -0.398  -0.395
 -0.382  -0.376  -0.373  -0.361  -0.359  -0.354  -0.347  -0.346
 -0.339  -0.337  -0.330  -0.328  -0.327  -0.321  -0.317  -0.308
 -0.306  -0.300  -0.299  -0.296  -0.291  -0.276  -0.276  -0.269
 -0.265  -0.256  -0.252  -0.243  -0.241  -0.231  -0.220  -0.192
 -0.174  -0.164  -0.162  -0.157  -0.155  -0.142  -0.141  -0.139
 -0.133

          Ground-State Mulliken Net Atomic Charges

     Atom                 Charge (a.u.)
  ----------------------------------------
      1 O                    -0.210426
      2 C                     0.208094
      3 C                    -0.080188
      4 C                    -0.077971
      5 C                     0.219128
      6 O                    -0.170617
      7 C                    -0.048831
      8 C                    -0.051979
      9 O                    -0.167896
     10 C                     0.218099
     11 C                    -0.079340
     12 C                    -0.082364
     13 C                     0.214541
     14 O                    -0.216854
     15 O                    -0.183145
     16 O                    -0.175319
     17 O                    -0.212956
     18 C                    -0.128425
     19 C                     0.016917
     20 C                    -0.142542
     21 C                    -0.143641
     22 C                     0.027515
     23 O                    -0.180089
     24 H                     0.087220
     25 H                     0.084633
     26 H                     0.114977
     27 H                     0.082545
     28 H                     0.073074
     29 H                     0.079717
     30 H                     0.072595
     31 H                     0.089793
     32 O                    -0.213328
     33 C                    -0.156206
     34 C                     0.023698
     35 C                    -0.143471
     36 C                    -0.144220
     37 C                     0.025368
     38 O                    -0.188643
     39 H                     0.082548
     40 H                     0.086951
     41 H                     0.119000
     42 H                     0.092183
     43 H                     0.077525
     44 H                     0.073338
     45 H                     0.077245
     46 H                     0.073309
     47 H                     0.079807
     48 H                     0.073004
     49 H                     0.084791
     50 H                     0.085889
     51 H                     0.087043
     52 H                     0.091523
     53 H                     0.085459
     54 H                     0.103903
     55 H                     0.090989
     56 H                     0.096028
  ----------------------------------------
  Sum of atomic charges =    -0.000000

                    Cartesian Multipole Moments
 -----------------------------------------------------------------
    Charge (ESU x 10^10)
                -0.0000
    Dipole Moment (Debye)
         X       0.2735      Y       2.3233      Z       2.0916
       Tot       3.1380
    Quadrupole Moments (Debye-Ang)
        XX    -141.7043     XY       4.2139     YY    -154.6879
        XZ      -4.1832     YZ       2.1136     ZZ    -159.2108

 Total job time:  111.94s(wall), 5341.48s(cpu)
        *  Thank you very much for using Q-Chem.  Have a nice day.  *
