 Q-Chem 5.0, Q-Chem, Inc., Pleasanton, CA (2017)
 Q-Chem 5.0.1 for Intel X86 EM64T Linux

User input:
--------------------------------------------------------------
$molecule
0  1
O -2.9057490473 0.4563646239 2.5934631058
C -3.0440994486 0.9997281617 1.4780435499
C -4.2924733415 0.915531534 0.5196281698
C -4.0615666227 0.0055511778 -0.7588825964
C -2.6335779323 -0.6246760983 -0.7948515471
O -2.3238743516 -1.0200853473 -2.1382008357
C -0.9655165002 -1.616718063 -2.1830337424
C 0.1564131451 -0.5341434029 -1.955750046
O 1.2939791717 -1.2278111847 -1.3008861644
C 2.3215110207 -0.2840319841 -0.9939696957
C 3.5394993813 -1.0477474454 -0.3770445306
C 4.7405887527 -0.0813943649 -0.0262612804
C 4.5755257204 1.3904111384 -0.5614698653
O 4.4282400748 2.4312212074 0.1127907924
O -2.080716068 1.8682693747 0.863380186
O 4.7957914918 1.361679907 -1.9815557071
O 2.2118045372 0.9498569685 -1.175613706
C 4.5828518842 2.7117678376 -2.5463189214
C 3.1488978746 -1.5705749658 1.0743332299
C 4.283766885 -2.5353093325 1.6003989204
C 5.4038822904 -1.5038300173 1.9984712048
C 4.7316669406 -0.1460096362 1.5583382305
O 3.3031755034 -0.3515139786 1.8996682947
H 3.8357829954 -1.8706398988 -1.0517584112
H 5.6834388652 -0.4825919619 -0.4401493721
H 2.1174443437 -1.9677856189 1.1467290397
H 3.9279290905 -3.105771974 2.472828776
H 4.6149708237 -3.2452620185 0.8254283635
H 5.5851184821 -1.507434672 3.0851403564
H 6.3583221949 -1.6884448425 1.4800286107
H 5.1160414668 0.7693281323 2.0486451149
O -1.8716143875 -0.8197582621 0.1785285931
C -0.8263782205 1.8650002629 1.650035292
C -5.4903519662 0.1487790845 1.220999199
C -6.8147618656 0.4350571882 0.4105109476
C -6.5864693244 -0.455257803 -0.8673167102
C -5.1833906456 -1.1035820253 -0.5411568272
O -5.2064961916 -1.2766308155 0.9264054382
H -4.5748887367 1.9408557119 0.2203589877
H -4.2252955967 0.5616440692 -1.6990129519
H -0.3955337654 0.8443409822 1.7087798103
H -5.5491073852 0.3082813511 2.3150048538
H -7.6961074668 0.1022379037 0.9812929099
H -6.9320722556 1.5037156262 0.1694427021
H -7.3576315469 -1.2367037858 -0.9590641357
H -6.5659680698 0.1318847249 -1.7993229895
H -4.9799695097 -2.0675183724 -1.0473105582
H -0.985649237 2.2420518196 2.6807554257
H -0.124994959 2.5320185629 1.115489545
H 4.8260112586 2.6383920804 -3.6224114171
H 5.2386485487 3.4669841033 -2.0668324868
H 3.5276477232 3.0324275777 -2.4251194104
H 0.4757580192 -0.0817609268 -2.9191501952
H -0.222666044 0.2812616851 -1.3026953846
H -0.8761549226 -2.0787760322 -3.1854322978
H -0.8550391915 -2.4024882852 -1.4038683203
$end

$rem
JOBTYPE                   OPT
METHOD                    B3LYP
DFT_D                     d3_op
BASIS                     STO-3G
GEOM_OPT_MAX_CYCLES       100
GEOM_OPT_TOL_GRADIENT     300
GEOM_OPT_TOL_DISPLACEMENT 1200
GEOM_OPT_TOL_ENERGY       100
SYMMETRY                  False
THRESH                    12
SCF_CONVERGENCE           8
MAX_SUB_FILE_NUM          128
MEM_STATIC                400
MEM_TOTAL                 4000
$end
--------------------------------------------------------------

   15   -1510.2856250477      8.42E-09 Convergence criterion met
 Total energy in the final basis set = -1510.28562505
   14   -1510.2867650595      1.38E-09 Convergence criterion met
 Total energy in the final basis set = -1510.28676506
   14   -1510.2880449147      1.77E-09 Convergence criterion met
 Total energy in the final basis set = -1510.28804491
   14   -1510.2844879346      2.30E-09 Convergence criterion met
 Total energy in the final basis set = -1510.28448793
   14   -1510.2894245705      1.86E-09 Convergence criterion met
 Total energy in the final basis set = -1510.28942457
   14   -1510.2899910663      1.79E-09 Convergence criterion met
 Total energy in the final basis set = -1510.28999107
   14   -1510.2907492557      2.41E-09 Convergence criterion met
 Total energy in the final basis set = -1510.29074926
   13   -1510.2892497239      8.92E-09 Convergence criterion met
   12   -1510.3008701994      5.57E-09 Convergence criterion met
 Total energy in the final basis set = -1510.30087020
   12   -1510.3009148449      3.96E-09 Convergence criterion met
 Total energy in the final basis set = -1510.30091484
   11   -1510.3009233441      7.29E-09 Convergence criterion met
 Total energy in the final basis set = -1510.30092334
   11   -1510.3009285146      4.48E-09 Convergence criterion met
 Total energy in the final basis set = -1510.30092851
   10   -1510.3009274518      5.50E-09 Convergence criterion met
 Total energy in the final basis set = -1510.30092745
    9   -1510.3009292584      6.93E-09 Convergence criterion met
 Total energy in the final basis set = -1510.30092926

             Standard Nuclear Orientation (Angstroms)
    I     Atom           X                Y                Z
 ----------------------------------------------------------------
    1      O       1.1732529058    -1.8225192467    -1.2876698406
    2      C       1.6546858271    -0.6717364208    -1.3703119558
    3      C       3.1154774418    -0.2327005404    -0.9770688420
    4      C       3.2293520560     0.7545667938     0.2524329118
    5      C       1.8896690355     0.9514411183     1.0350024254
    6      O       2.0044566417     2.1610624645     1.7921048182
    7      C       0.8820380022     2.3218123571     2.7467650783
    8      C      -0.5104187424     2.6535053457     2.0829361349
    9      O      -1.3849036665     1.4608986459     2.1541459656
   10      C      -1.7677606150     1.0379180490     0.8408346991
   11      C      -2.5420025945    -0.3106434006     0.9765330669
   12      C      -3.6876513755    -0.5066033856    -0.1013048593
   13      C      -3.7429860333     0.6469179893    -1.1678428302
   14      O      -3.4159663406     0.5872320404    -2.3716176584
   15      O       1.0064916508     0.4613484434    -1.9411479161
   16      O      -4.3124832666     1.8029055863    -0.5389296093
   17      O      -1.5097440355     1.6735225862    -0.2059362717
   18      C      -4.2838194905     2.9454800179    -1.4789496643
   19      C      -1.5992265820    -1.5587256640     0.6549096592
   20      C      -2.2829489846    -2.8460520529     1.2536240367
   21      C      -3.4854902625    -3.0454383678     0.2552641064
   22      C      -3.2424595739    -1.8687370131    -0.7681093466
   23      O      -1.7642822414    -1.7542068047    -0.8028127658
   24      H      -2.9364335619    -0.3741075222     2.0055738174
   25      H      -4.6757351658    -0.5820506742     0.3872131249
   26      H      -0.5304860134    -1.3900465141     0.9004898299
   27      H      -1.5853736591    -3.6979991730     1.2183795697
   28      H      -2.6116158943    -2.6989061455     2.2947845140
   29      H      -3.4277953191    -4.0192376285    -0.2562502658
   30      H      -4.4661236777    -2.9641238415     0.7511073839
   31      H      -3.6378995269    -2.0259718257    -1.7901537588
   32      O       0.9038902893     0.1834021242     1.0719418589
   33      C      -0.3174574911     0.0871895698    -2.5025485107
   34      C       3.9837801580    -1.4592604599    -0.4714175998
   35      C       5.5063149400    -1.0868253369    -0.6419843224
   36      C       5.6797963156    -0.0178278772     0.5006067154
   37      C       4.2497516193    -0.0497655490     1.1739877987
   38      O       3.7996934027    -1.4479224413     1.0005513526
   39      H       3.5700596618     0.2344522784    -1.8694889800
   40      H       3.6233081079     1.7453682151    -0.0341911168
   41      H      -0.8805483632    -0.6133394219    -1.8343466992
   42      H       3.6690782775    -2.4347986855    -0.8901356835
   43      H       6.1415211189    -1.9699594674    -0.4671793037
   44      H       5.7293467210    -0.6824028623    -1.6421273809
   45      H       6.4540408313    -0.3166909581     1.2250838679
   46      H       5.9281415943     0.9825572079     0.1111459509
   47      H       4.2260013950     0.2411262977     2.2424119958
   48      H      -0.1852644243    -0.3830558769    -3.4985059321
   49      H      -0.8811019566     1.0301575466    -2.6170722866
   50      H      -4.7853153585     3.7835770380    -0.9609763031
   51      H      -4.8200642326     2.7149632102    -2.4221072367
   52      H      -3.2403705277     3.2307635445    -1.7258665977
   53      H      -1.0052475558     3.4739004355     2.6438578969
   54      H      -0.3935777199     2.9528599640     1.0173174787
   55      H       1.1949423159     3.1615857781     3.3989095533
   56      H       0.7601616169     1.4069243080     3.3680442695
 ----------------------------------------------------------------

    9   -1510.3009289329      4.32E-09 Convergence criterion met
 Total energy in the final basis set = -1510.30092893
 Final energy is   -1510.30092893286
 **  OPTIMIZATION CONVERGED  **

                    Orbital Energies (a.u.)
 --------------------------------------------------------------

 Alpha MOs
 -- Occupied --
-18.939 -18.933 -18.924 -18.903 -18.898 -18.883 -18.883 -18.877
-18.867 -18.848 -10.106 -10.102 -10.093 -10.078 -10.076 -10.071
-10.059 -10.059 -10.057 -10.053 -10.050 -10.036 -10.036 -10.034
-10.024 -10.018 -10.018 -10.016 -10.015 -10.009  -1.020  -1.011
 -1.002  -0.983  -0.972  -0.966  -0.944  -0.937  -0.928  -0.909
 -0.762  -0.758  -0.726  -0.719  -0.711  -0.701  -0.694  -0.657
 -0.631  -0.618  -0.592  -0.577  -0.544  -0.539  -0.534  -0.531
 -0.511  -0.504  -0.481  -0.464  -0.459  -0.449  -0.448  -0.444
 -0.435  -0.428  -0.425  -0.412  -0.406  -0.400  -0.397  -0.390
 -0.378  -0.375  -0.374  -0.361  -0.353  -0.353  -0.349  -0.345
 -0.341  -0.334  -0.329  -0.328  -0.325  -0.321  -0.317  -0.307
 -0.305  -0.302  -0.297  -0.295  -0.294  -0.279  -0.271  -0.269
 -0.265  -0.257  -0.249  -0.246  -0.239  -0.230  -0.215  -0.189
 -0.172  -0.168  -0.160  -0.157  -0.153  -0.146  -0.141  -0.139
 -0.128

          Ground-State Mulliken Net Atomic Charges

     Atom                 Charge (a.u.)
  ----------------------------------------
      1 O                    -0.216938
      2 C                     0.209843
      3 C                    -0.081264
      4 C                    -0.077350
      5 C                     0.218445
      6 O                    -0.172252
      7 C                    -0.050424
      8 C                    -0.056862
      9 O                    -0.171369
     10 C                     0.221854
     11 C                    -0.079135
     12 C                    -0.080641
     13 C                     0.214401
     14 O                    -0.212372
     15 O                    -0.180710
     16 O                    -0.175501
     17 O                    -0.214094
     18 C                    -0.128889
     19 C                     0.024064
     20 C                    -0.142364
     21 C                    -0.143741
     22 C                     0.027043
     23 O                    -0.178387
     24 H                     0.087308
     25 H                     0.084971
     26 H                     0.111286
     27 H                     0.082591
     28 H                     0.073668
     29 H                     0.079655
     30 H                     0.072870
     31 H                     0.090230
     32 O                    -0.213421
     33 C                    -0.151212
     34 C                     0.023851
     35 C                    -0.143443
     36 C                    -0.144052
     37 C                     0.024826
     38 O                    -0.190617
     39 H                     0.082367
     40 H                     0.087491
     41 H                     0.119156
     42 H                     0.090591
     43 H                     0.077139
     44 H                     0.073432
     45 H                     0.077115
     46 H                     0.073468
     47 H                     0.080483
     48 H                     0.068389
     49 H                     0.085720
     50 H                     0.086982
     51 H                     0.088143
     52 H                     0.092253
     53 H                     0.085231
     54 H                     0.105695
     55 H                     0.090426
     56 H                     0.094051
  ----------------------------------------
  Sum of atomic charges =     0.000000

                    Cartesian Multipole Moments
 -----------------------------------------------------------------
    Charge (ESU x 10^10)
                -0.0000
    Dipole Moment (Debye)
         X      -0.1685      Y       2.0086      Z       2.2870
       Tot       3.0485
    Quadrupole Moments (Debye-Ang)
        XX    -141.5031     XY       4.5094     YY    -154.9772
        XZ      -3.6650     YZ       2.5746     ZZ    -158.2905

 Total job time:  107.47s(wall), 5126.55s(cpu)
        *  Thank you very much for using Q-Chem.  Have a nice day.  *
