 Q-Chem 5.0, Q-Chem, Inc., Pleasanton, CA (2017)
 Q-Chem 5.0.1 for Intel X86 EM64T Linux

User input:
--------------------------------------------------------------
$molecule
0  1
O -3.94934 -3.66094 2.70899
C -3.26408 -4.56952 2.26188
C -3.36658 -6.02376 2.66595
C -2.24262 -6.5882 3.55024
C -1.23505 -5.59128 4.07849
O -0.08971 -6.23893 4.44482
C 0.91747 -5.35778 4.95317
C 1.48006 -4.49706 3.82678
O 1.90401 -3.22696 4.34639
C 2.35981 -2.34265 3.42477
C 2.8579 -1.05634 4.03956
C 3.40631 -0.02985 3.03764
C 3.05704 -0.27419 1.58334
O 2.33625 0.43701 0.89834
O -2.26243 -4.27059 1.39377
O 3.83971 -1.18535 0.9398
O 2.36179 -2.63633 2.23957
C 3.77023 -1.45973 -0.41072
C 1.75671 -0.23572 4.73608
C 2.38906 0.66693 5.79281
C 3.1108 1.66688 4.91258
C 2.62882 1.21237 3.52856
O 1.3428 0.69268 3.76581
H 3.63466 -1.34587 4.7835
H 4.50687 0.11814 3.10333
H 0.9561 -0.86006 5.18941
H 1.55323 1.18812 6.31278
H 3.02436 0.15407 6.54665
H 2.72957 2.68394 5.15383
H 4.2201 1.64745 4.98078
H 2.68725 2.05984 2.81035
O -1.54778 -4.4786 4.4908
C -1.96148 -2.99591 0.96226
C -4.58129 -6.27231 3.58869
C -4.97715 -7.74905 3.55687
C -3.85304 -8.35758 4.3652
C -3.07242 -7.09684 4.74472
O -4.06773 -6.1148 4.8864
H -3.51369 -6.60291 1.7271
H -1.69078 -7.42302 3.06107
H -1.68222 -2.35601 1.8267
H -5.46327 -5.64542 3.33149
H -5.92434 -7.85922 4.13202
H -5.11358 -8.16976 2.53741
H -4.28744 -8.81901 5.28016
H -3.22695 -9.10182 3.82718
H -2.44785 -7.29039 5.64528
H -2.83289 -2.555 0.43263
H -1.10243 -3.04246 0.26193
H 4.51468 -2.24291 -0.66133
H 3.99987 -0.54639 -1.00003
H 2.75676 -1.83178 -0.67322
H 2.28228 -5.04116 3.28007
H 0.66904 -4.27422 3.09896
H 1.74571 -5.92451 5.42819
H 0.47739 -4.72456 5.75802
$end

$opt
CONSTRAINT
tors           1           2           3           4    -106.641
tors           3           4           5           6    -159.765
tors           4           5           6           7    +179.818
tors           5           6           7           8     -70.229
tors           6           7           8           9    +149.833
tors           7           8           9          10    -176.655
tors           8           9          10          11    -176.951
tors           9          10          11          12    +179.055
tors          11          12          13          14    +113.389
ENDCONSTRAINT
$end

$rem
JOBTYPE                   OPT
METHOD                    B3LYP
DFT_D                     d3_op
BASIS                     STO-3G
GEOM_OPT_MAX_CYCLES       100
GEOM_OPT_TOL_GRADIENT     300
GEOM_OPT_TOL_DISPLACEMENT 1200
GEOM_OPT_TOL_ENERGY       100
SYMMETRY                  False
THRESH                    12
SCF_CONVERGENCE           8
MAX_SUB_FILE_NUM          128
MEM_STATIC                400
MEM_TOTAL                 4000
$end
--------------------------------------------------------------

   15   -1510.1464205288      5.59E-09 Convergence criterion met
 Total energy in the final basis set = -1510.14642053
   14   -1510.2168076471      7.06E-09 Convergence criterion met
 Total energy in the final basis set = -1510.21680765
   14   -1510.2544262377      7.30E-09 Convergence criterion met
 Total energy in the final basis set = -1510.25442624
   14   -1510.2712324150      4.07E-09 Convergence criterion met
 Total energy in the final basis set = -1510.27123241
   13   -1510.2783185142      8.62E-09 Convergence criterion met
 Total energy in the final basis set = -1510.27831851
   13   -1510.2813490917      4.43E-09 Convergence criterion met
 Total energy in the final basis set = -1510.28134909
   13   -1510.2831520121      3.45E-09 Convergence criterion met
 Total energy in the final basis set = -1510.28315201
   13   -1510.2840743620      4.02E-09 Convergence criterion met
   11   -1510.2856527354      9.01E-09 Convergence criterion met
 Total energy in the final basis set = -1510.28565274
   10   -1510.2856962969      8.33E-09 Convergence criterion met
 Total energy in the final basis set = -1510.28569630
   10   -1510.2857226960      6.82E-09 Convergence criterion met
 Total energy in the final basis set = -1510.28572270
   10   -1510.2857396567      5.16E-09 Convergence criterion met
 Total energy in the final basis set = -1510.28573966
   10   -1510.2857493849      4.12E-09 Convergence criterion met
 Total energy in the final basis set = -1510.28574938
    9   -1510.2857549090      6.06E-09 Convergence criterion met
 Total energy in the final basis set = -1510.28575491

             Standard Nuclear Orientation (Angstroms)
    I     Atom           X                Y                Z
 ----------------------------------------------------------------
    1      O      -2.9057490473     0.4563646239     2.5934631058
    2      C      -3.0440994486     0.9997281617     1.4780435499
    3      C      -4.2924733415     0.9155315340     0.5196281698
    4      C      -4.0615666227     0.0055511778    -0.7588825964
    5      C      -2.6335779323    -0.6246760983    -0.7948515471
    6      O      -2.3238743516    -1.0200853473    -2.1382008357
    7      C      -0.9655165002    -1.6167180630    -2.1830337424
    8      C       0.1564131451    -0.5341434029    -1.9557500460
    9      O       1.2939791717    -1.2278111847    -1.3008861644
   10      C       2.3215110207    -0.2840319841    -0.9939696957
   11      C       3.5394993813    -1.0477474454    -0.3770445306
   12      C       4.7405887527    -0.0813943649    -0.0262612804
   13      C       4.5755257204     1.3904111384    -0.5614698653
   14      O       4.4282400748     2.4312212074     0.1127907924
   15      O      -2.0807160680     1.8682693747     0.8633801860
   16      O       4.7957914918     1.3616799070    -1.9815557071
   17      O       2.2118045372     0.9498569685    -1.1756137060
   18      C       4.5828518842     2.7117678376    -2.5463189214
   19      C       3.1488978746    -1.5705749658     1.0743332299
   20      C       4.2837668850    -2.5353093325     1.6003989204
   21      C       5.4038822904    -1.5038300173     1.9984712048
   22      C       4.7316669406    -0.1460096362     1.5583382305
   23      O       3.3031755034    -0.3515139786     1.8996682947
   24      H       3.8357829954    -1.8706398988    -1.0517584112
   25      H       5.6834388652    -0.4825919619    -0.4401493721
   26      H       2.1174443437    -1.9677856189     1.1467290397
   27      H       3.9279290905    -3.1057719740     2.4728287760
   28      H       4.6149708237    -3.2452620185     0.8254283635
   29      H       5.5851184821    -1.5074346720     3.0851403564
   30      H       6.3583221949    -1.6884448425     1.4800286107
   31      H       5.1160414668     0.7693281323     2.0486451149
   32      O      -1.8716143875    -0.8197582621     0.1785285931
   33      C      -0.8263782205     1.8650002629     1.6500352920
   34      C      -5.4903519662     0.1487790845     1.2209991990
   35      C      -6.8147618656     0.4350571882     0.4105109476
   36      C      -6.5864693244    -0.4552578030    -0.8673167102
   37      C      -5.1833906456    -1.1035820253    -0.5411568272
   38      O      -5.2064961916    -1.2766308155     0.9264054382
   39      H      -4.5748887367     1.9408557119     0.2203589877
   40      H      -4.2252955967     0.5616440692    -1.6990129519
   41      H      -0.3955337654     0.8443409822     1.7087798103
   42      H      -5.5491073852     0.3082813511     2.3150048538
   43      H      -7.6961074668     0.1022379037     0.9812929099
   44      H      -6.9320722556     1.5037156262     0.1694427021
   45      H      -7.3576315469    -1.2367037858    -0.9590641357
   46      H      -6.5659680698     0.1318847249    -1.7993229895
   47      H      -4.9799695097    -2.0675183724    -1.0473105582
   48      H      -0.9856492370     2.2420518196     2.6807554257
   49      H      -0.1249949590     2.5320185629     1.1154895450
   50      H       4.8260112586     2.6383920804    -3.6224114171
   51      H       5.2386485487     3.4669841033    -2.0668324868
   52      H       3.5276477232     3.0324275777    -2.4251194104
   53      H       0.4757580192    -0.0817609268    -2.9191501952
   54      H      -0.2226660440     0.2812616851    -1.3026953846
   55      H      -0.8761549226    -2.0787760322    -3.1854322978
   56      H      -0.8550391915    -2.4024882852    -1.4038683203
 ----------------------------------------------------------------

    9   -1510.2857567276      4.32E-09 Convergence criterion met
 Total energy in the final basis set = -1510.28575673
 Final energy is   -1510.28575672757
 **  OPTIMIZATION CONVERGED  **

                    Orbital Energies (a.u.)
 --------------------------------------------------------------

 Alpha MOs
 -- Occupied --
-18.944 -18.943 -18.917 -18.917 -18.888 -18.887 -18.886 -18.885
-18.862 -18.859 -10.107 -10.107 -10.089 -10.088 -10.082 -10.078
-10.063 -10.059 -10.056 -10.055 -10.053 -10.049 -10.041 -10.040
-10.033 -10.032 -10.021 -10.019 -10.019 -10.018  -1.024  -1.019
 -0.996  -0.996  -0.970  -0.968  -0.947  -0.943  -0.923  -0.923
 -0.764  -0.761  -0.730  -0.722  -0.714  -0.705  -0.696  -0.653
 -0.651  -0.621  -0.596  -0.582  -0.545  -0.544  -0.537  -0.536
 -0.516  -0.508  -0.486  -0.468  -0.460  -0.454  -0.453  -0.448
 -0.443  -0.431  -0.429  -0.407  -0.406  -0.403  -0.401  -0.399
 -0.398  -0.382  -0.374  -0.363  -0.361  -0.354  -0.350  -0.345
 -0.342  -0.341  -0.337  -0.331  -0.331  -0.325  -0.324  -0.312
 -0.310  -0.305  -0.303  -0.301  -0.296  -0.278  -0.276  -0.274
 -0.273  -0.260  -0.257  -0.243  -0.243  -0.234  -0.233  -0.188
 -0.186  -0.164  -0.163  -0.160  -0.160  -0.145  -0.143  -0.140
 -0.140

          Ground-State Mulliken Net Atomic Charges

     Atom                 Charge (a.u.)
  ----------------------------------------
      1 O                    -0.211505
      2 C                     0.214660
      3 C                    -0.080476
      4 C                    -0.078811
      5 C                     0.212101
      6 O                    -0.170116
      7 C                    -0.048702
      8 C                    -0.048711
      9 O                    -0.171182
     10 C                     0.216540
     11 C                    -0.077599
     12 C                    -0.081659
     13 C                     0.216233
     14 O                    -0.217622
     15 O                    -0.179437
     16 O                    -0.178098
     17 O                    -0.206382
     18 C                    -0.128726
     19 C                     0.024545
     20 C                    -0.144194
     21 C                    -0.143502
     22 C                     0.024157
     23 O                    -0.190096
     24 H                     0.086957
     25 H                     0.083260
     26 H                     0.087522
     27 H                     0.079012
     28 H                     0.073089
     29 H                     0.078269
     30 H                     0.072960
     31 H                     0.089963
     32 O                    -0.206835
     33 C                    -0.130229
     34 C                     0.025141
     35 C                    -0.144188
     36 C                    -0.143463
     37 C                     0.025857
     38 O                    -0.187277
     39 H                     0.083761
     40 H                     0.086804
     41 H                     0.093967
     42 H                     0.090039
     43 H                     0.078304
     44 H                     0.073544
     45 H                     0.078310
     46 H                     0.073739
     47 H                     0.083045
     48 H                     0.087274
     49 H                     0.090850
     50 H                     0.085050
     51 H                     0.086887
     52 H                     0.090751
     53 H                     0.087027
     54 H                     0.098354
     55 H                     0.092328
     56 H                     0.098507
  ----------------------------------------
  Sum of atomic charges =     0.000000

                    Cartesian Multipole Moments
 -----------------------------------------------------------------
    Charge (ESU x 10^10)
                 0.0000
    Dipole Moment (Debye)
         X      -0.0483      Y      -1.0563      Z      -3.5885
       Tot       3.7411
    Quadrupole Moments (Debye-Ang)
        XX    -141.6132     XY     -12.7353     YY    -158.4984
        XZ       5.6935     YZ       1.0760     ZZ    -160.8315

 Total job time:  51.95s(wall), 2468.60s(cpu)
        *  Thank you very much for using Q-Chem.  Have a nice day.  *
