 Q-Chem 5.0, Q-Chem, Inc., Pleasanton, CA (2017)
 Q-Chem 5.0.1 for Intel X86 EM64T Linux

User input:
--------------------------------------------------------------
$molecule
0  1
O -2.4395611408 0.520192038 2.540191261
C -2.5581867118 1.0138358032 1.3994084659
C -3.8405225149 1.0072228428 0.4793321276
C -3.7907612949 -0.0599141484 -0.6932391468
C -2.4707006451 -0.8909838046 -0.6910817011
O -2.3203013919 -1.576562421 -1.9443288447
C -1.034012871 -2.3188943729 -1.9124465425
C 0.1625317962 -1.3267497709 -2.1693178451
O 1.2621094681 -1.7140441093 -1.2508411861
C 2.1269768926 -0.5981614416 -1.033136321
C 3.3378919321 -1.0540793663 -0.1557612454
C 4.3991891953 0.1026212312 0.0258947587
C 4.1867677426 1.3439971197 -0.9174112241
O 3.9985074811 2.5299350934 -0.5737625617
O -1.5309855653 1.7286898583 0.6986321172
O 4.452412278 0.9205348496 -2.2652607825
O 1.894271741 0.5614623404 -1.4459581151
C 4.2331778046 2.0492771061 -3.1950324915
C 2.8416797039 -1.2321033387 1.3454825703
C 4.0062108008 -1.8661742574 2.2037715668
C 4.946975649 -0.6218651571 2.4173634604
C 4.1977933163 0.4668430591 1.5565516805
O 2.7675013252 0.1700199735 1.8142839589
H 3.773400815 -1.9804585994 -0.5704092728
H 5.417238907 -0.2854338952 -0.1598010782
H 1.8567558118 -1.7302163216 1.4399455713
H 3.6157472484 -2.2512357309 3.159056027
H 4.5083242392 -2.689259403 1.6701739525
H 4.9797570945 -0.3197248243 3.476357168
H 5.9760869385 -0.7990783718 2.0663602852
H 4.4220647815 1.5234839074 1.8006660737
O -1.6454660444 -0.9943995393 0.2442504471
C -0.2457839536 1.6207918058 1.4263488813
C -5.111880986 0.5081135916 1.2816266448
C -6.4086480364 0.8917176572 0.467195615
C -6.3596315586 -0.1662432215 -0.698284397
C -5.0495169996 -0.9668237013 -0.3266897615
O -5.044942887 -0.9675075332 1.1512097912
H -3.98080926 2.0236932882 0.0701624608
H -3.9117175984 0.4082585437 -1.6864677601
H 0.0367547261 0.5609747933 1.5889081295
H -5.1127014102 0.7956970813 2.3507114833
H -7.3082370879 0.7633040342 1.0899843967
H -6.3770677694 1.930108696 0.1003811427
H -7.2354472794 -0.8341221255 -0.6766928586
H -6.2944589738 0.2985958689 -1.6951426804
H -4.999139491 -2.0004310418 -0.721597889
H -0.2852906766 2.132093589 2.4097997259
H 0.5144590056 2.1061886825 0.7863800761
H 4.5155702372 1.6821724282 -4.1990425024
H 4.8572776303 2.927303938 -2.9305528163
H 3.1687730048 2.3626071495 -3.2008965744
H 0.5124565399 -1.38506567 -3.2226149499
H -0.1461111024 -0.2782371468 -1.9677704412
H -1.1029048317 -3.082748194 -2.7111787988
H -0.8828832099 -2.8120533265 -0.9285281768
$end

$rem
JOBTYPE                   OPT
METHOD                    B3LYP
DFT_D                     d3_op
BASIS                     STO-3G
GEOM_OPT_MAX_CYCLES       100
GEOM_OPT_TOL_GRADIENT     300
GEOM_OPT_TOL_DISPLACEMENT 1200
GEOM_OPT_TOL_ENERGY       100
SYMMETRY                  False
THRESH                    12
SCF_CONVERGENCE           8
MAX_SUB_FILE_NUM          128
MEM_STATIC                400
MEM_TOTAL                 4000
$end
--------------------------------------------------------------

   15   -1510.2866697480      9.41E-09 Convergence criterion met
 Total energy in the final basis set = -1510.28666975
   14   -1510.2884587448      2.63E-09 Convergence criterion met
 Total energy in the final basis set = -1510.28845874
   14   -1510.2898992683      3.25E-09 Convergence criterion met
 Total energy in the final basis set = -1510.28989927
   14   -1510.2826481471      3.55E-09 Convergence criterion met
 Total energy in the final basis set = -1510.28264815
   13   -1510.2878075928      8.19E-09 Convergence criterion met
 Total energy in the final basis set = -1510.28780759
   14   -1510.2913544669      3.48E-09 Convergence criterion met
 Total energy in the final basis set = -1510.29135447
   14   -1510.2919074307      2.07E-09 Convergence criterion met
 Total energy in the final basis set = -1510.29190743
   14   -1510.2942444720      1.75E-09 Convergence criterion met
   13   -1510.3012045355      3.32E-09 Convergence criterion met
 Total energy in the final basis set = -1510.30120454
   11   -1510.3012084547      8.80E-09 Convergence criterion met
 Total energy in the final basis set = -1510.30120845
   12   -1510.3012147689      2.62E-09 Convergence criterion met
 Total energy in the final basis set = -1510.30121477
   12   -1510.3012114232      5.39E-09 Convergence criterion met
 Total energy in the final basis set = -1510.30121142
   11   -1510.3012105845      3.79E-09 Convergence criterion met
 Total energy in the final basis set = -1510.30121058
   11   -1510.3012116381      2.15E-09 Convergence criterion met
 Total energy in the final basis set = -1510.30121164

             Standard Nuclear Orientation (Angstroms)
    I     Atom           X                Y                Z
 ----------------------------------------------------------------
    1      O      -1.1470779469    -1.8933108760     1.5248750148
    2      C      -1.6712326045    -0.7646394910     1.4075638336
    3      C      -3.1628922272    -0.4738498119     1.0063698717
    4      C      -3.3735088535     0.6017756768    -0.1361591772
    5      C      -2.0602700042     1.0837204953    -0.8392740438
    6      O      -2.1035462648     2.5160280108    -0.9001616372
    7      C      -1.0273028466     3.0645121269    -1.7578902859
    8      C       0.3945693907     3.0822729964    -1.0857603562
    9      O       1.1312293676     1.8866057128    -1.5592300624
   10      C       2.0250624036     1.4010482618    -0.5610591397
   11      C       2.5898680988     0.0305347755    -1.0570860398
   12      C       3.6755596579    -0.5990496921    -0.0925647494
   13      C       3.9415725342     0.2421158124     1.2113074818
   14      O       3.4899722463     0.0253033396     2.3556847539
   15      O      -1.0264123731     0.4760392798     1.6823268872
   16      O       4.9116198002     1.2520849621     0.8971204842
   17      O       2.2451094142     1.9774328722     0.5289811387
   18      C       5.1256822310     2.1168611952     2.0780698046
   19      C       1.4536350584    -1.0900615466    -1.0301956795
   20      C       1.9383031721    -2.2980007874    -1.9173495727
   21      C       3.0565243327    -2.9255969503    -1.0018937241
   22      C       2.9912063628    -1.9822750709     0.2610172195
   23      O       1.5512741364    -1.6365128256     0.3438200920
   24      H       2.9800735066     0.1626385105    -2.0819786450
   25      H       4.6364405010    -0.7329814288    -0.6203536954
   26      H       0.4294049201    -0.6997166748    -1.2284802905
   27      H       1.1094291036    -3.0048377826    -2.0811668611
   28      H       2.3218391375    -1.9679457684    -2.8959643842
   29      H       2.8113375417    -3.9619691593    -0.7203974845
   30      H       4.0509486078    -2.9141728002    -1.4764480299
   31      H       3.3309748219    -2.4283927430     1.2155053133
   32      O      -1.1656419448     0.3850706715    -1.3624574085
   33      C       0.3546376308     0.2331323550     2.1798708849
   34      C      -3.8537686814    -1.7500450387     0.3679307939
   35      C      -5.4162201889    -1.5846566725     0.5050146954
   36      C      -5.6883334379    -0.4561500359    -0.5584864187
   37      C      -4.2432415229    -0.2478173408    -1.1660099467
   38      O      -3.6237988248    -1.5877687317    -1.0876435207
   39      H      -3.6978372710    -0.1556465614     1.9202653530
   40      H      -3.9136757949     1.4918579055     0.2298400214
   41      H       0.8879844702    -0.5202151947     1.5431062680
   42      H      -3.4277033309    -2.7088878017     0.7227314454
   43      H      -5.9282878170    -2.5222599036     0.2359296867
   44      H      -5.7187322181    -1.2943811296     1.5238470909
   45      H      -6.3890654529    -0.7928936976    -1.3389584846
   46      H      -6.0813169838     0.4682889311    -0.1061182464
   47      H      -4.2225171048     0.1304602603    -2.2067493335
   48      H       0.3296477239    -0.1172544840     3.2308632870
   49      H       0.8758682216     1.2062073294     2.1267735446
   50      H       5.9146083153     2.8374536157     1.7941127638
   51      H       5.4548743241     1.5320929405     2.9612582695
   52      H       4.1981841017     2.6651625505     2.3423969067
   53      H       0.9409299622     4.0003561120    -1.3952947979
   54      H       0.3173916170     3.0798341228     0.0231201641
   55      H      -1.3444546075     4.1047717650    -1.9733946268
   56      H      -0.9542814776     2.4978652275    -2.7120640660
 ----------------------------------------------------------------

    9   -1510.3012116693      5.57E-09 Convergence criterion met
 Total energy in the final basis set = -1510.30121167
 Final energy is   -1510.30121166934
 **  OPTIMIZATION CONVERGED  **

                    Orbital Energies (a.u.)
 --------------------------------------------------------------

 Alpha MOs
 -- Occupied --
-18.941 -18.938 -18.919 -18.911 -18.896 -18.884 -18.883 -18.881
-18.859 -18.857 -10.106 -10.105 -10.088 -10.082 -10.081 -10.077
-10.059 -10.057 -10.053 -10.052 -10.048 -10.036 -10.036 -10.032
-10.029 -10.019 -10.016 -10.016 -10.014 -10.013  -1.021  -1.013
 -0.997  -0.991  -0.971  -0.967  -0.944  -0.940  -0.923  -0.917
 -0.761  -0.759  -0.728  -0.718  -0.712  -0.701  -0.695  -0.653
 -0.635  -0.619  -0.593  -0.578  -0.543  -0.538  -0.534  -0.532
 -0.514  -0.504  -0.483  -0.463  -0.459  -0.451  -0.449  -0.440
 -0.438  -0.429  -0.427  -0.409  -0.405  -0.401  -0.398  -0.396
 -0.383  -0.376  -0.372  -0.361  -0.359  -0.356  -0.347  -0.346
 -0.339  -0.336  -0.330  -0.328  -0.327  -0.321  -0.317  -0.308
 -0.306  -0.300  -0.299  -0.296  -0.289  -0.277  -0.276  -0.269
 -0.265  -0.256  -0.252  -0.243  -0.241  -0.231  -0.221  -0.192
 -0.174  -0.163  -0.162  -0.159  -0.154  -0.142  -0.141  -0.139
 -0.134

          Ground-State Mulliken Net Atomic Charges

     Atom                 Charge (a.u.)
  ----------------------------------------
      1 O                    -0.209542
      2 C                     0.207894
      3 C                    -0.079999
      4 C                    -0.078204
      5 C                     0.219558
      6 O                    -0.170142
      7 C                    -0.048609
      8 C                    -0.051045
      9 O                    -0.167431
     10 C                     0.217577
     11 C                    -0.079402
     12 C                    -0.082543
     13 C                     0.214477
     14 O                    -0.217707
     15 O                    -0.182692
     16 O                    -0.175157
     17 O                    -0.212941
     18 C                    -0.128345
     19 C                     0.015802
     20 C                    -0.142582
     21 C                    -0.143696
     22 C                     0.027551
     23 O                    -0.180877
     24 H                     0.087235
     25 H                     0.084603
     26 H                     0.115307
     27 H                     0.082500
     28 H                     0.072963
     29 H                     0.079717
     30 H                     0.072608
     31 H                     0.089830
     32 O                    -0.213668
     33 C                    -0.156015
     34 C                     0.023625
     35 C                    -0.143503
     36 C                    -0.144310
     37 C                     0.025610
     38 O                    -0.188404
     39 H                     0.082665
     40 H                     0.086769
     41 H                     0.119332
     42 H                     0.092254
     43 H                     0.077556
     44 H                     0.073262
     45 H                     0.077265
     46 H                     0.073217
     47 H                     0.079981
     48 H                     0.074158
     49 H                     0.083382
     50 H                     0.085758
     51 H                     0.086863
     52 H                     0.091540
     53 H                     0.085627
     54 H                     0.103060
     55 H                     0.090992
     56 H                     0.096275
  ----------------------------------------
  Sum of atomic charges =    -0.000000

                    Cartesian Multipole Moments
 -----------------------------------------------------------------
    Charge (ESU x 10^10)
                -0.0000
    Dipole Moment (Debye)
         X      -0.4889      Y       2.3731      Z      -1.9507
       Tot       3.1106
    Quadrupole Moments (Debye-Ang)
        XX    -141.8071     XY      -3.5552     YY    -154.4846
        XZ      -4.3624     YZ      -1.6932     ZZ    -159.7323

 Total job time:  159.33s(wall), 7605.69s(cpu)
        *  Thank you very much for using Q-Chem.  Have a nice day.  *
