 Q-Chem 5.0, Q-Chem, Inc., Pleasanton, CA (2017)
 Q-Chem 5.0.1 for Intel X86 EM64T Linux

User input:
--------------------------------------------------------------
$molecule
0  1
O -3.94934 -3.66094 2.70899
C -3.26408 -4.56952 2.26188
C -3.36658 -6.02376 2.66595
C -2.29476 -6.56312 3.62727
C -1.34403 -5.5451 4.21705
O -0.26717 -6.18005 4.76719
C 0.70011 -5.27732 5.31373
C 1.54517 -4.6732 4.19703
O 1.7766 -3.27984 4.45753
C 2.06852 -2.52395 3.37008
C 2.40425 -1.09387 3.72051
C 2.85245 -0.22526 2.53606
C 2.56292 -0.78632 1.15835
O 1.88269 -0.24273 0.30024
O -2.25555 -4.26905 1.4013
O 3.431 -1.74968 0.73649
O 2.06605 -3.0219 2.25618
C 3.45243 -2.2828 -0.53635
C 1.20883 -0.28474 4.25241
C 1.72039 0.86979 5.11049
C 2.34101 1.75606 4.04911
C 1.93501 0.99338 2.78091
O 0.71088 0.3875 3.12226
H 3.2043 -1.14234 4.49426
H 3.93189 0.04173 2.57065
H 0.47607 -0.89788 4.82124
H 0.82373 1.38449 5.52478
H 2.39667 0.58619 5.94543
H 1.84578 2.75149 4.09195
H 3.44441 1.87421 4.1135
H 1.91021 1.68877 1.91326
O -1.47195 -4.32684 4.16451
C -1.95135 -2.99387 0.97264
C -4.62303 -6.29295 3.53085
C -5.0054 -7.77152 3.45877
C -3.90186 -8.38948 4.29008
C -3.16767 -7.12848 4.7545
O -4.18135 -6.1606 4.86022
H -3.4684 -6.61423 1.72781
H -1.67199 -7.32681 3.10846
H -1.67872 -2.35369 1.83906
H -5.49762 -5.66933 3.24234
H -5.96722 -7.88886 4.00799
H -5.11774 -8.18404 2.43312
H -4.36415 -8.91169 5.15717
H -3.22663 -9.08324 3.74374
H -2.58769 -7.33437 5.68131
H -2.81866 -2.55293 0.43641
H -1.08662 -3.03982 0.2792
H 4.2526 -3.04865 -0.5962
H 3.66288 -1.48713 -1.28253
H 2.47759 -2.76449 -0.76469
H 2.4745 -5.24581 3.98675
H 0.9188 -4.75102 3.28035
H 1.37232 -5.79942 6.02649
H 0.18596 -4.4908 5.91507
$end

$opt
CONSTRAINT
tors           1           2           3           4    -102.604
tors           3           4           5           6    -164.981
tors           4           5           6           7    +178.296
tors           5           6           7           8     -78.113
tors           6           7           8           9    +139.636
tors           7           8           9          10    -156.883
tors           8           9          10          11    -175.606
tors           9          10          11          12    +175.286
tors          11          12          13          14    +121.005
ENDCONSTRAINT
$end

$rem
JOBTYPE                   OPT
METHOD                    B3LYP
DFT_D                     d3_op
BASIS                     STO-3G
GEOM_OPT_MAX_CYCLES       100
GEOM_OPT_TOL_GRADIENT     300
GEOM_OPT_TOL_DISPLACEMENT 1200
GEOM_OPT_TOL_ENERGY       100
SYMMETRY                  False
THRESH                    12
SCF_CONVERGENCE           8
MAX_SUB_FILE_NUM          128
MEM_STATIC                400
MEM_TOTAL                 4000
$end
--------------------------------------------------------------

   15   -1510.1485595842      5.87E-09 Convergence criterion met
 Total energy in the final basis set = -1510.14855958
   14   -1510.2187499612      6.53E-09 Convergence criterion met
 Total energy in the final basis set = -1510.21874996
   14   -1510.2555548547      7.60E-09 Convergence criterion met
 Total energy in the final basis set = -1510.25555485
   14   -1510.2716193606      5.40E-09 Convergence criterion met
 Total energy in the final basis set = -1510.27161936
   13   -1510.2787403269      7.18E-09 Convergence criterion met
 Total energy in the final basis set = -1510.27874033
   13   -1510.2816743840      3.84E-09 Convergence criterion met
 Total energy in the final basis set = -1510.28167438
   13   -1510.2833941681      3.84E-09 Convergence criterion met
 Total energy in the final basis set = -1510.28339417
   13   -1510.2844686459      3.60E-09 Convergence criterion met
   12   -1510.2865879546      6.39E-09 Convergence criterion met
 Total energy in the final basis set = -1510.28658795
   12   -1510.2867380692      3.19E-09 Convergence criterion met
 Total energy in the final basis set = -1510.28673807
   11   -1510.2868266959      3.73E-09 Convergence criterion met
 Total energy in the final basis set = -1510.28682670
   11   -1510.2868891722      3.81E-09 Convergence criterion met
 Total energy in the final basis set = -1510.28688917
   11   -1510.2869122205      6.27E-09 Convergence criterion met
 Total energy in the final basis set = -1510.28691222
   10   -1510.2869366553      8.98E-09 Convergence criterion met
 Total energy in the final basis set = -1510.28693666

             Standard Nuclear Orientation (Angstroms)
    I     Atom           X                Y                Z
 ----------------------------------------------------------------
    1      O      -2.4395611408     0.5201920380     2.5401912610
    2      C      -2.5581867118     1.0138358032     1.3994084659
    3      C      -3.8405225149     1.0072228428     0.4793321276
    4      C      -3.7907612949    -0.0599141484    -0.6932391468
    5      C      -2.4707006451    -0.8909838046    -0.6910817011
    6      O      -2.3203013919    -1.5765624210    -1.9443288447
    7      C      -1.0340128710    -2.3188943729    -1.9124465425
    8      C       0.1625317962    -1.3267497709    -2.1693178451
    9      O       1.2621094681    -1.7140441093    -1.2508411861
   10      C       2.1269768926    -0.5981614416    -1.0331363210
   11      C       3.3378919321    -1.0540793663    -0.1557612454
   12      C       4.3991891953     0.1026212312     0.0258947587
   13      C       4.1867677426     1.3439971197    -0.9174112241
   14      O       3.9985074811     2.5299350934    -0.5737625617
   15      O      -1.5309855653     1.7286898583     0.6986321172
   16      O       4.4524122780     0.9205348496    -2.2652607825
   17      O       1.8942717410     0.5614623404    -1.4459581151
   18      C       4.2331778046     2.0492771061    -3.1950324915
   19      C       2.8416797039    -1.2321033387     1.3454825703
   20      C       4.0062108008    -1.8661742574     2.2037715668
   21      C       4.9469756490    -0.6218651571     2.4173634604
   22      C       4.1977933163     0.4668430591     1.5565516805
   23      O       2.7675013252     0.1700199735     1.8142839589
   24      H       3.7734008150    -1.9804585994    -0.5704092728
   25      H       5.4172389070    -0.2854338952    -0.1598010782
   26      H       1.8567558118    -1.7302163216     1.4399455713
   27      H       3.6157472484    -2.2512357309     3.1590560270
   28      H       4.5083242392    -2.6892594030     1.6701739525
   29      H       4.9797570945    -0.3197248243     3.4763571680
   30      H       5.9760869385    -0.7990783718     2.0663602852
   31      H       4.4220647815     1.5234839074     1.8006660737
   32      O      -1.6454660444    -0.9943995393     0.2442504471
   33      C      -0.2457839536     1.6207918058     1.4263488813
   34      C      -5.1118809860     0.5081135916     1.2816266448
   35      C      -6.4086480364     0.8917176572     0.4671956150
   36      C      -6.3596315586    -0.1662432215    -0.6982843970
   37      C      -5.0495169996    -0.9668237013    -0.3266897615
   38      O      -5.0449428870    -0.9675075332     1.1512097912
   39      H      -3.9808092600     2.0236932882     0.0701624608
   40      H      -3.9117175984     0.4082585437    -1.6864677601
   41      H       0.0367547261     0.5609747933     1.5889081295
   42      H      -5.1127014102     0.7956970813     2.3507114833
   43      H      -7.3082370879     0.7633040342     1.0899843967
   44      H      -6.3770677694     1.9301086960     0.1003811427
   45      H      -7.2354472794    -0.8341221255    -0.6766928586
   46      H      -6.2944589738     0.2985958689    -1.6951426804
   47      H      -4.9991394910    -2.0004310418    -0.7215978890
   48      H      -0.2852906766     2.1320935890     2.4097997259
   49      H       0.5144590056     2.1061886825     0.7863800761
   50      H       4.5155702372     1.6821724282    -4.1990425024
   51      H       4.8572776303     2.9273039380    -2.9305528163
   52      H       3.1687730048     2.3626071495    -3.2008965744
   53      H       0.5124565399    -1.3850656700    -3.2226149499
   54      H      -0.1461111024    -0.2782371468    -1.9677704412
   55      H      -1.1029048317    -3.0827481940    -2.7111787988
   56      H      -0.8828832099    -2.8120533265    -0.9285281768
 ----------------------------------------------------------------

   10   -1510.2869360789      6.91E-09 Convergence criterion met
 Total energy in the final basis set = -1510.28693608
 Final energy is   -1510.28693607893
 **  OPTIMIZATION CONVERGED  **

                    Orbital Energies (a.u.)
 --------------------------------------------------------------

 Alpha MOs
 -- Occupied --
-18.943 -18.942 -18.918 -18.912 -18.887 -18.886 -18.886 -18.886
-18.861 -18.856 -10.107 -10.106 -10.090 -10.084 -10.080 -10.077
-10.061 -10.060 -10.055 -10.055 -10.054 -10.042 -10.041 -10.040
-10.032 -10.030 -10.020 -10.020 -10.018 -10.018  -1.024  -1.019
 -0.997  -0.991  -0.969  -0.969  -0.946  -0.942  -0.924  -0.918
 -0.763  -0.761  -0.729  -0.721  -0.713  -0.704  -0.696  -0.654
 -0.645  -0.620  -0.595  -0.581  -0.545  -0.543  -0.537  -0.535
 -0.515  -0.508  -0.485  -0.468  -0.457  -0.455  -0.452  -0.450
 -0.441  -0.430  -0.429  -0.409  -0.405  -0.403  -0.401  -0.397
 -0.393  -0.379  -0.372  -0.363  -0.359  -0.354  -0.349  -0.343
 -0.341  -0.339  -0.336  -0.332  -0.329  -0.324  -0.322  -0.312
 -0.310  -0.304  -0.302  -0.300  -0.295  -0.278  -0.275  -0.273
 -0.272  -0.260  -0.255  -0.244  -0.238  -0.233  -0.233  -0.190
 -0.181  -0.164  -0.161  -0.161  -0.157  -0.145  -0.143  -0.141
 -0.136

          Ground-State Mulliken Net Atomic Charges

     Atom                 Charge (a.u.)
  ----------------------------------------
      1 O                    -0.214110
      2 C                     0.214684
      3 C                    -0.080674
      4 C                    -0.078783
      5 C                     0.211442
      6 O                    -0.170294
      7 C                    -0.050789
      8 C                    -0.050853
      9 O                    -0.170516
     10 C                     0.217907
     11 C                    -0.077351
     12 C                    -0.081553
     13 C                     0.216491
     14 O                    -0.218415
     15 O                    -0.179163
     16 O                    -0.178611
     17 O                    -0.207069
     18 C                    -0.128653
     19 C                     0.024476
     20 C                    -0.144234
     21 C                    -0.143165
     22 C                     0.023703
     23 O                    -0.191355
     24 H                     0.087484
     25 H                     0.083466
     26 H                     0.087921
     27 H                     0.079389
     28 H                     0.073339
     29 H                     0.078574
     30 H                     0.073131
     31 H                     0.090643
     32 O                    -0.206281
     33 C                    -0.128972
     34 C                     0.025191
     35 C                    -0.144246
     36 C                    -0.143421
     37 C                     0.025646
     38 O                    -0.187800
     39 H                     0.083557
     40 H                     0.086789
     41 H                     0.094659
     42 H                     0.089234
     43 H                     0.077982
     44 H                     0.073551
     45 H                     0.078050
     46 H                     0.073486
     47 H                     0.083170
     48 H                     0.084630
     49 H                     0.094228
     50 H                     0.085321
     51 H                     0.087154
     52 H                     0.090366
     53 H                     0.084903
     54 H                     0.101472
     55 H                     0.091214
     56 H                     0.103054
  ----------------------------------------
  Sum of atomic charges =    -0.000000

                    Cartesian Multipole Moments
 -----------------------------------------------------------------
    Charge (ESU x 10^10)
                 0.0000
    Dipole Moment (Debye)
         X       0.4656      Y      -1.5323      Z      -3.0772
       Tot       3.4690
    Quadrupole Moments (Debye-Ang)
        XX    -142.2638     XY     -10.8141     YY    -159.1846
        XZ       8.4629     YZ       2.1694     ZZ    -159.0001

 Total job time:  51.38s(wall), 2446.12s(cpu)
        *  Thank you very much for using Q-Chem.  Have a nice day.  *
