 Q-Chem 5.0, Q-Chem, Inc., Pleasanton, CA (2017)
 Q-Chem 5.0.1 for Intel X86 EM64T Linux

User input:
--------------------------------------------------------------
$molecule
0  1
O -3.94934 -3.66094 2.70899
C -3.26408 -4.56952 2.26188
C -3.36658 -6.02376 2.66595
C -2.29476 -6.56312 3.62727
C -1.34403 -5.5451 4.21705
O -0.2588 -6.17895 4.7518
C 0.70869 -5.27576 5.2972
C 1.46922 -4.57893 4.17374
O 1.32294 -3.15514 4.29343
C 1.50955 -2.45156 3.14919
C 1.37735 -0.96027 3.34728
C 1.69143 -0.11206 2.10625
C 1.73714 -0.85999 0.78897
O 1.13327 -0.54503 -0.22626
O -2.26241 -4.27217 1.39294
O 2.7886 -1.71572 0.64648
O 1.24285 -2.99747 2.08719
C 3.10061 -2.38553 -0.51882
C -0.06262 -0.49399 3.64704
C -0.01646 0.82798 4.40959
C 0.47794 1.76234 3.32263
C 0.45949 0.81397 2.11597
O -0.57964 -0.08845 2.40309
H 2.03004 -0.69346 4.20979
H 2.65575 0.43348 2.20408
H -0.66436 -1.24363 4.2061
H -1.07115 1.09098 4.65294
H 0.58332 0.83039 5.34506
H -0.26279 2.58389 3.20413
H 1.49462 2.18221 3.48347
H 0.35538 1.3956 1.17392
O -1.4829 -4.32759 4.1893
C -1.97508 -3.00048 0.9458
C -4.62304 -6.29166 3.53127
C -5.00602 -7.77017 3.46084
C -3.90297 -8.38747 4.29316
C -3.16803 -7.12617 4.75549
O -4.18119 -6.15773 4.86031
H -3.46974 -6.61451 1.72812
H -1.67309 -7.32872 3.1099
H -1.71454 -2.34973 1.80498
H -5.49749 -5.66812 3.24211
H -5.96807 -7.88667 4.00983
H -5.11804 -8.18369 2.43556
H -4.36561 -8.90768 5.16127
H -3.22832 -9.08279 3.7481
H -2.58787 -7.33112 5.68242
H -2.84821 -2.5775 0.40482
H -1.10918 -3.04327 0.25365
H 3.99712 -3.01568 -0.34686
H 3.3238 -1.6604 -1.33036
H 2.25507 -3.03994 -0.82082
H 2.55353 -4.81215 4.26102
H 1.14488 -5.00252 3.19653
H 1.44191 -5.90039 5.85132
H 0.27461 -4.57695 6.04857
$end

$opt
CONSTRAINT
tors           1           2           3           4    -102.604
tors           3           4           5           6    -164.198
tors           4           5           6           7    +178.296
tors           5           6           7           8     -73.868
tors           6           7           8           9    +122.249
tors           7           8           9          10    -156.883
tors           8           9          10          11    -178.529
tors           9          10          11          12    +175.286
tors          11          12          13          14    +128.814
ENDCONSTRAINT
$end

$rem
JOBTYPE                   OPT
METHOD                    B3LYP
DFT_D                     d3_op
BASIS                     STO-3G
GEOM_OPT_MAX_CYCLES       100
GEOM_OPT_TOL_GRADIENT     300
GEOM_OPT_TOL_DISPLACEMENT 1200
GEOM_OPT_TOL_ENERGY       100
SYMMETRY                  False
THRESH                    12
SCF_CONVERGENCE           8
MAX_SUB_FILE_NUM          128
MEM_STATIC                400
MEM_TOTAL                 4000
$end
--------------------------------------------------------------

   15   -1510.1440874734      8.61E-09 Convergence criterion met
 Total energy in the final basis set = -1510.14408747
   14   -1510.2154968047      3.56E-09 Convergence criterion met
 Total energy in the final basis set = -1510.21549680
   14   -1510.2537920491      2.36E-09 Convergence criterion met
 Total energy in the final basis set = -1510.25379205
   14   -1510.2642626755      7.28E-09 Convergence criterion met
 Total energy in the final basis set = -1510.26426268
   14   -1510.2764212495      4.02E-09 Convergence criterion met
 Total energy in the final basis set = -1510.27642125
   13   -1510.2806584866      4.24E-09 Convergence criterion met
 Total energy in the final basis set = -1510.28065849
   13   -1510.2836697394      3.35E-09 Convergence criterion met
 Total energy in the final basis set = -1510.28366974
   13   -1510.2856024376      2.76E-09 Convergence criterion met
   12   -1510.2896374403      4.64E-09 Convergence criterion met
 Total energy in the final basis set = -1510.28963744
   12   -1510.2897436688      1.64E-09 Convergence criterion met
 Total energy in the final basis set = -1510.28974367
   11   -1510.2898245647      6.82E-09 Convergence criterion met
 Total energy in the final basis set = -1510.28982456
   10   -1510.2898724395      9.71E-09 Convergence criterion met
 Total energy in the final basis set = -1510.28987244
   11   -1510.2898887256      5.51E-09 Convergence criterion met
 Total energy in the final basis set = -1510.28988873
    9   -1510.2898898218      8.83E-09 Convergence criterion met
 Total energy in the final basis set = -1510.28988982

             Standard Nuclear Orientation (Angstroms)
    I     Atom           X                Y                Z
 ----------------------------------------------------------------
    1      O       1.6856672666     2.3332360887    -0.4647465900
    2      C       2.0696929727     1.6046685080     0.4742015071
    3      C       3.4913770061     0.9488597230     0.6740075305
    4      C       3.5980797834    -0.5925613232     0.3265701183
    5      C       2.3255232183    -1.1557590066    -0.3785710855
    6      O       2.3534505372    -2.5938502886    -0.3182869070
    7      C       1.1181167675    -3.1122835978    -0.9555102213
    8      C      -0.1325770505    -2.8859764191    -0.0234975211
    9      O      -1.0689149285    -2.0785190878    -0.8412716135
   10      C      -1.9822141892    -1.3495925677    -0.0290922041
   11      C      -2.9419690925    -0.5674229527    -0.9875488978
   12      C      -4.0778462660     0.1866718198    -0.1955968376
   13      C      -4.2557056230    -0.2737465046     1.2984441149
   14      O      -4.2899417212     0.4545629321     2.3125474550
   15      O       1.2849202654     1.2393540857     1.6118262027
   16      O      -4.6183174038    -1.6643745055     1.2850997696
   17      O      -1.9465474822    -1.3000628459     1.2213133704
   18      C      -4.7783279978    -2.1528629602     2.6716255379
   19      C      -2.1337281187     0.6607831816    -1.5929976367
   20      C      -3.0184329883     1.3895732387    -2.6786253705
   21      C      -4.0221879868     2.1976356959    -1.7721671256
   22      C      -3.6037238766     1.6937571657    -0.3378053558
   23      O      -2.1269711976     1.6046130710    -0.4533761772
   24      H      -3.3308129388    -1.2461284983    -1.7667332457
   25      H      -5.0509882580     0.0352859437    -0.6979625914
   26      H      -1.0970311475     0.4141557082    -1.8979046993
   27      H      -2.3986691521     2.0586389464    -3.2962227564
   28      H      -3.5292353139     0.6702098069    -3.3387649200
   29      H      -3.8540903190     3.2830339053    -1.8595550758
   30      H      -5.0776447982     1.9825434190    -2.0030767627
   31      H      -3.8878411708     2.3413784604     0.5144903285
   32      O       1.4000626458    -0.5085560338    -0.9151340214
   33      C      -0.0361377120     1.9143581596     1.5998975743
   34      C       4.5682623035     1.5610217581    -0.3181039988
   35      C       5.9980869206     1.3086590449     0.2972912511
   36      C       6.1446587779    -0.2434311825     0.0801682370
   37      C       4.8123668598    -0.5733762005    -0.7038064262
   38      O       4.5417011091     0.6507324723    -1.4885713640
   39      H       3.7848727459     1.1115074351     1.7262754666
   40      H       3.8196661022    -1.2094165635     1.2155267549
   41      H      -0.6901711646     1.6271568102     0.7403577714
   42      H       4.3516206709     2.5990793833    -0.6362483711
   43      H       6.7638490981     1.8668502491    -0.2647244954
   44      H       6.0554093088     1.5994371226     1.3584600234
   45      H       7.0250992922    -0.4877498091    -0.5350929405
   46      H       6.2110793385    -0.8004287222     1.0285314203
   47      H       4.8623541003    -1.4614635385    -1.3638504626
   48      H       0.0856501827     3.0165143501     1.5935020197
   49      H      -0.5276091721     1.6114040127     2.5428263969
   50      H      -5.1366388150    -3.1958159167     2.5922070897
   51      H      -5.5146906913    -1.5474057159     3.2386353517
   52      H      -3.8115827880    -2.1338602638     3.2158211537
   53      H      -0.6096835596    -3.8499878468     0.2576431264
   54      H       0.1460946742    -2.3486422641     0.9083384045
   55      H       1.3023134749    -4.1917870481    -1.1222938011
   56      H       0.9212894784    -2.6089318318    -1.9262669133
 ----------------------------------------------------------------

    9   -1510.2898900554      3.23E-09 Convergence criterion met
 Total energy in the final basis set = -1510.28989006
 Final energy is   -1510.28989005541
 **  OPTIMIZATION CONVERGED  **

                    Orbital Energies (a.u.)
 --------------------------------------------------------------

 Alpha MOs
 -- Occupied --
-18.940 -18.937 -18.920 -18.908 -18.895 -18.884 -18.882 -18.882
-18.863 -18.854 -10.105 -10.101 -10.092 -10.081 -10.078 -10.077
-10.061 -10.059 -10.059 -10.055 -10.052 -10.039 -10.037 -10.034
-10.027 -10.025 -10.020 -10.019 -10.019 -10.016  -1.021  -1.014
 -0.999  -0.987  -0.974  -0.967  -0.944  -0.939  -0.926  -0.914
 -0.764  -0.759  -0.729  -0.721  -0.712  -0.703  -0.695  -0.655
 -0.639  -0.619  -0.594  -0.579  -0.546  -0.540  -0.537  -0.533
 -0.515  -0.506  -0.486  -0.464  -0.460  -0.454  -0.449  -0.446
 -0.439  -0.431  -0.427  -0.408  -0.404  -0.403  -0.399  -0.393
 -0.382  -0.377  -0.370  -0.362  -0.356  -0.354  -0.350  -0.343
 -0.341  -0.336  -0.334  -0.332  -0.327  -0.324  -0.320  -0.311
 -0.308  -0.304  -0.301  -0.299  -0.294  -0.280  -0.274  -0.270
 -0.269  -0.257  -0.254  -0.246  -0.243  -0.231  -0.223  -0.189
 -0.177  -0.165  -0.160  -0.158  -0.154  -0.146  -0.143  -0.141
 -0.133

          Ground-State Mulliken Net Atomic Charges

     Atom                 Charge (a.u.)
  ----------------------------------------
      1 O                    -0.213227
      2 C                     0.212039
      3 C                    -0.080957
      4 C                    -0.078193
      5 C                     0.210276
      6 O                    -0.172220
      7 C                    -0.050007
      8 C                    -0.049363
      9 O                    -0.169505
     10 C                     0.219124
     11 C                    -0.077161
     12 C                    -0.081592
     13 C                     0.216672
     14 O                    -0.217462
     15 O                    -0.180218
     16 O                    -0.177691
     17 O                    -0.209014
     18 C                    -0.128653
     19 C                     0.026038
     20 C                    -0.143925
     21 C                    -0.142266
     22 C                     0.025731
     23 O                    -0.188673
     24 H                     0.087846
     25 H                     0.084181
     26 H                     0.099560
     27 H                     0.082107
     28 H                     0.073948
     29 H                     0.079855
     30 H                     0.073742
     31 H                     0.092514
     32 O                    -0.206129
     33 C                    -0.145300
     34 C                     0.024487
     35 C                    -0.143466
     36 C                    -0.144182
     37 C                     0.025278
     38 O                    -0.189249
     39 H                     0.082626
     40 H                     0.086889
     41 H                     0.112064
     42 H                     0.089001
     43 H                     0.077361
     44 H                     0.073321
     45 H                     0.077462
     46 H                     0.073340
     47 H                     0.082252
     48 H                     0.076238
     49 H                     0.082190
     50 H                     0.085840
     51 H                     0.087738
     52 H                     0.090621
     53 H                     0.085210
     54 H                     0.100977
     55 H                     0.089948
     56 H                     0.101974
  ----------------------------------------
  Sum of atomic charges =    -0.000000

                    Cartesian Multipole Moments
 -----------------------------------------------------------------
    Charge (ESU x 10^10)
                 0.0000
    Dipole Moment (Debye)
         X      -0.2138      Y      -2.8286      Z      -0.3100
       Tot       2.8536
    Quadrupole Moments (Debye-Ang)
        XX    -143.0789     XY      -0.6805     YY    -153.2026
        XZ      11.8281     YZ       0.6395     ZZ    -161.4862

 Total job time:  60.53s(wall), 2884.52s(cpu)
        *  Thank you very much for using Q-Chem.  Have a nice day.  *
