 Q-Chem 5.0, Q-Chem, Inc., Pleasanton, CA (2017)
 Q-Chem 5.0.1 for Intel X86 EM64T Linux

User input:
--------------------------------------------------------------
$molecule
0  1
O 1.6856672666 2.3332360887 -0.46474659
C 2.0696929727 1.604668508 0.4742015071
C 3.4913770061 0.948859723 0.6740075305
C 3.5980797834 -0.5925613232 0.3265701183
C 2.3255232183 -1.1557590066 -0.3785710855
O 2.3534505372 -2.5938502886 -0.318286907
C 1.1181167675 -3.1122835978 -0.9555102213
C -0.1325770505 -2.8859764191 -0.0234975211
O -1.0689149285 -2.0785190878 -0.8412716135
C -1.9822141892 -1.3495925677 -0.0290922041
C -2.9419690925 -0.5674229527 -0.9875488978
C -4.077846266 0.1866718198 -0.1955968376
C -4.255705623 -0.2737465046 1.2984441149
O -4.2899417212 0.4545629321 2.312547455
O 1.2849202654 1.2393540857 1.6118262027
O -4.6183174038 -1.6643745055 1.2850997696
O -1.9465474822 -1.3000628459 1.2213133704
C -4.7783279978 -2.1528629602 2.6716255379
C -2.1337281187 0.6607831816 -1.5929976367
C -3.0184329883 1.3895732387 -2.6786253705
C -4.0221879868 2.1976356959 -1.7721671256
C -3.6037238766 1.6937571657 -0.3378053558
O -2.1269711976 1.604613071 -0.4533761772
H -3.3308129388 -1.2461284983 -1.7667332457
H -5.050988258 0.0352859437 -0.6979625914
H -1.0970311475 0.4141557082 -1.8979046993
H -2.3986691521 2.0586389464 -3.2962227564
H -3.5292353139 0.6702098069 -3.33876492
H -3.854090319 3.2830339053 -1.8595550758
H -5.0776447982 1.982543419 -2.0030767627
H -3.8878411708 2.3413784604 0.5144903285
O 1.4000626458 -0.5085560338 -0.9151340214
C -0.036137712 1.9143581596 1.5998975743
C 4.5682623035 1.5610217581 -0.3181039988
C 5.9980869206 1.3086590449 0.2972912511
C 6.1446587779 -0.2434311825 0.080168237
C 4.8123668598 -0.5733762005 -0.7038064262
O 4.5417011091 0.6507324723 -1.488571364
H 3.7848727459 1.1115074351 1.7262754666
H 3.8196661022 -1.2094165635 1.2155267549
H -0.6901711646 1.6271568102 0.7403577714
H 4.3516206709 2.5990793833 -0.6362483711
H 6.7638490981 1.8668502491 -0.2647244954
H 6.0554093088 1.5994371226 1.3584600234
H 7.0250992922 -0.4877498091 -0.5350929405
H 6.2110793385 -0.8004287222 1.0285314203
H 4.8623541003 -1.4614635385 -1.3638504626
H 0.0856501827 3.0165143501 1.5935020197
H -0.5276091721 1.6114040127 2.5428263969
H -5.136638815 -3.1958159167 2.5922070897
H -5.5146906913 -1.5474057159 3.2386353517
H -3.811582788 -2.1338602638 3.2158211537
H -0.6096835596 -3.8499878468 0.2576431264
H 0.1460946742 -2.3486422641 0.9083384045
H 1.3023134749 -4.1917870481 -1.1222938011
H 0.9212894784 -2.6089318318 -1.9262669133
$end

$rem
JOBTYPE                   OPT
METHOD                    B3LYP
DFT_D                     d3_op
BASIS                     STO-3G
GEOM_OPT_MAX_CYCLES       100
GEOM_OPT_TOL_GRADIENT     300
GEOM_OPT_TOL_DISPLACEMENT 1200
GEOM_OPT_TOL_ENERGY       100
SYMMETRY                  False
THRESH                    12
SCF_CONVERGENCE           8
MAX_SUB_FILE_NUM          128
MEM_STATIC                400
MEM_TOTAL                 4000
$end
--------------------------------------------------------------

   16   -1510.2898499199      5.92E-09 Convergence criterion met
 Total energy in the final basis set = -1510.28984992
   14   -1510.2906978563      3.94E-09 Convergence criterion met
 Total energy in the final basis set = -1510.29069786
   14   -1510.2486327544      3.42E-09 Convergence criterion met
 Total energy in the final basis set = -1510.24863275
   14   -1510.2935013922      3.95E-09 Convergence criterion met
 Total energy in the final basis set = -1510.29350139
   14   -1510.2849331649      3.51E-09 Convergence criterion met
 Total energy in the final basis set = -1510.28493316
   14   -1510.2958036340      3.27E-09 Convergence criterion met
 Total energy in the final basis set = -1510.29580363
   13   -1510.2967256908      6.65E-09 Convergence criterion met
 Total energy in the final basis set = -1510.29672569
   13   -1510.2978903401      3.21E-09 Convergence criterion met
   11   -1510.3009406826      9.70E-09 Convergence criterion met
 Total energy in the final basis set = -1510.30094068
   11   -1510.3009465089      4.86E-09 Convergence criterion met
 Total energy in the final basis set = -1510.30094651
   11   -1510.3009470467      3.28E-09 Convergence criterion met
 Total energy in the final basis set = -1510.30094705
    9   -1510.3009498436      4.44E-09 Convergence criterion met
 Total energy in the final basis set = -1510.30094984
    9   -1510.3009504621      2.57E-09 Convergence criterion met
 Total energy in the final basis set = -1510.30095046
    9   -1510.3009523235      5.04E-09 Convergence criterion met
 Total energy in the final basis set = -1510.30095232

             Standard Nuclear Orientation (Angstroms)
    I     Atom           X                Y                Z
 ----------------------------------------------------------------
    1      O       1.2211485120     2.2586769259     0.6388996056
    2      C       1.6280339672     1.2103130500     1.1846640489
    3      C       3.0851524002     0.6172438395     1.1149220543
    4      C       3.2179982670    -0.7851280606     0.3985695179
    5      C       1.9245594061    -1.2458319524    -0.3503123970
    6      O       2.0198641324    -2.6624311477    -0.5368786870
    7      C       0.9792358429    -3.1679727939    -1.4627823711
    8      C      -0.4831595983    -3.1907552181    -0.8708709487
    9      O      -1.2779639117    -2.1020503806    -1.4828670716
   10      C      -1.7507253113    -1.1942689166    -0.4812308499
   11      C      -2.4367011692     0.0014212181    -1.2119009310
   12      C      -3.6250415388     0.6638495741    -0.3995975018
   13      C      -3.8328115966     0.0431549212     1.0298944060
   14      O      -3.5875963289     0.5731765434     2.1337052336
   15      O       0.8720008399     0.3845279233     2.0656477897
   16      O      -4.4325991563    -1.2491350505     0.8651257303
   17      O      -1.6165097834    -1.3738975014     0.7497756277
   18      C      -4.5447770872    -1.9196538798     2.1795063226
   19      C      -1.4376621680     1.2378001487    -1.3604064072
   20      C      -2.0106635726     2.1927536708    -2.4756961760
   21      C      -3.2444956499     2.8279369149    -1.7289905052
   22      C      -3.1251531135     2.1608071018    -0.3036162579
   23      O      -1.6612368078     2.0145633516    -0.1206926431
   24      H      -2.7688470000    -0.3533809162    -2.2031902526
   25      H      -4.5732140141     0.5782569488    -0.9604328959
   26      H      -0.3705181957     0.9443456734    -1.4404325314
   27      H      -1.2643472479     2.9577760290    -2.7429490918
   28      H      -2.2994042165     1.6438790231    -3.3860649535
   29      H      -3.1514775285     3.9228594399    -1.6536096913
   30      H      -4.2036838511     2.5858695588    -2.2138468737
   31      H      -3.5605861316     2.7326899284     0.5383559999
   32      O       0.9941888020    -0.5354148580    -0.7887064945
   33      C      -0.4776110003     0.9596619637     2.3011063007
   34      C       4.0479446622     1.5107999582     0.2271588160
   35      C       5.5339671095     1.2021432411     0.6554148595
   36      C       5.7192715533    -0.2435391627     0.0597456263
   37      C       4.3388618064    -0.4510077233    -0.6832728673
   38      O       3.9572907608     0.9077524008    -1.1248334509
   39      H       3.4612379156     0.5407819649     2.1512677808
   40      H       3.5336445233    -1.5865340146     1.0894041865
   41      H      -0.9418999603     1.3495778722     1.3592310135
   42      H       3.7603809876     2.5795639340     0.1911048750
   43      H       6.2273301388     1.9202463719     0.1892093102
   44      H       5.6706266755     1.2353019745     1.7480051856
   45      H       6.5542562012    -0.2857610146    -0.6575948347
   46      H       5.8834103739    -1.0063565866     0.8376601682
   47      H       4.3665562562    -1.1505845924    -1.5415707770
   48      H      -0.4158682301     1.7791582389     3.0459598946
   49      H      -1.0926244775     0.1391046173     2.7113492876
   50      H      -5.0500547545    -2.8846517207     1.9904278640
   51      H      -5.1418419781    -1.3208694511     2.8972737083
   52      H      -3.5427186593    -2.1036566196     2.6186608345
   53      H      -0.9717717083    -4.1543926549    -1.1259663722
   54      H      -0.4779078219    -3.0597456052     0.2343253919
   55      H       1.3010829320    -4.2019974239    -1.6994106867
   56      H       0.9629289700    -2.5702655578    -2.4008949996
 ----------------------------------------------------------------

    9   -1510.3009528330      2.14E-09 Convergence criterion met
 Total energy in the final basis set = -1510.30095283
 Final energy is   -1510.30095283302
 **  OPTIMIZATION CONVERGED  **

                    Orbital Energies (a.u.)
 --------------------------------------------------------------

 Alpha MOs
 -- Occupied --
-18.938 -18.933 -18.924 -18.903 -18.898 -18.883 -18.883 -18.878
-18.868 -18.848 -10.106 -10.102 -10.093 -10.078 -10.076 -10.071
-10.059 -10.058 -10.057 -10.053 -10.050 -10.036 -10.035 -10.034
-10.024 -10.018 -10.018 -10.016 -10.015 -10.009  -1.020  -1.011
 -1.002  -0.983  -0.973  -0.966  -0.943  -0.937  -0.929  -0.909
 -0.763  -0.758  -0.726  -0.719  -0.711  -0.701  -0.694  -0.657
 -0.631  -0.618  -0.592  -0.576  -0.544  -0.539  -0.535  -0.531
 -0.511  -0.504  -0.481  -0.464  -0.459  -0.449  -0.448  -0.444
 -0.436  -0.429  -0.425  -0.412  -0.406  -0.400  -0.397  -0.390
 -0.378  -0.375  -0.374  -0.361  -0.354  -0.353  -0.349  -0.345
 -0.341  -0.334  -0.329  -0.328  -0.325  -0.321  -0.317  -0.307
 -0.305  -0.302  -0.297  -0.295  -0.295  -0.279  -0.271  -0.269
 -0.265  -0.257  -0.249  -0.246  -0.239  -0.230  -0.216  -0.189
 -0.172  -0.168  -0.160  -0.157  -0.154  -0.146  -0.141  -0.139
 -0.128

          Ground-State Mulliken Net Atomic Charges

     Atom                 Charge (a.u.)
  ----------------------------------------
      1 O                    -0.216248
      2 C                     0.209868
      3 C                    -0.081246
      4 C                    -0.077166
      5 C                     0.219014
      6 O                    -0.172552
      7 C                    -0.050438
      8 C                    -0.056788
      9 O                    -0.171700
     10 C                     0.221856
     11 C                    -0.079208
     12 C                    -0.080668
     13 C                     0.214441
     14 O                    -0.212292
     15 O                    -0.180951
     16 O                    -0.175406
     17 O                    -0.213871
     18 C                    -0.128832
     19 C                     0.023630
     20 C                    -0.142510
     21 C                    -0.143615
     22 C                     0.026883
     23 O                    -0.178294
     24 H                     0.087456
     25 H                     0.084852
     26 H                     0.111223
     27 H                     0.082555
     28 H                     0.073729
     29 H                     0.079743
     30 H                     0.072847
     31 H                     0.090409
     32 O                    -0.213475
     33 C                    -0.151264
     34 C                     0.023848
     35 C                    -0.143455
     36 C                    -0.144076
     37 C                     0.024825
     38 O                    -0.190771
     39 H                     0.082311
     40 H                     0.087583
     41 H                     0.118560
     42 H                     0.090759
     43 H                     0.077142
     44 H                     0.073454
     45 H                     0.077085
     46 H                     0.073483
     47 H                     0.080320
     48 H                     0.068797
     49 H                     0.085813
     50 H                     0.087055
     51 H                     0.087885
     52 H                     0.092425
     53 H                     0.085229
     54 H                     0.105597
     55 H                     0.090227
     56 H                     0.093920
  ----------------------------------------
  Sum of atomic charges =     0.000000

                    Cartesian Multipole Moments
 -----------------------------------------------------------------
    Charge (ESU x 10^10)
                -0.0000
    Dipole Moment (Debye)
         X      -0.1277      Y      -2.7770      Z      -1.3482
       Tot       3.0896
    Quadrupole Moments (Debye-Ang)
        XX    -142.5547     XY      -3.0565     YY    -154.0750
        XZ       6.6078     YZ      -0.0264     ZZ    -158.6150

 Total job time:  97.75s(wall), 4664.83s(cpu)
        *  Thank you very much for using Q-Chem.  Have a nice day.  *
