 Q-Chem 5.0, Q-Chem, Inc., Pleasanton, CA (2017)
 Q-Chem 5.0.1 for Intel X86 EM64T Linux

User input:
--------------------------------------------------------------
$molecule
0  1
O -1.5082318513 1.1186490265 2.1382814041
C -1.8666834655 1.298982938 0.9551045212
C -3.3144549519 1.1016693119 0.3575050845
C -3.5116827084 -0.1889847883 -0.5391695888
C -2.2440836716 -1.0971515517 -0.6060790408
O -2.3403747657 -1.935607335 -1.7708945947
C -1.1214953741 -2.77437554 -1.8678092927
C 0.1220068015 -1.9271786726 -2.3366351561
O 1.1555184807 -2.0692743138 -1.282260579
C 1.8888923224 -0.856702245 -1.1283270159
C 3.0344423603 -1.1033690104 -0.090389393
C 3.9100758849 0.1902588192 0.1339218702
C 3.7169210689 1.3075287854 -0.9581562903
O 3.4688969642 2.5164946215 -0.7622260339
O -1.0366835285 1.8013270645 -0.0926403186
O 4.1499734236 0.763712021 -2.2168367547
O 1.6004654588 0.2230021672 -1.6940819145
C 3.9718503335 1.7722439381 -3.2834551225
C 2.3717440438 -1.260463127 1.3464140942
C 3.4823971094 -1.6637923723 2.394152524
C 4.2110090789 -0.2861262786 2.6249276231
C 3.4569054201 0.6294514943 1.5873841966
O 2.0584232976 0.1453318555 1.697274572
H 3.6255682825 -1.9877599428 -0.3860759766
H 4.9828270557 -0.0773662253 0.1282342852
H 1.4506876151 -1.8757586246 1.3551263654
H 3.0206373734 -2.0393829877 3.3208538868
H 4.1569821495 -2.438203541 1.9952302262
H 4.0491829515 0.0844082359 3.6497155278
H 5.2944126042 -0.337132106 2.4322005085
H 3.5028554961 1.7212526559 1.7667660276
O -1.2786768821 -1.1244134881 0.1882293249
C 0.3187929648 2.1184151021 0.4207443287
C -4.3766811522 0.8370331906 1.5039943367
C -5.8171255435 1.127758926 0.928816139
C -6.0288383994 -0.1245326847 -0.0010911998
C -4.6871341319 -0.921765339 0.249754733
O -4.363841196 -0.6371831821 1.6634953185
H -3.5640315323 2.0067217941 -0.2250025757
H -3.8154115227 0.062123196 -1.5708393776
H 0.8307968072 1.2377195463 0.8826835525
H -4.1318466172 1.3267365305 2.4662360381
H -6.5597014839 1.1538616276 1.742356689
H -5.862227841 2.0804554245 0.3776238994
H -6.897511884 -0.7237884548 0.3148480816
H -6.1550474778 0.1482017292 -1.0611280716
H -4.7472209627 -2.0132764255 0.0715071536
H 0.2726128501 2.9365775008 1.1678957166
H 0.9025086204 2.4590692418 -0.4543555744
H 2.8962742815 1.9789849618 -3.4610168793
H 4.4194544103 1.3390782144 -4.1969374466
H 4.479441512 2.7267045177 -3.0352075911
H 0.5279096429 -2.3129809234 -3.2966008668
H -0.1391904956 -0.8544892723 -2.466604416
H -1.3661568595 -3.5619754017 -2.6072901327
H -0.8756618666 -3.2436446182 -0.8906973236
$end

$rem
JOBTYPE                   OPT
METHOD                    B3LYP
DFT_D                     d3_op
BASIS                     STO-3G
GEOM_OPT_MAX_CYCLES       100
GEOM_OPT_TOL_GRADIENT     300
GEOM_OPT_TOL_DISPLACEMENT 1200
GEOM_OPT_TOL_ENERGY       100
SYMMETRY                  False
THRESH                    12
SCF_CONVERGENCE           8
MAX_SUB_FILE_NUM          128
MEM_STATIC                400
MEM_TOTAL                 4000
$end
--------------------------------------------------------------

   15   -1510.2938982127      8.99E-09 Convergence criterion met
 Total energy in the final basis set = -1510.29389821
   14   -1510.2897244993      2.47E-09 Convergence criterion met
 Total energy in the final basis set = -1510.28972450
   14   -1510.2916380381      2.62E-09 Convergence criterion met
 Total energy in the final basis set = -1510.29163804
   14   -1510.2306615537      5.14E-09 Convergence criterion met
 Total energy in the final basis set = -1510.23066155
   14   -1510.2948543909      3.70E-09 Convergence criterion met
 Total energy in the final basis set = -1510.29485439
   14   -1510.2922849466      2.42E-09 Convergence criterion met
 Total energy in the final basis set = -1510.29228495
   13   -1510.2957016998      9.14E-09 Convergence criterion met
 Total energy in the final basis set = -1510.29570170
   13   -1510.2960086248      5.08E-09 Convergence criterion met
   12   -1510.3009795875      3.25E-09 Convergence criterion met
 Total energy in the final basis set = -1510.30097959
   11   -1510.3009904803      6.37E-09 Convergence criterion met
 Total energy in the final basis set = -1510.30099048
   11   -1510.3009937945      8.67E-09 Convergence criterion met
 Total energy in the final basis set = -1510.30099379
   10   -1510.3010013427      6.89E-09 Convergence criterion met
 Total energy in the final basis set = -1510.30100134
    9   -1510.3010025097      7.52E-09 Convergence criterion met
 Total energy in the final basis set = -1510.30100251
    9   -1510.3010010300      2.84E-09 Convergence criterion met
 Total energy in the final basis set = -1510.30100103

             Standard Nuclear Orientation (Angstroms)
    I     Atom           X                Y                Z
 ----------------------------------------------------------------
    1      O      -1.1056408448    -2.2628184124     0.4676301739
    2      C      -1.5833444196    -1.2708258666     1.0596746547
    3      C      -3.0625586030    -0.7382421146     0.9576162154
    4      C      -3.2343714024     0.6871747324     0.2949311708
    5      C      -1.9315329749     1.2440192786    -0.3666728780
    6      O      -2.0661855363     2.6657198422    -0.4676723692
    7      C      -0.9983138941     3.2576422200    -1.3086337214
    8      C       0.4347379822     3.2755554839    -0.6484517114
    9      O       1.2857521031     2.2515741936    -1.2967377597
   10      C       1.7646765881     1.3080312042    -0.3317297564
   11      C       2.4927840700     0.1626293438    -1.1027445209
   12      C       3.6767834539    -0.5147119085    -0.2964621973
   13      C       3.8320717058     0.0343753841     1.1688843022
   14      O       3.5685624455    -0.5602764770     2.2350652992
   15      O      -0.9067638781    -0.4748454529     2.0280002161
   16      O       4.4048453405     1.3466895542     1.0925288207
   17      O       1.5954964845     1.4199177792     0.9031542001
   18      C       4.4658012527     1.9422824262     2.4457627203
   19      C       1.5222696704    -1.0849476778    -1.3298191913
   20      C       2.1353803896    -1.9741436045    -2.4778051054
   21      C       3.3663655198    -2.6226990216    -1.7376338249
   22      C       3.2082600892    -2.0247967146    -0.2852090440
   23      O       1.7385432269    -1.9172218440    -0.1251960595
   24      H       2.8372698951     0.5688459506    -2.0697116689
   25      H       4.6367077315    -0.3795375501    -0.8265675080
   26      H       0.4508904789    -0.8087501708    -1.4171471814
   27      H       1.4087910572    -2.7384730902    -2.7968368944
   28      H       2.4314596714    -1.3769759022    -3.3549644337
   29      H       3.2893792023    -3.7211970552    -1.7130960951
   30      H       4.3302155884    -2.3453821197    -2.1937359041
   31      H       3.6390391524    -2.6281431955     0.5369839475
   32      O      -0.9590979326     0.5953194262    -0.8096623286
   33      C       0.4506943301    -1.0150950958     2.2993207450
   34      C      -3.9464279466    -1.6366178914    -0.0046219860
   35      C      -5.4616824662    -1.4104576309     0.3699658418
   36      C      -5.6893636362     0.0451443951    -0.1844268183
   37      C      -4.2878373489     0.3452489146    -0.8516609907
   38      O      -3.8246568295    -0.9759091548    -1.3268086337
   39      H      -3.4806063335    -0.7247761517     1.9806231809
   40      H      -3.6247226185     1.4391180653     1.0029397084
   41      H       0.9628244462    -1.3560264879     1.3631913558
   42      H      -3.6098543657    -2.6896124726    -0.0689199131
   43      H      -6.1014184894    -2.1426337052    -0.1481247598
   44      H      -5.6400207700    -1.4876342364     1.4542519956
   45      H      -6.4897451420     0.0727747708    -0.9410057672
   46      H      -5.9304255227     0.7694604879     0.6102013047
   47      H      -4.3106458067     1.0761496766    -1.6836669518
   48      H       0.3839516200    -1.8621427721     3.0121609660
   49      H       1.0222517553    -0.1915514115     2.7627888359
   50      H       3.4484943623     2.0739643503     2.8684620276
   51      H       4.9489517455     2.9293755168     2.3260544011
   52      H       5.0609346466     1.3180689107     3.1431981112
   53      H       0.9067730796     4.2671343539    -0.8113345078
   54      H       0.3846510393     3.0662776598     0.4435213936
   55      H      -1.3378441024     4.2966738759    -1.4920787857
   56      H      -0.9237496497     2.7230364359    -2.2813971173
 ----------------------------------------------------------------

    8   -1510.3010023021      9.58E-09 Convergence criterion met
 Total energy in the final basis set = -1510.30100230
 Final energy is   -1510.30100230206
 **  OPTIMIZATION CONVERGED  **

                    Orbital Energies (a.u.)
 --------------------------------------------------------------

 Alpha MOs
 -- Occupied --
-18.939 -18.933 -18.924 -18.903 -18.898 -18.883 -18.883 -18.877
-18.867 -18.848 -10.106 -10.102 -10.093 -10.078 -10.076 -10.071
-10.059 -10.058 -10.057 -10.052 -10.051 -10.036 -10.036 -10.034
-10.025 -10.018 -10.018 -10.015 -10.015 -10.009  -1.020  -1.011
 -1.001  -0.984  -0.972  -0.966  -0.944  -0.937  -0.928  -0.910
 -0.762  -0.758  -0.726  -0.719  -0.711  -0.701  -0.694  -0.656
 -0.632  -0.618  -0.592  -0.577  -0.544  -0.539  -0.534  -0.531
 -0.511  -0.504  -0.481  -0.464  -0.459  -0.449  -0.448  -0.445
 -0.436  -0.428  -0.425  -0.412  -0.406  -0.400  -0.397  -0.390
 -0.378  -0.375  -0.374  -0.361  -0.354  -0.352  -0.349  -0.345
 -0.341  -0.334  -0.330  -0.328  -0.325  -0.320  -0.318  -0.307
 -0.305  -0.302  -0.297  -0.295  -0.294  -0.279  -0.271  -0.268
 -0.265  -0.257  -0.249  -0.246  -0.239  -0.231  -0.216  -0.190
 -0.172  -0.168  -0.160  -0.157  -0.153  -0.145  -0.141  -0.139
 -0.129

          Ground-State Mulliken Net Atomic Charges

     Atom                 Charge (a.u.)
  ----------------------------------------
      1 O                    -0.215853
      2 C                     0.209494
      3 C                    -0.081081
      4 C                    -0.077438
      5 C                     0.218695
      6 O                    -0.171970
      7 C                    -0.050384
      8 C                    -0.056737
      9 O                    -0.171337
     10 C                     0.221436
     11 C                    -0.079203
     12 C                    -0.080758
     13 C                     0.214302
     14 O                    -0.212585
     15 O                    -0.181018
     16 O                    -0.175300
     17 O                    -0.214150
     18 C                    -0.128725
     19 C                     0.022893
     20 C                    -0.142459
     21 C                    -0.143675
     22 C                     0.027010
     23 O                    -0.178303
     24 H                     0.087318
     25 H                     0.084830
     26 H                     0.112376
     27 H                     0.082583
     28 H                     0.073456
     29 H                     0.079666
     30 H                     0.072707
     31 H                     0.090231
     32 O                    -0.213840
     33 C                    -0.151966
     34 C                     0.023926
     35 C                    -0.143557
     36 C                    -0.144008
     37 C                     0.025061
     38 O                    -0.190447
     39 H                     0.082322
     40 H                     0.087542
     41 H                     0.119571
     42 H                     0.090723
     43 H                     0.077167
     44 H                     0.073469
     45 H                     0.077168
     46 H                     0.073506
     47 H                     0.080273
     48 H                     0.068693
     49 H                     0.085608
     50 H                     0.092494
     51 H                     0.087003
     52 H                     0.087793
     53 H                     0.085123
     54 H                     0.105747
     55 H                     0.090398
     56 H                     0.094210
  ----------------------------------------
  Sum of atomic charges =    -0.000000

                    Cartesian Multipole Moments
 -----------------------------------------------------------------
    Charge (ESU x 10^10)
                -0.0000
    Dipole Moment (Debye)
         X      -0.0194      Y       2.7982      Z      -1.1870
       Tot       3.0396
    Quadrupole Moments (Debye-Ang)
        XX    -141.9468     XY      -2.1189     YY    -153.9552
        XZ      -5.9903     YZ      -0.1041     ZZ    -159.2836

 Total job time:  97.29s(wall), 4641.42s(cpu)
        *  Thank you very much for using Q-Chem.  Have a nice day.  *
