 Q-Chem 5.0, Q-Chem, Inc., Pleasanton, CA (2017)
 Q-Chem 5.0.1 for Intel X86 EM64T Linux

User input:
--------------------------------------------------------------
$molecule
0  1
O -3.94934 -3.66094 2.70899
C -3.26408 -4.56952 2.26188
C -3.36658 -6.02376 2.66595
C -2.25454 -6.58216 3.56895
C -1.26012 -5.58014 4.11224
O -0.11619 -6.22164 4.49347
C 0.8917 -5.3315 4.98445
C 1.51986 -4.55987 3.82854
O 1.36847 -3.14781 4.04315
C 1.16144 -2.40714 2.92615
C 1.11906 -0.92326 3.20362
C 0.89837 -0.03958 1.96723
C 0.40417 -0.75297 0.72483
O -0.56172 -0.4202 0.05336
O -2.30007 -4.28315 1.35275
O 1.37837 -1.44516 0.06283
O 1.01361 -2.95449 1.84849
C 1.27026 -2.03529 -1.18433
C -0.06334 -0.49058 4.09067
C 0.28471 0.81886 4.79421
C 0.2593 1.78196 3.6244
C -0.23993 0.85053 2.51179
O -1.05501 -0.08009 3.18253
H 2.07894 -0.6719 3.70972
H 1.80215 0.54373 1.68316
H -0.36798 -1.26037 4.83295
H -0.5683 1.05652 5.46987
H 1.22658 0.81451 5.3839
H -0.48551 2.5788 3.844
H 1.23916 2.23559 3.36029
H -0.7352 1.44664 1.71426
O -1.56984 -4.46085 4.50675
C -2.08587 -3.02957 0.82914
C -4.5924 -6.27025 3.5759
C -4.98805 -7.747 3.54361
C -3.87246 -8.35331 4.36492
C -3.09884 -7.09074 4.75282
O -4.09619 -6.10927 4.87975
H -3.50866 -6.60693 1.72875
H -1.69163 -7.41572 3.09044
H -1.82862 -2.31887 1.64237
H -5.47189 -5.64492 3.30644
H -5.94088 -7.85448 4.10993
H -5.11519 -8.17149 2.52453
H -4.31668 -8.81671 5.27414
H -3.23778 -9.09517 3.8337
H -2.48579 -7.28204 5.66177
H -2.99388 -2.67651 0.29532
H -1.24817 -3.0841 0.10647
H 1.4764 -3.12132 -1.08984
H 2.02301 -1.58729 -1.8649
H 0.26335 -1.90971 -1.63559
H 2.61575 -4.74264 3.88637
H 1.21928 -4.98009 2.84266
H 1.6821 -5.98987 5.40665
H 0.55509 -4.69247 5.83226
$end

$opt
CONSTRAINT
tors           1           2           3           4    -105.678
tors           3           4           5           6    -159.555
tors           4           5           6           7    +178.296
tors           5           6           7           8     -73.868
tors           6           7           8           9    +122.249
tors           7           8           9          10    -144.517
tors           8           9          10          11    -175.468
tors           9          10          11          12    +179.510
tors          11          12          13          14    +128.814
ENDCONSTRAINT
$end

$rem
JOBTYPE                   OPT
METHOD                    B3LYP
DFT_D                     d3_op
BASIS                     STO-3G
GEOM_OPT_MAX_CYCLES       100
GEOM_OPT_TOL_GRADIENT     300
GEOM_OPT_TOL_DISPLACEMENT 1200
GEOM_OPT_TOL_ENERGY       100
SYMMETRY                  False
THRESH                    12
SCF_CONVERGENCE           8
MAX_SUB_FILE_NUM          128
MEM_STATIC                400
MEM_TOTAL                 4000
$end
--------------------------------------------------------------

   15   -1510.1392193882      9.39E-09 Convergence criterion met
 Total energy in the final basis set = -1510.13921939
   14   -1510.2107190983      7.42E-09 Convergence criterion met
 Total energy in the final basis set = -1510.21071910
   14   -1510.2428177795      6.42E-09 Convergence criterion met
 Total energy in the final basis set = -1510.24281778
   15   -1510.2659326201      2.47E-09 Convergence criterion met
 Total energy in the final basis set = -1510.26593262
   14   -1510.2752643245      6.56E-09 Convergence criterion met
 Total energy in the final basis set = -1510.27526432
   13   -1510.2815049532      8.95E-09 Convergence criterion met
 Total energy in the final basis set = -1510.28150495
   13   -1510.2857697082      3.27E-09 Convergence criterion met
 Total energy in the final basis set = -1510.28576971
   13   -1510.2877924359      4.00E-09 Convergence criterion met
   12   -1510.2938733295      2.38E-09 Convergence criterion met
 Total energy in the final basis set = -1510.29387333
   11   -1510.2939675214      3.68E-09 Convergence criterion met
 Total energy in the final basis set = -1510.29396752
   10   -1510.2940003750      7.22E-09 Convergence criterion met
 Total energy in the final basis set = -1510.29400038
    9   -1510.2940187067      5.13E-09 Convergence criterion met
 Total energy in the final basis set = -1510.29401871
   10   -1510.2940330076      3.87E-09 Convergence criterion met
 Total energy in the final basis set = -1510.29403301
    9   -1510.2940343928      2.10E-09 Convergence criterion met
 Total energy in the final basis set = -1510.29403439

             Standard Nuclear Orientation (Angstroms)
    I     Atom           X                Y                Z
 ----------------------------------------------------------------
    1      O      -1.5082318513     1.1186490265     2.1382814041
    2      C      -1.8666834655     1.2989829380     0.9551045212
    3      C      -3.3144549519     1.1016693119     0.3575050845
    4      C      -3.5116827084    -0.1889847883    -0.5391695888
    5      C      -2.2440836716    -1.0971515517    -0.6060790408
    6      O      -2.3403747657    -1.9356073350    -1.7708945947
    7      C      -1.1214953741    -2.7743755400    -1.8678092927
    8      C       0.1220068015    -1.9271786726    -2.3366351561
    9      O       1.1555184807    -2.0692743138    -1.2822605790
   10      C       1.8888923224    -0.8567022450    -1.1283270159
   11      C       3.0344423603    -1.1033690104    -0.0903893930
   12      C       3.9100758849     0.1902588192     0.1339218702
   13      C       3.7169210689     1.3075287854    -0.9581562903
   14      O       3.4688969642     2.5164946215    -0.7622260339
   15      O      -1.0366835285     1.8013270645    -0.0926403186
   16      O       4.1499734236     0.7637120210    -2.2168367547
   17      O       1.6004654588     0.2230021672    -1.6940819145
   18      C       3.9718503335     1.7722439381    -3.2834551225
   19      C       2.3717440438    -1.2604631270     1.3464140942
   20      C       3.4823971094    -1.6637923723     2.3941525240
   21      C       4.2110090789    -0.2861262786     2.6249276231
   22      C       3.4569054201     0.6294514943     1.5873841966
   23      O       2.0584232976     0.1453318555     1.6972745720
   24      H       3.6255682825    -1.9877599428    -0.3860759766
   25      H       4.9828270557    -0.0773662253     0.1282342852
   26      H       1.4506876151    -1.8757586246     1.3551263654
   27      H       3.0206373734    -2.0393829877     3.3208538868
   28      H       4.1569821495    -2.4382035410     1.9952302262
   29      H       4.0491829515     0.0844082359     3.6497155278
   30      H       5.2944126042    -0.3371321060     2.4322005085
   31      H       3.5028554961     1.7212526559     1.7667660276
   32      O      -1.2786768821    -1.1244134881     0.1882293249
   33      C       0.3187929648     2.1184151021     0.4207443287
   34      C      -4.3766811522     0.8370331906     1.5039943367
   35      C      -5.8171255435     1.1277589260     0.9288161390
   36      C      -6.0288383994    -0.1245326847    -0.0010911998
   37      C      -4.6871341319    -0.9217653390     0.2497547330
   38      O      -4.3638411960    -0.6371831821     1.6634953185
   39      H      -3.5640315323     2.0067217941    -0.2250025757
   40      H      -3.8154115227     0.0621231960    -1.5708393776
   41      H       0.8307968072     1.2377195463     0.8826835525
   42      H      -4.1318466172     1.3267365305     2.4662360381
   43      H      -6.5597014839     1.1538616276     1.7423566890
   44      H      -5.8622278410     2.0804554245     0.3776238994
   45      H      -6.8975118840    -0.7237884548     0.3148480816
   46      H      -6.1550474778     0.1482017292    -1.0611280716
   47      H      -4.7472209627    -2.0132764255     0.0715071536
   48      H       0.2726128501     2.9365775008     1.1678957166
   49      H       0.9025086204     2.4590692418    -0.4543555744
   50      H       2.8962742815     1.9789849618    -3.4610168793
   51      H       4.4194544103     1.3390782144    -4.1969374466
   52      H       4.4794415120     2.7267045177    -3.0352075911
   53      H       0.5279096429    -2.3129809234    -3.2966008668
   54      H      -0.1391904956    -0.8544892723    -2.4666044160
   55      H      -1.3661568595    -3.5619754017    -2.6072901327
   56      H      -0.8756618666    -3.2436446182    -0.8906973236
 ----------------------------------------------------------------

    9   -1510.2940346123      2.37E-09 Convergence criterion met
 Total energy in the final basis set = -1510.29403461
 Final energy is   -1510.29403461231
 **  OPTIMIZATION CONVERGED  **

                    Orbital Energies (a.u.)
 --------------------------------------------------------------

 Alpha MOs
 -- Occupied --
-18.942 -18.936 -18.920 -18.903 -18.900 -18.887 -18.882 -18.880
-18.864 -18.847 -10.108 -10.100 -10.094 -10.078 -10.076 -10.075
-10.064 -10.061 -10.057 -10.056 -10.050 -10.042 -10.036 -10.034
-10.024 -10.023 -10.021 -10.017 -10.015 -10.014  -1.022  -1.013
 -1.000  -0.982  -0.977  -0.964  -0.945  -0.938  -0.926  -0.909
 -0.767  -0.756  -0.729  -0.720  -0.712  -0.703  -0.694  -0.656
 -0.633  -0.619  -0.594  -0.577  -0.548  -0.540  -0.538  -0.530
 -0.515  -0.505  -0.484  -0.465  -0.460  -0.453  -0.449  -0.445
 -0.437  -0.433  -0.426  -0.410  -0.404  -0.402  -0.400  -0.391
 -0.379  -0.377  -0.370  -0.363  -0.356  -0.352  -0.349  -0.344
 -0.338  -0.336  -0.332  -0.330  -0.326  -0.323  -0.317  -0.314
 -0.306  -0.306  -0.303  -0.296  -0.292  -0.281  -0.275  -0.270
 -0.265  -0.257  -0.253  -0.246  -0.242  -0.229  -0.221  -0.190
 -0.176  -0.166  -0.162  -0.158  -0.154  -0.145  -0.141  -0.139
 -0.127

          Ground-State Mulliken Net Atomic Charges

     Atom                 Charge (a.u.)
  ----------------------------------------
      1 O                    -0.214589
      2 C                     0.211705
      3 C                    -0.080842
      4 C                    -0.078736
      5 C                     0.210589
      6 O                    -0.172664
      7 C                    -0.050296
      8 C                    -0.052924
      9 O                    -0.169910
     10 C                     0.221245
     11 C                    -0.077226
     12 C                    -0.081630
     13 C                     0.217368
     14 O                    -0.219337
     15 O                    -0.180721
     16 O                    -0.177581
     17 O                    -0.206093
     18 C                    -0.128789
     19 C                     0.027400
     20 C                    -0.143813
     21 C                    -0.142121
     22 C                     0.025208
     23 O                    -0.182556
     24 H                     0.088833
     25 H                     0.084711
     26 H                     0.096931
     27 H                     0.081691
     28 H                     0.074162
     29 H                     0.080893
     30 H                     0.074188
     31 H                     0.093716
     32 O                    -0.205909
     33 C                    -0.149149
     34 C                     0.024877
     35 C                    -0.144103
     36 C                    -0.143778
     37 C                     0.025498
     38 O                    -0.188551
     39 H                     0.081974
     40 H                     0.085856
     41 H                     0.110834
     42 H                     0.089308
     43 H                     0.077033
     44 H                     0.073067
     45 H                     0.077009
     46 H                     0.072920
     47 H                     0.081374
     48 H                     0.072569
     49 H                     0.086409
     50 H                     0.090258
     51 H                     0.085900
     52 H                     0.088275
     53 H                     0.084366
     54 H                     0.105532
     55 H                     0.089973
     56 H                     0.099649
  ----------------------------------------
  Sum of atomic charges =    -0.000000

                    Cartesian Multipole Moments
 -----------------------------------------------------------------
    Charge (ESU x 10^10)
                -0.0000
    Dipole Moment (Debye)
         X       0.9453      Y      -2.1100      Z      -2.6723
       Tot       3.5337
    Quadrupole Moments (Debye-Ang)
        XX    -140.4834     XY      -6.6822     YY    -156.6248
        XZ       6.9965     YZ       2.3474     ZZ    -158.4612

 Total job time:  101.50s(wall), 4841.96s(cpu)
        *  Thank you very much for using Q-Chem.  Have a nice day.  *
