 Q-Chem 5.0, Q-Chem, Inc., Pleasanton, CA (2017)
 Q-Chem 5.0.1 for Intel X86 EM64T Linux

User input:
--------------------------------------------------------------
$molecule
0  1
O -3.94934 -3.66094 2.70899
C -3.26408 -4.56952 2.26188
C -3.36658 -6.02376 2.66595
C -2.22869 -6.59552 3.52744
C -1.20564 -5.60481 4.03728
O -0.16346 -6.27077 4.61676
C 0.86805 -5.39879 5.09099
C 1.63069 -4.79826 3.91461
O 1.63823 -3.36562 4.01634
C 1.38513 -2.69784 2.86345
C 1.43427 -1.19762 3.02953
C 1.16561 -0.39532 1.74795
C 0.54773 -1.16955 0.601
O -0.44798 -0.83544 -0.02468
O -2.38514 -4.29914 1.269
O 1.45157 -1.93824 -0.07525
O 1.1175 -3.30812 1.84302
C 1.24788 -2.52518 -1.30791
C 0.34246 -0.64119 3.9621
C 0.8016 0.69621 4.53754
C 0.73337 1.57186 3.30271
C 0.11188 0.58861 2.30194
O -0.69352 -0.24808 3.09685
H 2.44022 -0.96149 3.44544
H 2.07128 0.1208 1.35892
H 0.0585 -1.33823 4.78057
H 0.01327 1.02588 5.25202
H 1.78371 0.68594 5.05738
H 0.04313 2.41885 3.51275
H 1.71043 1.95554 2.93693
H -0.41307 1.15012 1.49829
O -1.25801 -4.38586 3.92184
C -2.28726 -3.06798 0.66811
C -4.55063 -6.27353 3.63305
C -4.97148 -7.74247 3.58203
C -3.81532 -8.39306 4.31023
C -3.01575 -7.15337 4.72097
O -3.9942 -6.16431 4.92069
H -3.55998 -6.60533 1.73656
H -1.66705 -7.36803 2.95524
H -1.99641 -2.30388 1.4196
H -5.43312 -5.62917 3.42602
H -5.88505 -7.8439 4.21104
H -5.18107 -8.14224 2.56665
H -4.21367 -8.91447 5.20897
H -3.20494 -9.09535 3.70201
H -2.36632 -7.38262 5.59447
H -3.25818 -2.7885 0.20563
H -1.53023 -3.12729 -0.13156
H 2.16915 -3.06589 -1.60645
H 1.02732 -1.7494 -2.07171
H 0.41762 -3.25654 -1.25927
H 2.69079 -5.11522 4.02587
H 1.31728 -5.25584 2.95004
H 1.57472 -6.0293 5.67328
H 0.48143 -4.63411 5.8033
$end

$opt
CONSTRAINT
tors           1           2           3           4    -107.802
tors           3           4           5           6    -171.361
tors           4           5           6           7    +178.296
tors           5           6           7           8     -71.542
tors           6           7           8           9    +125.892
tors           7           8           9          10    -135.920
tors           8           9          10          11    -178.852
tors           9          10          11          12    +179.510
tors          11          12          13          14    +128.814
ENDCONSTRAINT
$end

$rem
JOBTYPE                   OPT
METHOD                    B3LYP
DFT_D                     d3_op
BASIS                     STO-3G
GEOM_OPT_MAX_CYCLES       100
GEOM_OPT_TOL_GRADIENT     300
GEOM_OPT_TOL_DISPLACEMENT 1200
GEOM_OPT_TOL_ENERGY       100
SYMMETRY                  False
THRESH                    12
SCF_CONVERGENCE           8
MAX_SUB_FILE_NUM          128
MEM_STATIC                400
MEM_TOTAL                 4000
$end
--------------------------------------------------------------

   15   -1510.1449322372      9.13E-09 Convergence criterion met
 Total energy in the final basis set = -1510.14493224
   14   -1510.2153339310      2.81E-09 Convergence criterion met
 Total energy in the final basis set = -1510.21533393
   15   -1510.2450596170      3.40E-09 Convergence criterion met
 Total energy in the final basis set = -1510.24505962
    2   -1510.2450596168      1.51E-09 Convergence criterion met
 Total energy in the final basis set = -1510.24505962
   14   -1510.2711796484      5.49E-09 Convergence criterion met
 Total energy in the final basis set = -1510.27117965
   13   -1510.2797176518      8.44E-09 Convergence criterion met
 Total energy in the final basis set = -1510.27971765
   13   -1510.2851870501      4.00E-09 Convergence criterion met
 Total energy in the final basis set = -1510.28518705
   13   -1510.2883236453      3.32E-09 Convergence criterion met
   11   -1510.2949326459      5.83E-09 Convergence criterion met
 Total energy in the final basis set = -1510.29493265
   11   -1510.2949680496      5.87E-09 Convergence criterion met
 Total energy in the final basis set = -1510.29496805
   10   -1510.2949838850      4.53E-09 Convergence criterion met
 Total energy in the final basis set = -1510.29498388
    9   -1510.2949893473      5.93E-09 Convergence criterion met
 Total energy in the final basis set = -1510.29498935
    9   -1510.2949914763      4.89E-09 Convergence criterion met
 Total energy in the final basis set = -1510.29499148
    9   -1510.2949920093      2.42E-09 Convergence criterion met
 Total energy in the final basis set = -1510.29499201

             Standard Nuclear Orientation (Angstroms)
    I     Atom           X                Y                Z
 ----------------------------------------------------------------
    1      O      -1.5280807427     1.2546526759     2.1655542662
    2      C      -1.8637390795     1.3705181326     0.9675214769
    3      C      -3.2955293136     1.1197687448     0.3535202074
    4      C      -3.4344500701    -0.1902617592    -0.5224661056
    5      C      -2.1510454154    -1.0811764658    -0.5039339330
    6      O      -2.3046375946    -2.1253004269    -1.4787524212
    7      C      -1.0785604230    -2.9584357334    -1.5057570873
    8      C       0.1403338888    -2.1990179464    -2.1584470029
    9      O       1.2659809038    -2.2413444576    -1.1932131195
   10      C       1.8969654880    -0.9636335190    -1.1069121197
   11      C       3.0920132685    -1.0677266074    -0.1017846943
   12      C       3.8588563354     0.3041722071     0.0467635145
   13      C       3.5385892842     1.3522134199    -1.0835917336
   14      O       3.1903414089     2.5433431460    -0.9362244941
   15      O      -1.0311814577     1.8694537914    -0.0802959841
   16      O       3.9764324542     0.7870052316    -2.3305752993
   17      O       1.4883626309     0.0677419867    -1.6889808456
   18      C       3.6717816994     1.7201823689    -3.4364742962
   19      C       2.4895514413    -1.2199673691     1.3628418031
   20      C       3.6593025616    -1.4885377715     2.3885540382
   21      C       4.2791239618    -0.0475997187     2.5407053215
   22      C       3.4180139200     0.7607757143     1.4974235283
   23      O       2.0691425047     0.1678367142     1.6718848595
   24      H       3.7500924244    -1.9091321074    -0.3813563017
   25      H       4.9496512331     0.1264776402     0.0122332093
   26      H       1.6246974298    -1.9090358361     1.4250541127
   27      H       3.2557623169    -1.8594793446     3.3439071247
   28      H       4.3836123187    -2.2231756873     2.0013622132
   29      H       4.1215594179     0.3497314770     3.5560423660
   30      H       5.3559921076    -0.0175256543     2.3102898311
   31      H       3.3789131939     1.8586826962     1.6363771277
   32      O      -1.1392753476    -0.9549698672     0.2204696755
   33      C       0.3240129100     2.1686613084     0.4407774481
   34      C      -4.3772089460     0.8469578155     1.4796044523
   35      C      -5.8072971724     1.1101979439     0.8664485395
   36      C      -5.9708988178    -0.1490043750    -0.0643132091
   37      C      -4.6278120826    -0.9270322948     0.2329775923
   38      O      -4.3480907669    -0.6255343991     1.6532028470
   39      H      -3.5587878409     2.0060478242    -0.2514031603
   40      H      -3.6955212068     0.0318401990    -1.5725806230
   41      H       0.8222740680     1.2687638749     0.8775557091
   42      H      -4.1616050756     1.3491221090     2.4425415011
   43      H      -6.5716678417     1.1257769608     1.6599080967
   44      H      -5.8546028264     2.0599730606     0.3104322432
   45      H      -6.8410609277    -0.7592508978     0.2255062306
   46      H      -6.0661673953     0.1179799037    -1.1290689610
   47      H      -4.6677312799    -2.0206036451     0.0619865742
   48      H       0.2830821730     2.9644216417     1.2120130783
   49      H       0.9180011650     2.5278040324    -0.4203631978
   50      H       4.1214774119     1.2795479868    -4.3453234156
   51      H       4.1020302282     2.7263780806    -3.2561117381
   52      H       2.5761676554     1.8241618605    -3.5785354971
   53      H       0.4582585025    -2.6985078861    -3.0981390475
   54      H      -0.1078002821    -1.1382944725    -2.3808496003
   55      H      -1.3484971113    -3.8536978919    -2.0995354425
   56      H      -0.7843283363    -3.2710688989    -0.4800281757
 ----------------------------------------------------------------

    8   -1510.2949921137      9.19E-09 Convergence criterion met
 Total energy in the final basis set = -1510.29499211
 Final energy is   -1510.29499211365
 **  OPTIMIZATION CONVERGED  **

                    Orbital Energies (a.u.)
 --------------------------------------------------------------

 Alpha MOs
 -- Occupied --
-18.942 -18.937 -18.921 -18.900 -18.900 -18.888 -18.882 -18.881
-18.865 -18.843 -10.108 -10.101 -10.095 -10.078 -10.074 -10.073
-10.065 -10.061 -10.056 -10.056 -10.049 -10.043 -10.037 -10.034
-10.023 -10.022 -10.022 -10.016 -10.014 -10.012  -1.023  -1.014
 -1.001  -0.980  -0.977  -0.964  -0.946  -0.939  -0.927  -0.906
 -0.767  -0.756  -0.730  -0.720  -0.712  -0.703  -0.693  -0.656
 -0.631  -0.619  -0.594  -0.577  -0.548  -0.540  -0.537  -0.529
 -0.514  -0.505  -0.484  -0.467  -0.460  -0.455  -0.451  -0.444
 -0.435  -0.433  -0.425  -0.411  -0.405  -0.402  -0.399  -0.388
 -0.379  -0.376  -0.371  -0.364  -0.356  -0.351  -0.350  -0.345
 -0.338  -0.337  -0.330  -0.329  -0.326  -0.322  -0.316  -0.314
 -0.307  -0.306  -0.303  -0.296  -0.292  -0.281  -0.275  -0.269
 -0.264  -0.257  -0.253  -0.247  -0.241  -0.228  -0.219  -0.190
 -0.176  -0.167  -0.163  -0.157  -0.154  -0.146  -0.139  -0.138
 -0.125

          Ground-State Mulliken Net Atomic Charges

     Atom                 Charge (a.u.)
  ----------------------------------------
      1 O                    -0.218372
      2 C                     0.212915
      3 C                    -0.081570
      4 C                    -0.078029
      5 C                     0.212819
      6 O                    -0.172862
      7 C                    -0.050217
      8 C                    -0.054962
      9 O                    -0.170703
     10 C                     0.222215
     11 C                    -0.076845
     12 C                    -0.081273
     13 C                     0.218607
     14 O                    -0.218944
     15 O                    -0.180392
     16 O                    -0.177364
     17 O                    -0.204995
     18 C                    -0.128825
     19 C                     0.028033
     20 C                    -0.143853
     21 C                    -0.142125
     22 C                     0.025075
     23 O                    -0.181862
     24 H                     0.089082
     25 H                     0.084837
     26 H                     0.094475
     27 H                     0.081528
     28 H                     0.074289
     29 H                     0.080971
     30 H                     0.074185
     31 H                     0.093772
     32 O                    -0.204095
     33 C                    -0.149502
     34 C                     0.024485
     35 C                    -0.143872
     36 C                    -0.143952
     37 C                     0.024979
     38 O                    -0.190012
     39 H                     0.081804
     40 H                     0.085984
     41 H                     0.109248
     42 H                     0.089470
     43 H                     0.076822
     44 H                     0.073011
     45 H                     0.076909
     46 H                     0.072767
     47 H                     0.082345
     48 H                     0.071937
     49 H                     0.087717
     50 H                     0.086152
     51 H                     0.088501
     52 H                     0.090744
     53 H                     0.084351
     54 H                     0.106282
     55 H                     0.090275
     56 H                     0.098044
  ----------------------------------------
  Sum of atomic charges =     0.000000

                    Cartesian Multipole Moments
 -----------------------------------------------------------------
    Charge (ESU x 10^10)
                -0.0000
    Dipole Moment (Debye)
         X       1.2069      Y      -2.2589      Z      -2.6299
       Tot       3.6709
    Quadrupole Moments (Debye-Ang)
        XX    -140.2014     XY      -5.4888     YY    -156.4559
        XZ       7.5125     YZ       1.8929     ZZ    -158.8933

 Total job time:  66.97s(wall), 3191.12s(cpu)
        *  Thank you very much for using Q-Chem.  Have a nice day.  *
