 Q-Chem 5.0, Q-Chem, Inc., Pleasanton, CA (2017)
 Q-Chem 5.0.1 for Intel X86 EM64T Linux

User input:
--------------------------------------------------------------
$molecule
0  1
O -1.5280807427 1.2546526759 2.1655542662
C -1.8637390795 1.3705181326 0.9675214769
C -3.2955293136 1.1197687448 0.3535202074
C -3.4344500701 -0.1902617592 -0.5224661056
C -2.1510454154 -1.0811764658 -0.503933933
O -2.3046375946 -2.1253004269 -1.4787524212
C -1.078560423 -2.9584357334 -1.5057570873
C 0.1403338888 -2.1990179464 -2.1584470029
O 1.2659809038 -2.2413444576 -1.1932131195
C 1.896965488 -0.963633519 -1.1069121197
C 3.0920132685 -1.0677266074 -0.1017846943
C 3.8588563354 0.3041722071 0.0467635145
C 3.5385892842 1.3522134199 -1.0835917336
O 3.1903414089 2.543343146 -0.9362244941
O -1.0311814577 1.8694537914 -0.0802959841
O 3.9764324542 0.7870052316 -2.3305752993
O 1.4883626309 0.0677419867 -1.6889808456
C 3.6717816994 1.7201823689 -3.4364742962
C 2.4895514413 -1.2199673691 1.3628418031
C 3.6593025616 -1.4885377715 2.3885540382
C 4.2791239618 -0.0475997187 2.5407053215
C 3.41801392 0.7607757143 1.4974235283
O 2.0691425047 0.1678367142 1.6718848595
H 3.7500924244 -1.9091321074 -0.3813563017
H 4.9496512331 0.1264776402 0.0122332093
H 1.6246974298 -1.9090358361 1.4250541127
H 3.2557623169 -1.8594793446 3.3439071247
H 4.3836123187 -2.2231756873 2.0013622132
H 4.1215594179 0.349731477 3.556042366
H 5.3559921076 -0.0175256543 2.3102898311
H 3.3789131939 1.8586826962 1.6363771277
O -1.1392753476 -0.9549698672 0.2204696755
C 0.32401291 2.1686613084 0.4407774481
C -4.377208946 0.8469578155 1.4796044523
C -5.8072971724 1.1101979439 0.8664485395
C -5.9708988178 -0.149004375 -0.0643132091
C -4.6278120826 -0.9270322948 0.2329775923
O -4.3480907669 -0.6255343991 1.653202847
H -3.5587878409 2.0060478242 -0.2514031603
H -3.6955212068 0.031840199 -1.572580623
H 0.822274068 1.2687638749 0.8775557091
H -4.1616050756 1.349122109 2.4425415011
H -6.5716678417 1.1257769608 1.6599080967
H -5.8546028264 2.0599730606 0.3104322432
H -6.8410609277 -0.7592508978 0.2255062306
H -6.0661673953 0.1179799037 -1.129068961
H -4.6677312799 -2.0206036451 0.0619865742
H 0.283082173 2.9644216417 1.2120130783
H 0.918001165 2.5278040324 -0.4203631978
H 4.1214774119 1.2795479868 -4.3453234156
H 4.1020302282 2.7263780806 -3.2561117381
H 2.5761676554 1.8241618605 -3.5785354971
H 0.4582585025 -2.6985078861 -3.0981390475
H -0.1078002821 -1.1382944725 -2.3808496003
H -1.3484971113 -3.8536978919 -2.0995354425
H -0.7843283363 -3.2710688989 -0.4800281757
$end

$rem
JOBTYPE                   OPT
METHOD                    B3LYP
DFT_D                     d3_op
BASIS                     STO-3G
GEOM_OPT_MAX_CYCLES       100
GEOM_OPT_TOL_GRADIENT     300
GEOM_OPT_TOL_DISPLACEMENT 1200
GEOM_OPT_TOL_ENERGY       100
SYMMETRY                  False
THRESH                    12
SCF_CONVERGENCE           8
MAX_SUB_FILE_NUM          128
MEM_STATIC                400
MEM_TOTAL                 4000
$end
--------------------------------------------------------------

   16   -1510.2951599318      6.49E-09 Convergence criterion met
 Total energy in the final basis set = -1510.29515993
   14   -1510.2900627933      1.80E-09 Convergence criterion met
 Total energy in the final basis set = -1510.29006279
   14   -1510.2930862622      2.04E-09 Convergence criterion met
 Total energy in the final basis set = -1510.29308626
   14   -1510.1382748357      8.30E-09 Convergence criterion met
 Total energy in the final basis set = -1510.13827484
   14   -1510.2875243841      6.86E-09 Convergence criterion met
 Total energy in the final basis set = -1510.28752438
   14   -1510.2900629584      1.38E-09 Convergence criterion met
 Total energy in the final basis set = -1510.29006296
   13   -1510.2900874722      6.01E-09 Convergence criterion met
 Total energy in the final basis set = -1510.29008747
   13   -1510.2912238644      7.65E-09 Convergence criterion met
   12   -1510.3007813437      2.48E-09 Convergence criterion met
 Total energy in the final basis set = -1510.30078134
   11   -1510.3007908803      4.12E-09 Convergence criterion met
 Total energy in the final basis set = -1510.30079088
    9   -1510.3007935641      9.52E-09 Convergence criterion met
 Total energy in the final basis set = -1510.30079356
   10   -1510.3007929453      7.33E-09 Convergence criterion met
 Total energy in the final basis set = -1510.30079295
   11   -1510.3007945250      6.20E-09 Convergence criterion met
 Total energy in the final basis set = -1510.30079453
    9   -1510.3007935175      3.09E-09 Convergence criterion met
 Total energy in the final basis set = -1510.30079352

             Standard Nuclear Orientation (Angstroms)
    I     Atom           X                Y                Z
 ----------------------------------------------------------------
    1      O       1.1045347805     2.3404014723     0.1387932343
    2      C       1.6035991429     1.4319882790     0.8373282354
    3      C       3.0834823907     0.8970143783     0.7729299382
    4      C       3.2427329740    -0.6148638176     0.3408897884
    5      C       1.9336103387    -1.2515370322    -0.2310349270
    6      O       2.0801141389    -2.6742090488    -0.1609662328
    7      C       1.0023834892    -3.3754011605    -0.8986556208
    8      C      -0.4162053086    -3.3189125241    -0.2107674302
    9      O      -1.2905615939    -2.3949103155    -0.9685894959
   10      C      -1.7680553537    -1.3436423819    -0.1217741063
   11      C      -2.5328273581    -0.3183393290    -1.0166858759
   12      C      -3.7036404625     0.4474385672    -0.2738272965
   13      C      -3.8157300700     0.0867561859     1.2527428902
   14      O      -3.5310935105     0.8087458323     2.2309723098
   15      O       0.9558557026     0.7533340202     1.9096930463
   16      O      -4.3829113734    -1.2270122432     1.3491701710
   17      O      -1.5771103765    -1.2969545763     1.1141357307
   18      C      -4.4062042515    -1.6602962285     2.7637796980
   19      C      -1.5853291680     0.8961991659    -1.4322664061
   20      C      -2.2393341164     1.6229749214    -2.6677364251
   21      C      -3.4541879892     2.3572817559    -1.9830691513
   22      C      -3.2536928686     1.9506987800    -0.4715362303
   23      O      -1.7789365597     1.8763215061    -0.3400887728
   24      H      -2.8966826130    -0.8535024722    -1.9109089555
   25      H      -4.6749717889     0.2338716187    -0.7551504358
   26      H      -0.5136339327     0.6201280639    -1.5130225508
   27      H      -1.5287025746     2.3427047346    -3.1044530942
   28      H      -2.5541742262     0.9148781573    -3.4509209822
   29      H      -3.3815327870     3.4502345453    -2.0987957178
   30      H      -4.4282856395     2.0243696593    -2.3760255015
   31      H      -3.6692655428     2.6517758050     0.2777874944
   32      O       0.9491846840    -0.6671843610    -0.7330081218
   33      C      -0.4071773066     1.2984755208     2.1395342384
   34      C       3.9437765797     1.6303222266    -0.3399569798
   35      C       5.4660679511     1.4809834013     0.0459901843
   36      C       5.6944069080    -0.0494827231    -0.2431895352
   37      C       4.2928056613    -0.4640144312    -0.8459323499
   38      O       3.8180470854     0.7573609564    -1.5326927101
   39      H       3.5288511758     1.0444589460     1.7733757774
   40      H       3.6241032721    -1.2540134515     1.1563591176
   41      H      -0.9437660493     1.5145776286     1.1805354881
   42      H       3.5956095327     2.6550245030    -0.5748458159
   43      H       6.0923707104     2.1103863481    -0.6065426837
   44      H       5.6616377947     1.7526985324     1.0954730887
   45      H       6.4951664439    -0.2096752043    -0.9823389795
   46      H       5.9345482056    -0.6217050982     0.6672205066
   47      H       4.3175789096    -1.3231423119    -1.5446083857
   48      H      -0.3461014667     2.2256286544     2.7452196714
   49      H      -0.9542940643     0.5258086154     2.7086452768
   50      H      -4.9084652863    -2.6450504269     2.7764740013
   51      H      -4.9661310013    -0.9474737511     3.4028060673
   52      H      -3.3768760840    -1.7629513438     3.1653287699
   53      H      -0.8811161388    -4.3270811454    -0.2315579221
   54      H      -0.3457451083    -2.9677233110     0.8427999501
   55      H       1.3483076468    -4.4270236442    -0.9549167569
   56      H       0.9036533757    -2.9709649806    -1.9302227709
 ----------------------------------------------------------------

    9   -1510.3007942473      2.11E-09 Convergence criterion met
 Total energy in the final basis set = -1510.30079425
 Final energy is   -1510.30079424728
 **  OPTIMIZATION CONVERGED  **

                    Orbital Energies (a.u.)
 --------------------------------------------------------------

 Alpha MOs
 -- Occupied --
-18.939 -18.934 -18.924 -18.903 -18.898 -18.884 -18.883 -18.878
-18.867 -18.849 -10.106 -10.102 -10.093 -10.078 -10.077 -10.071
-10.059 -10.058 -10.057 -10.053 -10.051 -10.036 -10.036 -10.034
-10.025 -10.018 -10.018 -10.016 -10.015 -10.009  -1.020  -1.011
 -1.001  -0.983  -0.972  -0.966  -0.944  -0.938  -0.928  -0.910
 -0.762  -0.758  -0.726  -0.719  -0.711  -0.701  -0.694  -0.656
 -0.632  -0.618  -0.592  -0.577  -0.544  -0.539  -0.534  -0.531
 -0.512  -0.504  -0.481  -0.464  -0.459  -0.449  -0.449  -0.444
 -0.436  -0.429  -0.425  -0.412  -0.406  -0.400  -0.397  -0.390
 -0.378  -0.375  -0.374  -0.361  -0.354  -0.353  -0.349  -0.345
 -0.341  -0.334  -0.329  -0.328  -0.325  -0.321  -0.317  -0.307
 -0.305  -0.302  -0.297  -0.295  -0.294  -0.279  -0.271  -0.269
 -0.265  -0.257  -0.249  -0.246  -0.239  -0.230  -0.216  -0.190
 -0.172  -0.168  -0.160  -0.157  -0.153  -0.146  -0.141  -0.139
 -0.129

          Ground-State Mulliken Net Atomic Charges

     Atom                 Charge (a.u.)
  ----------------------------------------
      1 O                    -0.216139
      2 C                     0.209986
      3 C                    -0.081285
      4 C                    -0.077032
      5 C                     0.219183
      6 O                    -0.172341
      7 C                    -0.050335
      8 C                    -0.056771
      9 O                    -0.171244
     10 C                     0.221503
     11 C                    -0.079176
     12 C                    -0.080779
     13 C                     0.214659
     14 O                    -0.212378
     15 O                    -0.181488
     16 O                    -0.175630
     17 O                    -0.214053
     18 C                    -0.128942
     19 C                     0.023106
     20 C                    -0.142473
     21 C                    -0.143657
     22 C                     0.027069
     23 O                    -0.178571
     24 H                     0.087503
     25 H                     0.084981
     26 H                     0.111718
     27 H                     0.082568
     28 H                     0.073557
     29 H                     0.079843
     30 H                     0.072900
     31 H                     0.090282
     32 O                    -0.213512
     33 C                    -0.152069
     34 C                     0.023630
     35 C                    -0.143208
     36 C                    -0.144240
     37 C                     0.024711
     38 O                    -0.190977
     39 H                     0.082351
     40 H                     0.087837
     41 H                     0.119101
     42 H                     0.090708
     43 H                     0.077081
     44 H                     0.073417
     45 H                     0.077166
     46 H                     0.073534
     47 H                     0.080464
     48 H                     0.068806
     49 H                     0.085940
     50 H                     0.086940
     51 H                     0.088128
     52 H                     0.092064
     53 H                     0.085119
     54 H                     0.105784
     55 H                     0.090378
     56 H                     0.094282
  ----------------------------------------
  Sum of atomic charges =     0.000000

                    Cartesian Multipole Moments
 -----------------------------------------------------------------
    Charge (ESU x 10^10)
                -0.0000
    Dipole Moment (Debye)
         X      -0.0385      Y      -2.9323      Z      -0.8004
       Tot       3.0398
    Quadrupole Moments (Debye-Ang)
        XX    -141.7337     XY      -1.1892     YY    -154.0206
        XZ       6.0848     YZ      -0.6802     ZZ    -159.5817

 Total job time:  132.10s(wall), 6295.37s(cpu)
        *  Thank you very much for using Q-Chem.  Have a nice day.  *
